Title
81290
    1CHL1    C3    1   0.642   5.175  10.169  0.2869 -0.2062  0.1082
    1CHL1    H3    2   0.747   5.210  10.174  0.2119  0.4560 -2.4664
    1CHL1    O3    3   0.592   5.138  10.294  0.2544  0.2861  0.0916
    1CHL1   H3'    4   0.498   5.161  10.296 -0.1240 -1.1464 -0.1510
    1CHL1    C4    5   0.569   5.305  10.122  0.2523  0.3315 -0.0033
    1CHL1   H4A    6   0.461   5.281  10.112  0.1282  1.3494 -1.1905
    1CHL1   H4B    7   0.586   5.388  10.194 -2.0065 -0.4854  1.5229
    1CHL1    C5    8   0.614   5.328   9.978 -0.1899 -0.5053  0.1247
    1CHL1    C6    9   0.676   5.442   9.946  0.0385 -0.3594  0.1200
    1CHL1    H6   10   0.683   5.517  10.025 -1.2944  0.0135 -0.0999
    1CHL1    C7   11   0.701   5.486   9.803  0.4080 -0.4392 -0.3442
    1CHL1   H7A   12   0.671   5.593   9.791  0.6434 -0.6682 -3.1135
    1CHL1   H7B   13   0.811   5.483   9.788  0.1441 -0.1921 -2.4892
    1CHL1    C8   14   0.626   5.402   9.700  0.6546 -0.2550  0.2369
    1CHL1    H8   15   0.519   5.433   9.703  1.3509  2.2265  0.1802
    1CHL1   C14   16   0.675   5.427   9.556 -0.4522 -0.3897 -0.3414
    1CHL1   H14   17   0.784   5.415   9.575 -0.9497 -1.2789  2.0597
    1CHL1   C15   18   0.660   5.571   9.499 -0.3262 -0.5135  0.5834
    1CHL1  H15A   19   0.553   5.600   9.502 -0.3458 -0.6051  0.7519
    1CHL1  H15B   20   0.723   5.642   9.557 -1.6752  0.3272  1.0613
    1CHL1   C16   21   0.694   5.556   9.348  0.5220  0.0116  0.3611
    1CHL1  H16A   22   0.613   5.595   9.283 -0.3367  0.2406  1.5537
    1CHL1  H16B   23   0.784   5.612   9.315 -0.1261  0.3473 -0.8684
    1CHL1   C17   24   0.702   5.403   9.323 -0.6347 -0.7528 -0.5907
    1CHL1   H17   25   0.808   5.380   9.346 -1.2521 -1.1012  2.0562
    1CHL1   C13   26   0.631   5.332   9.446  0.2486  0.4320  0.9638
    1CHL1   C18   27   0.481   5.342   9.424  0.2997 -0.4735 -0.1590
    1CHL1  H18A   28   0.452   5.417   9.346  0.3341 -0.4702 -0.1673
    1CHL1  H18B   29   0.448   5.243   9.388 -0.3308 -0.8135  1.3347
    1CHL1  H18C   30   0.422   5.371   9.514  0.5214 -0.9930  0.1526
    1CHL1   C12   31   0.667   5.185   9.480  0.7122  0.5248  0.2925
    1CHL1  H12A   32   0.633   5.108   9.408  2.1342 -0.9918  1.1998
    1CHL1  H12B   33   0.778   5.185   9.487  0.8281  1.2360 -1.4593
    1CHL1   C11   34   0.627   5.148   9.618  0.8209 -0.1881  0.2299
    1CHL1  H11A   35   0.516   5.143   9.613  0.6323  0.2166  2.9198
    1CHL1  H11B   36   0.661   5.046   9.643 -0.7133  0.1045  3.8367
    1CHL1    C9   37   0.651   5.256   9.734  1.9541 -0.3465  0.1498
    1CHL1    H9   38   0.761   5.251   9.742  2.0185 -1.5974 -1.2072
    1CHL1   C10   39   0.591   5.221   9.871  0.2293  0.2741  0.4217
    1CHL1   C19   40   0.430   5.223   9.852  0.0769 -0.3557 -0.9527
    1CHL1  H19A   41   0.398   5.325   9.822 -0.3883 -0.1593  0.1979
    1CHL1  H19B   42   0.404   5.163   9.762  0.8465 -1.9636 -0.1237
    1CHL1  H19C   43   0.378   5.176   9.938  0.9928  0.1842 -0.0944
    1CHL1    C1   44   0.645   5.087   9.937 -0.5775  0.6446  0.2501
    1CHL1   H1A   45   0.605   5.003   9.875 -0.8993  1.7747 -1.0973
    1CHL1   H1B   46   0.755   5.082   9.923 -0.8048 -0.6028 -1.4005
    1CHL1    C2   47   0.609   5.059  10.081  0.2687  0.2042 -0.3289
    1CHL1   H2A   48   0.647   4.958  10.108  1.1352  0.6129 -0.0122
    1CHL1   H2B   49   0.498   5.058  10.075 -0.0020  2.1243  3.0117
    1CHL1   C20   50   0.656   5.377   9.178 -0.9871  0.5028  0.2560
    1CHL1   H20   51   0.551   5.410   9.160 -0.4062  0.7007 -3.0657
    1CHL1   C21   52   0.666   5.225   9.156 -0.6648 -1.1446  0.0697
    1CHL1  H21A   53   0.633   5.184   9.058 -2.8455  0.0482  0.2589
    1CHL1  H21B   54   0.591   5.171   9.218 -1.0285 -2.4577 -1.4824
    1CHL1  H21C   55   0.761   5.181   9.193  0.5950  0.3598 -1.3004
    1CHL1   C22   56   0.750   5.423   9.062  0.1007  0.0590  0.2441
    1CHL1  H22A   57   0.790   5.525   9.081  0.8488 -0.0486 -0.7351
    1CHL1  H22B   58   0.839   5.357   9.065 -0.5972 -0.9130 -0.1185
    1CHL1   C23   59   0.678   5.423   8.924 -0.1176 -0.2710  0.2421
    1CHL1  H23A   60   0.644   5.322   8.890  0.6600 -1.1983  2.1521
    1CHL1  H23B   61   0.592   5.493   8.927 -0.8745 -1.0998 -1.2632
    1CHL1   C24   62   0.770   5.475   8.819 -0.5698  0.4840 -0.3703
    1CHL1  H24A   63   0.802   5.581   8.833 -0.9313  0.6120 -0.5095
    1CHL1  H24B   64   0.864   5.415   8.816 -0.5253  0.4232  1.6059
    1CHL1   C25   65   0.709   5.473   8.678  0.2714  0.5809 -0.4609
    1CHL1   H25   66   0.612   5.526   8.690  0.4961  0.9291 -0.1331
    1CHL1   C26   67   0.790   5.546   8.566  0.0782  0.5538  0.2743
    1CHL1  H26A   68   0.891   5.500   8.557 -0.3513 -0.3774  0.2659
    1CHL1  H26B   69   0.729   5.556   8.474 -1.4750  0.3126  1.2682
    1CHL1  H26C   70   0.808   5.645   8.614 -1.1674 -0.2245  2.3711
    1CHL1   C27   71   0.674   5.324   8.630  0.2201 -0.0047 -0.0229
    1CHL1  H27A   72   0.595   5.280   8.696 -1.0855  0.0697 -1.5143
    1CHL1  H27B   73   0.631   5.311   8.529 -0.4832 -1.4837  0.4542
    1CHL1  H27C   74   0.771   5.272   8.646 -0.3627 -0.7343  1.2296
    2CHL1    C3   75   1.400   3.471   9.977  0.5221  0.1235  0.2673
    2CHL1    H3   76   1.314   3.534  10.009  0.1348 -1.0630  1.5821
    2CHL1    O3   77   1.488   3.471  10.084 -0.0902 -0.2227  0.3371
    2CHL1   H3'   78   1.455   3.414  10.153 -2.0909 -1.1797 -1.3417
    2CHL1    C4   79   1.339   3.340   9.928 -0.0214 -0.4977  0.3086
    2CHL1   H4A   80   1.413   3.268   9.888  0.7402  0.5145 -0.1182
    2CHL1   H4B   81   1.276   3.284  10.001  1.1144 -1.2878  0.6828
    2CHL1    C5   82   1.245   3.374   9.811 -0.7248 -0.4478  0.2218
    2CHL1    C6   83   1.118   3.337   9.822  0.2297 -0.3451  0.4237
    2CHL1    H6   84   1.082   3.292   9.916  1.3454  1.3050  1.6720
    2CHL1    C7   85   1.013   3.367   9.721 -0.3792 -0.6286 -0.3215
    2CHL1   H7A   86   0.938   3.285   9.709 -0.4121 -0.4184 -1.6156
    2CHL1   H7B   87   0.959   3.461   9.749  1.7418  0.9175 -1.3162
    2CHL1    C8   88   1.080   3.403   9.586  0.1300 -0.6432 -0.0345
    2CHL1    H8   89   1.125   3.306   9.555 -0.9471 -1.1888  0.0920
    2CHL1   C14   90   0.972   3.447   9.489  0.4128 -0.2583  0.0084
    2CHL1   H14   91   0.935   3.540   9.539 -0.4412 -1.4509  1.6394
    2CHL1   C15   92   0.848   3.369   9.470  0.4283 -0.2782  0.1492
    2CHL1  H15A   93   0.861   3.259   9.467 -0.7274 -0.4182 -0.2159
    2CHL1  H15B   94   0.772   3.382   9.551 -0.6925 -1.2203 -0.7293
    2CHL1   C16   95   0.798   3.421   9.336  0.0290 -0.3087 -0.4788
    2CHL1  H16A   96   0.785   3.334   9.269 -1.7147  0.8808 -1.7267
    2CHL1  H16B   97   0.698   3.470   9.343 -1.7134 -3.8906  1.7871
    2CHL1   C17   98   0.897   3.525   9.280 -1.0440  0.3079 -0.8464
    2CHL1   H17   99   0.861   3.624   9.315 -2.8683  0.1924 -2.3041
    2CHL1   C13  100   1.028   3.492   9.351 -0.5896 -0.2796  0.5795
    2CHL1   C18  101   1.093   3.363   9.292 -1.1260  0.2896  0.0008
    2CHL1  H18A  102   1.015   3.284   9.280 -0.8169  0.1120 -0.8704
    2CHL1  H18B  103   1.127   3.375   9.187 -0.7200 -2.3776 -0.2053
    2CHL1  H18C  104   1.172   3.325   9.360  0.3025  1.1398 -1.1649
    2CHL1   C12  105   1.123   3.612   9.374  0.2750  0.0642 -0.5276
    2CHL1  H12A  106   1.155   3.652   9.275 -0.1448 -1.1109 -1.1518
    2CHL1  H12B  107   1.065   3.691   9.426 -1.4664 -0.6621 -1.3080
    2CHL1   C11  108   1.237   3.581   9.470  0.0636  0.0788 -0.7563
    2CHL1  H11A  109   1.299   3.509   9.411  1.8799  0.5816  0.4963
    2CHL1  H11B  110   1.301   3.669   9.489 -0.0024 -0.0423  0.0608
    2CHL1    C9  111   1.186   3.508   9.604 -0.2689 -0.2470  0.2929
    2CHL1    H9  112   1.140   3.598   9.650  3.2882  1.6796  0.2620
    2CHL1   C10  113   1.302   3.458   9.692  0.2080 -0.9757  0.2086
    2CHL1   C19  114   1.400   3.369   9.605  0.0248  0.3939  0.2172
    2CHL1  H19A  115   1.475   3.317   9.668 -1.3298  0.9615  2.3768
    2CHL1  H19B  116   1.342   3.283   9.565  1.2656  0.3775 -1.5778
    2CHL1  H19C  117   1.454   3.424   9.526 -1.6001 -1.0539 -1.9556
    2CHL1    C1  118   1.382   3.581   9.750  0.1923  0.3973  0.0159
    2CHL1   H1A  119   1.442   3.635   9.673  0.5704  0.0747  0.0818
    2CHL1   H1B  120   1.307   3.651   9.792  0.3059  0.5241  0.0082
    2CHL1    C2  121   1.478   3.544   9.865 -0.0968 -0.2071  0.4671
    2CHL1   H2A  122   1.522   3.634   9.914 -0.1852 -1.1710  2.3520
    2CHL1   H2B  123   1.553   3.466   9.841  1.1725  0.9979  0.4918
    2CHL1   C20  124   0.887   3.530   9.122  0.2505  0.8166 -0.0868
    2CHL1   H20  125   0.914   3.425   9.097  0.2130  0.9302 -0.6134
    2CHL1   C21  126   0.996   3.618   9.049  0.3940 -0.2183 -0.6492
    2CHL1  H21A  127   1.094   3.597   9.097 -0.1893 -0.7612  0.3183
    2CHL1  H21B  128   0.962   3.723   9.065 -0.7970 -0.2876 -2.5320
    2CHL1  H21C  129   1.002   3.599   8.939 -0.3706  0.3946 -0.8046
    2CHL1   C22  130   0.748   3.550   9.058  0.1725 -0.0278 -0.3242
    2CHL1  H22A  131   0.669   3.497   9.114  0.3813 -0.7014 -0.6635
    2CHL1  H22B  132   0.728   3.660   9.058 -0.8722 -0.1663  2.4963
    2CHL1   C23  133   0.738   3.493   8.919  0.2222  0.2857  0.2898
    2CHL1  H23A  134   0.778   3.559   8.840  1.7471  1.1741  1.7699
    2CHL1  H23B  135   0.809   3.408   8.920 -0.5388 -0.3794  3.5120
    2CHL1   C24  136   0.592   3.451   8.876  0.7453  0.1112  0.2646
    2CHL1  H24A  137   0.545   3.419   8.971 -1.1260  1.3243 -0.2244
    2CHL1  H24B  138   0.531   3.539   8.846  0.8843 -0.2498 -1.1117
    2CHL1   C25  139   0.591   3.345   8.768 -0.2217 -0.0820  0.6881
    2CHL1   H25  140   0.648   3.382   8.680 -1.0016 -1.2773 -0.3375
    2CHL1   C26  141   0.641   3.205   8.817  0.1358 -0.7184 -0.0622
    2CHL1  H26A  142   0.610   3.197   8.923  1.0106  1.1305  0.3585
    2CHL1  H26B  143   0.584   3.135   8.752  0.6215 -0.7407 -0.4726
    2CHL1  H26C  144   0.752   3.199   8.809  0.1594  1.1802 -1.5091
    2CHL1   C27  145   0.448   3.327   8.704 -0.0207 -0.1227 -0.3346
    2CHL1  H27A  146   0.403   3.420   8.662 -0.4890 -0.4135 -0.4876
    2CHL1  H27B  147   0.451   3.245   8.629  0.1462 -1.9177  1.5648
    2CHL1  H27C  148   0.383   3.282   8.783 -2.1979 -0.2590 -2.1306
    3CHL1    C3  149   2.035   3.019  10.125 -0.2053  0.0376  0.0876
    3CHL1    H3  150   2.103   2.951  10.068 -0.5486 -3.1767  3.3846
    3CHL1    O3  151   2.093   3.039  10.256 -0.4007 -0.0261 -0.3392
    3CHL1   H3'  152   2.097   3.135  10.259 -0.5268  0.0938 -2.8810
    3CHL1    C4  153   2.010   3.154  10.049 -0.1031  0.2644  0.0245
    3CHL1   H4A  154   1.940   3.199  10.123 -0.5151 -0.1851 -0.0893
    3CHL1   H4B  155   2.112   3.197  10.055  0.4534 -1.0160  0.0445
    3CHL1    C5  156   1.973   3.127   9.904 -0.1415  0.7905  0.4132
    3CHL1    C6  157   2.043   3.177   9.806  0.4980 -1.2558 -0.1446
    3CHL1    H6  158   2.122   3.252   9.823 -0.6759 -0.0286  0.0155
    3CHL1    C7  159   2.006   3.137   9.663 -0.5349 -0.4027 -0.3127
    3CHL1   H7A  160   2.030   3.221   9.594 -0.4513 -0.2438 -0.0881
    3CHL1   H7B  161   2.076   3.055   9.638  1.2002  0.4519  1.5786
    3CHL1    C8  162   1.864   3.100   9.637 -0.4145  0.1862  0.6539
    3CHL1    H8  163   1.809   3.196   9.628  2.1801  1.8642  2.1783
    3CHL1   C14  164   1.852   3.031   9.499  0.1036  0.1229 -0.5310
    3CHL1   H14  165   1.911   2.937   9.504  1.1063  0.7970  0.6894
    3CHL1   C15  166   1.909   3.116   9.380 -0.0048  0.3208 -0.1664
    3CHL1  H15A  167   1.883   3.221   9.405 -0.6674 -0.1320  1.0889
    3CHL1  H15B  168   2.019   3.107   9.375  0.2047  2.2482  0.6711
    3CHL1   C16  169   1.835   3.066   9.254  0.0174  0.7963  0.3335
    3CHL1  H16A  170   1.777   3.149   9.209  2.1730  1.8984 -0.4818
    3CHL1  H16B  171   1.903   3.017   9.181 -0.2498 -0.5718  0.9777
    3CHL1   C17  172   1.734   2.961   9.315  0.3774  0.5398 -0.1097
    3CHL1   H17  173   1.783   2.862   9.318 -2.1851 -0.8760 -2.2940
    3CHL1   C13  174   1.706   2.998   9.462 -0.1714 -0.6106  0.1925
    3CHL1   C18  175   1.614   3.117   9.462 -0.2407 -0.9452 -0.0774
    3CHL1  H18A  176   1.601   3.166   9.561 -2.1213  2.9942 -2.1713
    3CHL1  H18B  177   1.643   3.207   9.403 -0.6234 -0.1938  0.8758
    3CHL1  H18C  178   1.515   3.095   9.418 -0.2865 -1.1225  0.1170
    3CHL1   C12  179   1.662   2.897   9.563 -0.3277 -0.0989 -0.1917
    3CHL1  H12A  180   1.565   2.849   9.537 -1.7162  1.7887  1.3762
    3CHL1  H12B  181   1.734   2.813   9.551  1.3733  1.5784 -1.9485
    3CHL1   C11  182   1.666   2.949   9.711 -0.1833  0.5387 -0.5426
    3CHL1  H11A  183   1.581   3.018   9.731  0.4268  1.1963 -0.1789
    3CHL1  H11B  184   1.661   2.856   9.772  3.4436 -1.5008 -3.1452
    3CHL1    C9  185   1.811   3.006   9.742 -0.4262  0.6021  0.1667
    3CHL1    H9  186   1.860   2.909   9.718  0.7483  1.8841 -2.8300
    3CHL1   C10  187   1.840   3.045   9.892 -0.2172  0.1547  0.3272
    3CHL1   C19  188   1.717   3.132   9.936 -0.3412 -0.2865  0.3155
    3CHL1  H19A  189   1.716   3.148  10.046  0.5410 -0.6438  0.3788
    3CHL1  H19B  190   1.719   3.230   9.884 -2.6458  0.6469  1.9021
    3CHL1  H19C  191   1.620   3.081   9.917  0.3338 -1.6332  0.4308
    3CHL1    C1  192   1.842   2.925   9.988 -0.1688  0.1160 -1.1137
    3CHL1   H1A  193   1.743   2.876  10.001  0.2767 -0.0582  2.0798
    3CHL1   H1B  194   1.910   2.852   9.941 -1.1799 -1.9669  0.5818
    3CHL1    C2  195   1.903   2.945  10.130 -0.4616 -0.5738 -0.0313
    3CHL1   H2A  196   1.918   2.845  10.176  2.1072 -0.0374  0.3611
    3CHL1   H2B  197   1.824   3.006  10.179 -0.2421  1.4391 -2.1003
    3CHL1   C20  198   1.614   2.940   9.220  0.2029 -0.2622  0.5140
    3CHL1   H20  199   1.558   3.036   9.208  1.4988  0.4766  0.3164
    3CHL1   C21  200   1.519   2.836   9.270  0.0579  0.3730  0.4893
    3CHL1  H21A  201   1.439   2.813   9.196 -0.8621 -0.2634  1.6740
    3CHL1  H21B  202   1.470   2.867   9.364 -3.2617 -0.5218 -0.8743
    3CHL1  H21C  203   1.570   2.740   9.293 -2.3699 -1.7573 -2.6032
    3CHL1   C22  204   1.655   2.896   9.075 -0.4387 -0.5913 -0.0556
    3CHL1  H22A  205   1.735   2.958   9.029 -3.4157  2.3202 -1.5365
    3CHL1  H22B  206   1.698   2.798   9.101  1.7139  0.2763 -0.2536
    3CHL1   C23  207   1.535   2.885   8.985  0.1751  0.1730 -0.1998
    3CHL1  H23A  208   1.467   2.800   9.008 -2.3037  1.7163 -1.6363
    3CHL1  H23B  209   1.468   2.972   8.999 -1.2793 -0.9330 -0.1792
    3CHL1   C24  210   1.577   2.872   8.835 -0.6769 -0.5469 -0.3377
    3CHL1  H24A  211   1.644   2.957   8.811  0.4351 -1.0077  1.0931
    3CHL1  H24B  212   1.630   2.775   8.827  2.1410  1.0500 -1.6359
    3CHL1   C25  213   1.455   2.865   8.736 -0.1502  0.6985 -0.0483
    3CHL1   H25  214   1.394   2.958   8.737  0.3389  1.0943 -3.0915
    3CHL1   C26  215   1.502   2.850   8.587  0.0444  0.0731 -1.3693
    3CHL1  H26A  216   1.545   2.749   8.575 -0.0554 -0.3799  1.6916
    3CHL1  H26B  217   1.412   2.874   8.526 -0.8054  1.2662  0.3051
    3CHL1  H26C  218   1.571   2.932   8.557 -0.0797  0.3405 -0.9290
    3CHL1   C27  219   1.357   2.750   8.768 -0.0104  0.1051  0.4767
    3CHL1  H27A  220   1.301   2.781   8.860  1.4879  0.4838  1.2782
    3CHL1  H27B  221   1.280   2.738   8.689 -0.4755  1.0688  0.7713
    3CHL1  H27C  222   1.419   2.659   8.783  0.1581  0.6046  3.1120
    4CHL1    C3  223   1.537   4.816  10.537 -0.6853 -0.7990  1.1013
    4CHL1    H3  224   1.641   4.854  10.547 -0.7733 -0.1994 -0.1766
    4CHL1    O3  225   1.469   4.778  10.651 -0.1944 -0.0652  0.6758
    4CHL1   H3'  226   1.376   4.781  10.628 -0.4848 -2.8253  1.3490
    4CHL1    C4  227   1.451   4.914  10.468 -0.1388  0.2560  0.4973
    4CHL1   H4A  228   1.354   4.863  10.453  1.9282 -3.2564 -1.5256
    4CHL1   H4B  229   1.438   5.009  10.524 -2.4645  0.2415  0.0155
    4CHL1    C5  230   1.498   4.958  10.330 -0.1305  0.1428  0.8966
    4CHL1    C6  231   1.517   5.086  10.291 -0.7344  0.2916  0.1361
    4CHL1    H6  232   1.485   5.164  10.362 -0.6281  0.4390  0.0194
    4CHL1    C7  233   1.571   5.132  10.159 -0.5812  0.2231 -0.4240
    4CHL1   H7A  234   1.521   5.222  10.117 -0.8410  0.9431  1.3588
    4CHL1   H7B  235   1.673   5.169  10.182 -0.6371 -0.4326  0.9476
    4CHL1    C8  236   1.564   5.016  10.055 -0.3437  0.3119 -0.1414
    4CHL1    H8  237   1.462   5.003  10.015  0.4338 -1.7908 -1.5447
    4CHL1   C14  238   1.656   5.058   9.935  0.2845  0.3393 -0.3056
    4CHL1   H14  239   1.755   5.063   9.986 -0.6089 -1.4540  1.7340
    4CHL1   C15  240   1.627   5.189   9.863  0.4188 -0.2001  0.4731
    4CHL1  H15A  241   1.519   5.194   9.839  0.9139  1.8422 -1.4893
    4CHL1  H15B  242   1.654   5.283   9.917 -3.1023  0.0424  1.9544
    4CHL1   C16  243   1.709   5.182   9.733 -0.2633 -0.5574  0.3220
    4CHL1  H16A  244   1.640   5.186   9.646  1.7947 -0.1979 -1.3510
    4CHL1  H16B  245   1.793   5.256   9.727  0.8183 -1.5316  2.6438
    4CHL1   C17  246   1.767   5.037   9.726  0.2209  0.8304 -0.1183
    4CHL1   H17  247   1.871   5.041   9.766  0.3256  2.0044 -0.4761
    4CHL1   C13  248   1.677   4.955   9.819 -0.1251  0.3036 -0.3976
    4CHL1   C18  249   1.535   4.922   9.751  0.1950 -0.1623  0.0944
    4CHL1  H18A  250   1.551   4.845   9.673  0.5363  1.4521 -1.4495
    4CHL1  H18B  251   1.463   4.894   9.831 -0.6682  1.4887 -0.0865
    4CHL1  H18C  252   1.510   5.019   9.705 -2.2072  0.1765  1.9646
    4CHL1   C12  253   1.741   4.829   9.890  0.6860  0.5166 -0.1680
    4CHL1  H12A  254   1.758   4.750   9.814  0.2149  0.9416 -0.7241
    4CHL1  H12B  255   1.835   4.870   9.933  0.3919 -0.7225  1.7252
    4CHL1   C11  256   1.652   4.778  10.004  0.6609 -0.1373  0.6235
    4CHL1  H11A  257   1.555   4.732   9.974  0.8752  0.1301 -0.4717
    4CHL1  H11B  258   1.713   4.696  10.048 -2.3602 -2.6125  0.3765
    4CHL1    C9  259   1.617   4.886  10.113  0.3621 -0.2927  0.5617
    4CHL1    H9  260   1.721   4.908  10.145  0.4199 -3.7212  3.0390
    4CHL1   C10  261   1.529   4.841  10.231 -0.0884  0.2508  0.9897
    4CHL1   C19  262   1.390   4.791  10.184 -0.3339 -0.5909 -0.9488
    4CHL1  H19A  263   1.387   4.714  10.104  1.7329 -0.6394 -1.0102
    4CHL1  H19B  264   1.340   4.756  10.277  0.7901  0.0996 -0.0639
    4CHL1  H19C  265   1.340   4.871  10.126  0.7120  1.1648  0.5015
    4CHL1    C1  266   1.611   4.736  10.312 -0.0137  0.1264  0.2865
    4CHL1   H1A  267   1.622   4.645  10.249 -1.8691 -0.0628  0.2130
    4CHL1   H1B  268   1.710   4.778  10.341 -0.5254  0.2357  1.9114
    4CHL1    C2  269   1.551   4.694  10.444 -0.3307 -0.2519  0.5515
    4CHL1   H2A  270   1.622   4.625  10.495  0.8961 -0.4045 -1.3076
    4CHL1   H2B  271   1.455   4.649  10.412 -0.7905  1.4318 -0.4885
    4CHL1   C20  272   1.791   4.983   9.582  0.3089  0.3477  0.4582
    4CHL1   H20  273   1.697   4.948   9.535  0.9968 -0.8579 -0.0462
    4CHL1   C21  274   1.884   4.852   9.587 -0.0483  0.1405 -0.3495
    4CHL1  H21A  275   1.825   4.763   9.617 -1.4639  2.0359  2.7333
    4CHL1  H21B  276   1.956   4.865   9.671 -2.0315  1.2232  1.2566
    4CHL1  H21C  277   1.941   4.841   9.493  0.4715 -1.5187  0.1418
    4CHL1   C22  278   1.857   5.087   9.483 -0.0481  0.7099  0.6528
    4CHL1  H22A  279   1.866   5.028   9.390  3.2158  0.8183  0.8614
    4CHL1  H22B  280   1.794   5.171   9.447  2.5439  1.7501 -1.5792
    4CHL1   C23  281   1.993   5.150   9.520 -0.9449 -0.5827  0.0868
    4CHL1  H23A  282   1.986   5.222   9.604 -1.5334 -0.4004 -0.1146
    4CHL1  H23B  283   2.050   5.064   9.560 -4.0749 -3.1303 -0.7425
    4CHL1   C24  284   2.073   5.199   9.400  0.5522  0.8655 -0.3797
    4CHL1  H24A  285   2.091   5.120   9.324 -0.2678  1.0199 -0.7377
    4CHL1  H24B  286   2.013   5.279   9.351 -1.4922  0.7091  1.7639
    4CHL1   C25  287   2.220   5.258   9.425 -0.7836 -0.5477  0.0058
    4CHL1   H25  288   2.275   5.176   9.476  0.0353 -0.1447 -0.2240
    4CHL1   C26  289   2.296   5.286   9.292  0.5300  0.3877 -0.7065
    4CHL1  H26A  290   2.300   5.204   9.216  4.7455  0.0367 -0.2213
    4CHL1  H26B  291   2.233   5.370   9.257 -1.7760 -0.2607  1.7191
    4CHL1  H26C  292   2.395   5.329   9.317  0.2719  1.0373 -0.8104
    4CHL1   C27  293   2.237   5.369   9.521  1.5321  0.1303 -0.4483
    4CHL1  H27A  294   2.200   5.336   9.620  1.8643 -0.7833 -0.6227
    4CHL1  H27B  295   2.343   5.381   9.550  0.2333 -0.6598  5.1242
    4CHL1  H27C  296   2.190   5.467   9.494  1.9036  0.6400  0.7405
    5CHL1    C3  297   2.542   3.065  10.288  0.4758  0.2235 -0.2221
    5CHL1    H3  298   2.431   3.057  10.300  0.4111  0.1485 -0.8345
    5CHL1    O3  299   2.599   3.079  10.414 -0.1469 -0.2947  0.0090
    5CHL1   H3'  300   2.676   3.134  10.397  0.4187 -1.4973 -1.4242
    5CHL1    C4  301   2.590   2.924  10.230 -0.1367  0.1849  0.3877
    5CHL1   H4A  302   2.701   2.921  10.231 -0.1586 -1.1530 -0.3140
    5CHL1   H4B  303   2.550   2.838  10.289 -1.6279 -0.2393 -1.1920
    5CHL1    C5  304   2.539   2.911  10.084  0.6848  0.5152  0.3212
    5CHL1    C6  305   2.459   2.807  10.060  0.6647 -0.1453 -0.2331
    5CHL1    H6  306   2.435   2.733  10.138 -4.6425  0.5416 -1.0128
    5CHL1    C7  307   2.405   2.763   9.922 -0.4551  0.1771 -0.3272
    5CHL1   H7A  308   2.431   2.657   9.905  1.0442  0.5106 -0.2502
    5CHL1   H7B  309   2.294   2.767   9.916 -0.3647  1.9639 -1.2992
    5CHL1    C8  310   2.465   2.856   9.804 -0.3517 -0.0264  0.4231
    5CHL1    H8  311   2.572   2.830   9.787 -0.3759  1.0693 -1.6068
    5CHL1   C14  312   2.378   2.847   9.679 -0.2995  0.6957 -0.2346
    5CHL1   H14  313   2.276   2.879   9.710 -1.1695 -1.9589 -0.2789
    5CHL1   C15  314   2.358   2.704   9.615 -0.6209 -0.2308 -0.0945
    5CHL1  H15A  315   2.446   2.636   9.610  0.4127  0.9815  1.1308
    5CHL1  H15B  316   2.287   2.645   9.676 -1.1581 -1.6531 -2.0373
    5CHL1   C16  317   2.311   2.737   9.468  0.2827 -0.2572 -0.6128
    5CHL1  H16A  318   2.372   2.684   9.391 -1.6315 -0.7497 -1.8245
    5CHL1  H16B  319   2.206   2.704   9.454  0.6469 -1.9603  0.5600
    5CHL1   C17  320   2.314   2.894   9.451 -0.4286  0.2657 -0.4504
    5CHL1   H17  321   2.214   2.929   9.483  0.2846  2.8531 -0.9555
    5CHL1   C13  322   2.416   2.936   9.559 -0.3244  1.1876 -0.0449
    5CHL1   C18  323   2.563   2.898   9.508  0.1596  0.0945 -0.0745
    5CHL1  H18A  324   2.633   2.921   9.591 -0.4101 -3.0462  1.3437
    5CHL1  H18B  325   2.571   2.791   9.479  1.8830  0.1457  0.1927
    5CHL1  H18C  326   2.589   2.967   9.425 -0.3763  0.6951  0.2575
    5CHL1   C12  327   2.418   3.077   9.616  0.3411  0.2994  0.4530
    5CHL1  H12A  328   2.435   3.148   9.532 -2.0375  0.5482  0.1457
    5CHL1  H12B  329   2.315   3.099   9.653  0.2032  1.8895 -0.8067
    5CHL1   C11  330   2.509   3.096   9.742 -0.2664  0.6378 -0.0572
    5CHL1  H11A  331   2.612   3.079   9.705 -0.0388  1.5276  0.1717
    5CHL1  H11B  332   2.499   3.199   9.781  1.8529  0.8898 -0.1620
    5CHL1    C9  333   2.473   3.004   9.857 -1.1597  0.1984  0.4069
    5CHL1    H9  334   2.369   3.017   9.895 -0.6971  0.5963  1.5639
    5CHL1   C10  335   2.566   3.026   9.984  0.3629 -0.2893 -0.5267
    5CHL1   C19  336   2.715   3.022   9.946  0.8955  0.7239  1.0637
    5CHL1  H19A  337   2.777   3.042  10.036  1.4667 -0.6952  0.9891
    5CHL1  H19B  338   2.740   2.927   9.895  2.6552  0.9932  1.4145
    5CHL1  H19C  339   2.743   3.108   9.882  0.6030 -0.7133 -1.0475
    5CHL1    C1  340   2.523   3.161  10.052  0.8696  0.3805  0.7936
    5CHL1   H1A  341   2.572   3.237   9.986  1.5721  0.1077  0.9947
    5CHL1   H1B  342   2.413   3.169  10.040  0.7301 -1.9427  0.3289
    5CHL1    C2  343   2.570   3.188  10.200 -0.1990  0.8447 -0.2787
    5CHL1   H2A  344   2.520   3.278  10.243 -0.7679  0.1321  0.5711
    5CHL1   H2B  345   2.678   3.210  10.196  0.0395 -0.5639 -2.4817
    5CHL1   C20  346   2.318   2.945   9.305  0.4019 -0.7436 -0.3275
    5CHL1   H20  347   2.416   2.924   9.258  0.8600 -0.0787  0.3138
    5CHL1   C21  348   2.311   3.096   9.299  0.3093  0.3925 -0.4223
    5CHL1  H21A  349   2.315   3.125   9.191  1.5987  0.0117 -0.4813
    5CHL1  H21B  350   2.400   3.144   9.343  0.3268  0.6286 -0.7117
    5CHL1  H21C  351   2.227   3.135   9.361 -1.6663 -1.7432 -1.6516
    5CHL1   C22  352   2.207   2.878   9.215 -1.1260  0.8616  0.2807
    5CHL1  H22A  353   2.241   2.773   9.204 -1.2748  0.7700  0.6669
    5CHL1  H22B  354   2.107   2.869   9.263 -1.1185 -1.3397 -0.0439
    5CHL1   C23  355   2.180   2.933   9.081 -0.1805  0.0361 -0.6084
    5CHL1  H23A  356   2.124   3.028   9.088  0.9583  0.6115  1.1589
    5CHL1  H23B  357   2.272   2.952   9.021 -0.5560  0.1679 -1.1411
    5CHL1   C24  358   2.081   2.839   9.004 -0.9645 -0.7630  1.2013
    5CHL1  H24A  359   2.125   2.737   9.000 -2.5480 -1.4582  1.1322
    5CHL1  H24B  360   1.983   2.828   9.054 -0.1818  0.4486  3.0479
    5CHL1   C25  361   2.064   2.890   8.857  0.8002  0.0619 -0.7006
    5CHL1   H25  362   2.166   2.895   8.812  1.0474 -0.3150 -0.1935
    5CHL1   C26  363   1.987   2.771   8.794 -0.5537 -0.1749 -0.3581
    5CHL1  H26A  364   2.046   2.676   8.793 -0.1127  0.0761  0.5394
    5CHL1  H26B  365   1.900   2.755   8.862  0.7421 -0.2431  1.3231
    5CHL1  H26C  366   1.954   2.789   8.690 -4.1383 -0.2027  0.7266
    5CHL1   C27  367   1.992   3.021   8.843  0.0999 -0.1773  0.5295
    5CHL1  H27A  368   2.056   3.103   8.882 -0.2140  0.3450 -0.0590
    5CHL1  H27B  369   1.975   3.032   8.734  0.4681 -1.8090  0.2931
    5CHL1  H27C  370   1.900   3.027   8.904 -0.0939  0.3438  0.1853
    6CHL1    C3  371   0.683   0.036  10.424  0.3355 -0.4529 -0.6116
    6CHL1    H3  372   0.766  -0.030  10.456  2.7480  1.1097 -3.3836
    6CHL1    O3  373   0.619   0.102  10.539 -0.3704  0.0340  0.2826
    6CHL1   H3'  374   0.525   0.082  10.540 -0.6628  1.3832  0.4476
    6CHL1    C4  375   0.737   0.138  10.321 -0.4298 -0.8225  0.3782
    6CHL1   H4A  376   0.654   0.208  10.296  0.5553  1.1277  2.4258
    6CHL1   H4B  377   0.819   0.197  10.365 -0.0918  0.3984 -1.8238
    6CHL1    C5  378   0.771   0.072  10.188 -0.4545  0.4024 -0.3367
    6CHL1    C6  379   0.893   0.086  10.132  0.1343 -1.0362 -0.4309
    6CHL1    H6  380   0.975   0.131  10.189  0.3056 -1.9931  0.1007
    6CHL1    C7  381   0.938   0.028   9.999 -0.4762 -0.3770  0.2750
    6CHL1   H7A  382   0.996   0.103   9.941  0.3735 -1.0770  0.2030
    6CHL1   H7B  383   1.008  -0.055  10.026  0.6826  1.0968  1.9010
    6CHL1    C8  384   0.816  -0.021   9.917 -0.7728  0.5398  0.0132
    6CHL1    H8  385   0.768   0.065   9.865 -3.3877  0.5464  2.3547
    6CHL1   C14  386   0.870  -0.110   9.804  0.1170 -0.2761 -0.4979
    6CHL1   H14  387   0.923  -0.190   9.859 -1.1570  0.0791  1.3107
    6CHL1   C15  388   0.974  -0.049   9.711  0.3876 -0.4700 -0.0143
    6CHL1  H15A  389   0.933   0.048   9.676 -0.4017 -1.1419 -0.9949
    6CHL1  H15B  390   1.068  -0.031   9.767 -0.3923  1.1572  0.8109
    6CHL1   C16  391   0.974  -0.144   9.593  0.1334  0.1474  0.1104
    6CHL1  H16A  392   0.950  -0.085   9.501 -0.6862 -0.1694  0.1162
    6CHL1  H16B  393   1.075  -0.191   9.585 -0.5518 -1.6271  1.5201
    6CHL1   C17  394   0.852  -0.247   9.619 -0.4071  0.2596 -0.2958
    6CHL1   H17  395   0.898  -0.339   9.661  1.2998  0.9356 -0.6090
    6CHL1   C13  396   0.759  -0.174   9.721 -0.2711  0.1606  0.6314
    6CHL1   C18  397   0.676  -0.070   9.638 -0.2747  1.1642 -0.2683
    6CHL1  H18A  398   0.632   0.006   9.705  0.0488 -0.2461  1.5764
    6CHL1  H18B  399   0.744  -0.011   9.573  0.8444  0.5830  0.3578
    6CHL1  H18C  400   0.602  -0.121   9.572  0.3149 -0.2145  0.1244
    6CHL1   C12  401   0.662  -0.257   9.808  0.5899  0.1031  0.0201
    6CHL1  H12A  402   0.571  -0.293   9.755 -0.8454  0.8268  1.9249
    6CHL1  H12B  403   0.720  -0.343   9.847 -0.2336 -0.1322  0.7372
    6CHL1   C11  404   0.605  -0.169   9.921  1.2355  0.4642 -0.0497
    6CHL1  H11A  405   0.527  -0.103   9.877 -0.0338  0.2407  1.8210
    6CHL1  H11B  406   0.545  -0.235   9.987 -0.4965  0.9134 -1.1312
    6CHL1    C9  407   0.716  -0.092  10.003  0.4109  0.1285 -0.8835
    6CHL1    H9  408   0.782  -0.172  10.043  1.9619  0.0371 -3.5047
    6CHL1   C10  409   0.659  -0.015  10.123  0.2713 -0.3111  0.2292
    6CHL1   C19  410   0.545   0.079  10.086 -0.1453 -0.2264 -0.3215
    6CHL1  H19A  411   0.507   0.126  10.179 -1.8607 -2.4359  0.1352
    6CHL1  H19B  412   0.577   0.163  10.021 -1.1833  0.7741  0.4400
    6CHL1  H19C  413   0.465   0.017  10.039 -1.7415 -0.4035  2.5303
    6CHL1    C1  414   0.610  -0.114  10.235  0.1081  0.7952  0.1658
    6CHL1   H1A  415   0.524  -0.178  10.206  2.9971 -2.8842 -0.7121
    6CHL1   H1B  416   0.691  -0.184  10.262  0.5631  0.8276 -1.0992
    6CHL1    C2  417   0.573  -0.049  10.369 -0.2942  0.1286  0.1982
    6CHL1   H2A  418   0.545  -0.129  10.442 -1.1320  0.9434  0.7934
    6CHL1   H2B  419   0.482   0.012  10.350  0.8264  1.1435 -1.9669
    6CHL1   C20  420   0.796  -0.298   9.488 -0.3486  0.1327  0.3698
    6CHL1   H20  421   0.733  -0.217   9.447  0.6651  0.1710 -1.1765
    6CHL1   C21  422   0.698  -0.420   9.512 -0.6422  0.0291  0.7490
    6CHL1  H21A  423   0.754  -0.488   9.580  0.9914 -4.7010 -4.9152
    6CHL1  H21B  424   0.662  -0.468   9.419  2.8167  0.6502 -1.0002
    6CHL1  H21C  425   0.602  -0.388   9.559  0.2567  2.2057  1.1957
    6CHL1   C22  426   0.910  -0.346   9.391  0.8415 -0.5726 -0.1362
    6CHL1  H22A  427   1.005  -0.348   9.449  1.9490  2.1780 -1.7415
    6CHL1  H22B  428   0.897  -0.453   9.365 -0.8343 -0.6966  1.0887
    6CHL1   C23  429   0.902  -0.258   9.265  0.1346  0.9919  0.3277
    6CHL1  H23A  430   0.893  -0.154   9.301 -0.7921  0.6821  0.9919
    6CHL1  H23B  431   0.995  -0.263   9.203  1.3273  1.0964  2.0892
    6CHL1   C24  432   0.793  -0.299   9.163 -0.6629  0.1075 -0.0772
    6CHL1  H24A  433   0.804  -0.410   9.170 -0.5039  0.1441  0.2730
    6CHL1  H24B  434   0.694  -0.266   9.199 -2.1714 -3.4905 -0.6780
    6CHL1   C25  435   0.818  -0.261   9.017  0.3723  0.1994  0.4071
    6CHL1   H25  436   0.912  -0.304   8.979 -0.4472 -2.0664  0.8825
    6CHL1   C26  437   0.706  -0.330   8.936  0.2310  0.1135 -0.3122
    6CHL1  H26A  438   0.704  -0.441   8.950  0.4003 -0.2747 -3.0754
    6CHL1  H26B  439   0.603  -0.291   8.950  0.2153 -0.4460  1.2938
    6CHL1  H26C  440   0.727  -0.320   8.827  0.8715  0.0830 -0.1951
    6CHL1   C27  441   0.813  -0.107   8.986  0.6011  0.7173  0.3989
    6CHL1  H27A  442   0.804  -0.102   8.875 -1.0559  0.7960  0.5248
    6CHL1  H27B  443   0.718  -0.058   9.017  0.2908  1.1004 -1.1070
    6CHL1  H27C  444   0.901  -0.055   9.029  2.6443 -1.0364 -1.5574
    7CHL1    C3  445   4.210   2.352  10.629 -0.8975 -0.6877 -0.3355
    7CHL1    H3  446   4.149   2.331  10.720 -0.4564  1.5838  0.5260
    7CHL1    O3  447   4.292   2.237  10.623 -0.7497  0.0506  0.0279
    7CHL1   H3'  448   4.357   2.247  10.553 -1.9902  0.7613 -1.0475
    7CHL1    C4  449   4.133   2.364  10.498 -0.1142 -0.3247 -0.5604
    7CHL1   H4A  450   4.209   2.354  10.418 -0.2587  1.3154 -0.9316
    7CHL1   H4B  451   4.069   2.273  10.495 -1.1645  0.3331  0.9855
    7CHL1    C5  452   4.039   2.485  10.489 -0.4376 -0.5068 -0.1999
    7CHL1    C6  453   3.912   2.468  10.459  1.0594  0.1016  0.1028
    7CHL1    H6  454   3.881   2.364  10.440 -0.9866  0.8681 -0.9583
    7CHL1    C7  455   3.811   2.578  10.444  0.3517 -0.4351 -0.2417
    7CHL1   H7A  456   3.775   2.584  10.339 -0.1953  1.1154  0.0135
    7CHL1   H7B  457   3.723   2.570  10.511  1.8467 -0.3902  1.7889
    7CHL1    C8  458   3.873   2.715  10.474 -0.7230 -0.5217  0.0260
    7CHL1    H8  459   3.909   2.751  10.376 -1.0998  0.3370  0.1896
    7CHL1   C14  460   3.771   2.810  10.531  0.5136  0.1137  0.2567
    7CHL1   H14  461   3.744   2.781  10.634 -2.6428  1.5994 -0.1038
    7CHL1   C15  462   3.632   2.803  10.456 -0.4400 -0.8970  0.2138
    7CHL1  H15A  463   3.643   2.800  10.345 -1.5829 -0.8752  0.0932
    7CHL1  H15B  464   3.580   2.711  10.488 -2.2477  0.0148 -0.0107
    7CHL1   C16  465   3.559   2.927  10.510  0.3160 -0.4578  0.0464
    7CHL1  H16A  466   3.496   2.994  10.448  1.1144  1.6387  1.4341
    7CHL1  H16B  467   3.494   2.903  10.597  1.5282  1.0649  1.4237
    7CHL1   C17  468   3.671   3.022  10.570 -0.4518  0.4070 -0.0519
    7CHL1   H17  469   3.673   2.998  10.678 -0.9565  2.0682  0.3287
    7CHL1   C13  470   3.811   2.961  10.531  0.0050  0.2542  0.5563
    7CHL1   C18  471   3.835   3.021  10.395  0.2298  0.8426  0.5362
    7CHL1  H18A  472   3.883   3.122  10.399  1.0853  0.4632 -0.0296
    7CHL1  H18B  473   3.911   2.958  10.344  1.1658  0.7170  2.0374
    7CHL1  H18C  474   3.747   3.029  10.328  1.9056  0.8860 -1.7249
    7CHL1   C12  475   3.927   2.958  10.632 -0.6332  0.0331 -0.2304
    7CHL1  H12A  476   3.974   3.055  10.661  1.1468 -1.3615  1.7277
    7CHL1  H12B  477   3.894   2.914  10.729  5.1859 -0.8428  1.5754
    7CHL1   C11  478   4.046   2.864  10.594 -0.0170  0.3649  0.2726
    7CHL1  H11A  479   4.096   2.909  10.506 -0.2380  1.2753  0.6101
    7CHL1  H11B  480   4.114   2.855  10.681 -2.3827 -0.0136  2.1312
    7CHL1    C9  481   3.993   2.716  10.567  0.1060 -0.8049 -0.0587
    7CHL1    H9  482   3.947   2.687  10.664  0.6651 -0.8461  0.1991
    7CHL1   C10  483   4.100   2.621  10.526 -0.0797 -0.3044 -0.0248
    7CHL1   C19  484   4.191   2.672  10.411 -0.4288 -0.1647 -0.0478
    7CHL1  H19A  485   4.270   2.601  10.379  0.9428 -0.4612  3.7671
    7CHL1  H19B  486   4.116   2.691  10.331 -2.4188  0.2548  1.8516
    7CHL1  H19C  487   4.251   2.762  10.436  2.1779 -2.2451  1.4866
    7CHL1    C1  488   4.188   2.599  10.659 -0.2329 -0.2204 -0.3960
    7CHL1   H1A  489   4.232   2.692  10.701  0.4771 -1.1486  0.9485
    7CHL1   H1B  490   4.123   2.561  10.740  0.6189  2.0070  1.3599
    7CHL1    C2  491   4.291   2.482  10.646  0.5055  0.3306 -0.3826
    7CHL1   H2A  492   4.357   2.473  10.735 -0.5751  1.4161  0.5567
    7CHL1   H2B  493   4.346   2.499  10.551  1.9058 -1.5212  0.0787
    7CHL1   C20  494   3.644   3.173  10.562 -0.7652 -0.0978  0.1945
    7CHL1   H20  495   3.654   3.210  10.458 -0.4391  2.8160  1.2027
    7CHL1   C21  496   3.749   3.242  10.642  0.8859 -0.5119 -0.4680
    7CHL1  H21A  497   3.845   3.239  10.587  1.2501 -0.5678  0.1562
    7CHL1  H21B  498   3.760   3.189  10.739 -0.4824 -0.4480 -0.2742
    7CHL1  H21C  499   3.727   3.350  10.659 -0.6130 -1.3926  3.8268
    7CHL1   C22  500   3.508   3.210  10.624  0.3143 -0.3375 -0.1637
    7CHL1  H22A  501   3.417   3.148  10.606  0.2492 -0.8380  1.8097
    7CHL1  H22B  502   3.523   3.205  10.734 -2.8718 -0.3256  0.3359
    7CHL1   C23  503   3.471   3.361  10.605 -0.4303  0.5381  0.0486
    7CHL1  H23A  504   3.542   3.429  10.656 -0.0408 -0.9841  1.5800
    7CHL1  H23B  505   3.467   3.357  10.494 -1.8852 -1.9369  0.1334
    7CHL1   C24  506   3.336   3.382  10.668  0.4715 -0.4966 -0.1060
    7CHL1  H24A  507   3.276   3.290  10.651 -0.0356 -0.1546 -0.1843
    7CHL1  H24B  508   3.354   3.385  10.778 -0.0397  2.2341 -0.0626
    7CHL1   C25  509   3.256   3.514  10.621 -0.8600  0.2832 -0.3865
    7CHL1   H25  510   3.324   3.600  10.633 -0.5494 -0.1922  1.4616
    7CHL1   C26  511   3.208   3.495  10.475 -0.1954  0.0845 -0.2797
    7CHL1  H26A  512   3.148   3.576  10.429  0.1071  0.1895 -0.4942
    7CHL1  H26B  513   3.290   3.499  10.400  1.3726  0.7582  1.4296
    7CHL1  H26C  514   3.158   3.396  10.473 -1.8525  0.9077  0.3343
    7CHL1   C27  515   3.129   3.536  10.712  0.0914  0.1941  0.6935
    7CHL1  H27A  516   3.048   3.467  10.680 -0.1628  1.5321 -1.6573
    7CHL1  H27B  517   3.146   3.506  10.817 -1.6464 -1.4487  0.5394
    7CHL1  H27C  518   3.091   3.637  10.686  0.9478  0.2189 -0.4802
    8CHL1    C3  519   3.807   4.105  10.410 -0.3254  0.5121 -0.4563
    8CHL1    H3  520   3.724   4.041  10.445  1.1509 -0.5798  1.1226
    8CHL1    O3  521   3.874   4.154  10.523 -0.0126 -0.5950  0.0588
    8CHL1   H3'  522   3.807   4.184  10.584  0.7094  4.2261 -1.2824
    8CHL1    C4  523   3.901   4.027  10.326 -0.8641 -0.0522 -0.3921
    8CHL1   H4A  524   3.998   4.082  10.324  0.0497 -1.4823  2.2938
    8CHL1   H4B  525   3.916   3.937  10.389 -1.3364  0.7336  0.8818
    8CHL1    C5  526   3.843   3.993  10.196  0.1294  0.4003  0.6933
    8CHL1    C6  527   3.828   3.866  10.166  0.6582 -0.3455 -0.1617
    8CHL1    H6  528   3.859   3.789  10.239 -1.9543 -0.8884  0.4032
    8CHL1    C7  529   3.774   3.815  10.038  0.1875  1.2892 -0.4058
    8CHL1   H7A  530   3.843   3.739   9.994  2.3852  3.5880 -1.0520
    8CHL1   H7B  531   3.672   3.772  10.041 -0.0390  1.3956 -4.1040
    8CHL1    C8  532   3.772   3.922   9.925  0.9859 -0.2247 -0.0279
    8CHL1    H8  533   3.877   3.939   9.894  1.4772  0.5029  1.9327
    8CHL1   C14  534   3.688   3.882   9.803  0.0772 -0.1385  0.2365
    8CHL1   H14  535   3.585   3.866   9.840 -0.5096 -0.9580 -1.6843
    8CHL1   C15  536   3.732   3.754   9.731  0.3216  0.5673  0.3782
    8CHL1  H15A  537   3.842   3.756   9.720  0.3816 -0.7440  0.6845
    8CHL1  H15B  538   3.696   3.664   9.785  0.4276  0.3318  0.0547
    8CHL1   C16  539   3.662   3.763   9.591  0.1381  0.0977  0.1317
    8CHL1  H16A  540   3.740   3.750   9.512  1.3598 -0.3040  1.3838
    8CHL1  H16B  541   3.581   3.688   9.577 -0.5942  1.5017 -3.6582
    8CHL1   C17  542   3.599   3.906   9.581  0.4588  0.1980  0.2315
    8CHL1   H17  543   3.492   3.896   9.610  0.6038 -0.3187  0.5953
    8CHL1   C13  544   3.673   3.984   9.688  0.0666  0.3964  0.9671
    8CHL1   C18  545   3.809   4.038   9.639 -0.1383  0.1648  0.0051
    8CHL1  H18A  546   3.869   4.066   9.728 -0.8505 -0.7399  0.7806
    8CHL1  H18B  547   3.854   3.965   9.569 -3.8904 -1.5681 -0.7360
    8CHL1  H18C  548   3.787   4.134   9.587  2.3930 -0.5473 -2.5206
    8CHL1   C12  549   3.587   4.095   9.754 -0.0661  0.0310 -0.4262
    8CHL1  H12A  550   3.572   4.181   9.685  1.8236  0.3669 -0.4501
    8CHL1  H12B  551   3.488   4.049   9.773 -1.7488  3.2648 -1.0927
    8CHL1   C11  552   3.645   4.156   9.887  0.4020 -0.5397  0.4926
    8CHL1  H11A  553   3.731   4.216   9.851 -0.8289  1.4996  0.8692
    8CHL1  H11B  554   3.578   4.226   9.941  0.8077 -1.8562  2.7323
    8CHL1    C9  555   3.706   4.051   9.988 -0.8618  0.1818 -0.2669
    8CHL1    H9  556   3.617   4.008  10.040 -2.0295  2.1265 -0.6063
    8CHL1   C10  557   3.793   4.108  10.107  0.2139  0.3766  0.0482
    8CHL1   C19  558   3.907   4.192  10.055  0.5795  1.1070  0.2508
    8CHL1  H19A  559   3.955   4.131   9.976 -0.7474 -1.1441  1.1323
    8CHL1  H19B  560   3.865   4.282  10.006 -1.6251  0.9369  1.7806
    8CHL1  H19C  561   3.973   4.220  10.141 -0.9482  1.5482  1.3039
    8CHL1    C1  562   3.703   4.198  10.196 -0.1486  0.2876  0.2953
    8CHL1   H1A  563   3.671   4.293  10.148  0.2265  0.8789  1.2070
    8CHL1   H1B  564   3.604   4.148  10.200 -0.8975  1.7429  0.3903
    8CHL1    C2  565   3.762   4.235  10.333 -0.2943  0.4355 -0.6962
    8CHL1   H2A  566   3.681   4.280  10.394 -0.3084 -0.6636  0.1078
    8CHL1   H2B  567   3.846   4.308  10.331  0.6448 -0.4938  1.9609
    8CHL1   C20  568   3.587   3.957   9.432 -0.4107  0.5061  0.4267
    8CHL1   H20  569   3.688   3.978   9.392  0.4655 -0.4406  2.0588
    8CHL1   C21  570   3.506   4.092   9.432  0.2072  0.0197  0.2903
    8CHL1  H21A  571   3.503   4.136   9.330  0.1881 -0.4310  0.0997
    8CHL1  H21B  572   3.572   4.159   9.492  2.8118 -2.2588  0.0523
    8CHL1  H21C  573   3.401   4.076   9.466  0.7987 -2.0743  1.2060
    8CHL1   C22  574   3.517   3.856   9.326 -0.2479  0.1170  0.1243
    8CHL1  H22A  575   3.564   3.756   9.338  0.8082  0.7899  1.6955
    8CHL1  H22B  576   3.411   3.854   9.361  0.4722  1.0588  2.4571
    8CHL1   C23  577   3.541   3.899   9.179  0.2165 -0.3480  0.2226
    8CHL1  H23A  578   3.443   3.897   9.128 -1.8349  1.4937  3.8936
    8CHL1  H23B  579   3.576   4.005   9.174 -2.0546  0.3833 -0.8373
    8CHL1   C24  580   3.640   3.816   9.094  0.6569  0.7577 -0.3493
    8CHL1  H24A  581   3.729   3.803   9.158 -0.7539  0.1243  1.5426
    8CHL1  H24B  582   3.593   3.716   9.083  0.4780  0.8946 -0.8439
    8CHL1   C25  583   3.684   3.876   8.950  0.2937  0.1787  0.2147
    8CHL1   H25  584   3.747   3.965   8.968 -0.2662  0.2886  1.6706
    8CHL1   C26  585   3.783   3.783   8.871 -0.2004 -0.9862  0.7090
    8CHL1  H26A  586   3.749   3.682   8.838 -0.0981 -0.3977 -1.2772
    8CHL1  H26B  587   3.811   3.842   8.781 -1.2487  0.1192  1.1013
    8CHL1  H26C  588   3.884   3.775   8.917  0.5107  0.8648 -0.4593
    8CHL1   C27  589   3.568   3.906   8.869  0.5587  0.7474  0.1677
    8CHL1  H27A  590   3.578   3.971   8.780  1.6779  0.2402 -0.0920
    8CHL1  H27B  591   3.523   3.815   8.823 -1.2222  1.8191 -0.2551
    8CHL1  H27C  592   3.477   3.951   8.914  0.0589  0.6025 -0.6871
    9CHL1    C3  593   0.209   0.620  10.058 -0.1656  0.5227  0.1365
    9CHL1    H3  594   0.110   0.572  10.044 -0.0549  0.7852 -1.6764
    9CHL1    O3  595   0.222   0.655  10.198  0.5136  0.1877 -0.1856
    9CHL1   H3'  596   0.149   0.717  10.210  1.1519  1.2269 -1.4825
    9CHL1    C4  597   0.333   0.526  10.013 -0.1363 -0.3723  0.2166
    9CHL1   H4A  598   0.427   0.576  10.045  1.2018 -1.7066 -1.5169
    9CHL1   H4B  599   0.329   0.437  10.079 -1.0296 -0.4387  0.0851
    9CHL1    C5  600   0.326   0.499   9.862 -0.2526 -0.0218  0.0506
    9CHL1    C6  601   0.317   0.375   9.807  0.5348 -0.7205  0.0967
    9CHL1    H6  602   0.313   0.295   9.883 -0.4268  0.1376  0.9584
    9CHL1    C7  603   0.317   0.344   9.661 -0.0122  0.3357 -0.3079
    9CHL1   H7A  604   0.395   0.269   9.634 -0.9551  0.1572 -2.6928
    9CHL1   H7B  605   0.218   0.314   9.622  0.0781 -0.0407 -0.2524
    9CHL1    C8  606   0.352   0.466   9.576  0.1094  0.0139 -0.4181
    9CHL1    H8  607   0.462   0.478   9.568 -0.0432  1.2730 -0.7897
    9CHL1   C14  608   0.297   0.443   9.430  0.1345  0.1116 -0.1647
    9CHL1   H14  609   0.189   0.426   9.451  0.2322 -0.7595 -0.3440
    9CHL1   C15  610   0.333   0.315   9.354  0.3314 -0.1418  0.8198
    9CHL1  H15A  611   0.442   0.296   9.368  0.4604 -1.3161 -1.5299
    9CHL1  H15B  612   0.280   0.224   9.390 -0.0157  0.2406  1.2929
    9CHL1   C16  613   0.295   0.351   9.210  0.1135 -0.2211  0.3851
    9CHL1  H16A  614   0.382   0.332   9.145  0.2443 -0.6182  0.6717
    9CHL1  H16B  615   0.210   0.283   9.188 -1.5329  1.1172  2.2832
    9CHL1   C17  616   0.265   0.504   9.208 -0.4019  0.4915 -0.0179
    9CHL1   H17  617   0.156   0.520   9.213 -0.4410  1.0350 -2.1070
    9CHL1   C13  618   0.314   0.564   9.338 -0.3789 -0.2398 -0.2040
    9CHL1   C18  619   0.456   0.611   9.312 -0.0865 -0.4013 -0.1303
    9CHL1  H18A  620   0.456   0.699   9.243 -0.9340  0.4452  0.9444
    9CHL1  H18B  621   0.499   0.656   9.404  1.0094 -0.1930 -0.7395
    9CHL1  H18C  622   0.520   0.537   9.258  1.6210  2.6943 -2.5158
    9CHL1   C12  623   0.230   0.679   9.394 -0.7127  0.0387 -0.2140
    9CHL1  H12A  624   0.233   0.768   9.328 -0.8772 -0.3406 -0.7354
    9CHL1  H12B  625   0.125   0.645   9.406 -0.3206 -0.2525  2.8657
    9CHL1   C11  626   0.275   0.717   9.537  1.1757 -0.2629  0.2934
    9CHL1  H11A  627   0.374   0.764   9.521  1.6334 -1.5573 -0.8164
    9CHL1  H11B  628   0.204   0.792   9.578  1.1680  0.3334 -0.7912
    9CHL1    C9  629   0.278   0.592   9.630 -0.0548  0.6668  0.0292
    9CHL1    H9  630   0.172   0.557   9.629  0.1706 -0.0581  0.8566
    9CHL1   C10  631   0.314   0.623   9.770  0.2104  0.0436  0.2069
    9CHL1   C19  632   0.463   0.681   9.770  1.0093  0.3621 -0.6219
    9CHL1  H19A  633   0.488   0.705   9.876 -1.2952 -1.4656  0.3848
    9CHL1  H19B  634   0.532   0.601   9.736 -2.0332 -2.0947 -1.1874
    9CHL1  H19C  635   0.467   0.775   9.711  1.1714 -0.9156 -2.6914
    9CHL1    C1  636   0.212   0.720   9.824  0.4282 -0.4824  0.4111
    9CHL1   H1A  637   0.229   0.823   9.785 -2.7270 -0.2583 -0.4348
    9CHL1   H1B  638   0.108   0.690   9.800 -0.3887  0.8107  2.1587
    9CHL1    C2  639   0.216   0.745   9.977 -0.3212 -0.9038 -0.2367
    9CHL1   H2A  640   0.145   0.823  10.013  2.3898  0.7891  1.6480
    9CHL1   H2B  641   0.307   0.794  10.018 -0.6215  0.7727 -1.5219
    9CHL1   C20  642   0.308   0.569   9.074 -0.0068  0.3056  0.2735
    9CHL1   H20  643   0.418   0.585   9.072  0.0722 -0.2049  0.6386
    9CHL1   C21  644   0.251   0.718   9.064 -0.2796 -0.1496  0.3893
    9CHL1  H21A  645   0.266   0.758   8.961  1.0709 -0.8332  0.3065
    9CHL1  H21B  646   0.303   0.789   9.132 -0.3779 -0.3076  0.6293
    9CHL1  H21C  647   0.144   0.713   9.091 -0.7221  1.3640 -0.9634
    9CHL1   C22  648   0.279   0.491   8.946 -0.0565  0.7715  0.2814
    9CHL1  H22A  649   0.332   0.545   8.865 -1.2264 -3.1329 -3.2572
    9CHL1  H22B  650   0.309   0.384   8.947 -0.3127  0.6850 -0.7679
    9CHL1   C23  651   0.134   0.498   8.903  0.4729  0.1040  1.1977
    9CHL1  H23A  652   0.071   0.458   8.985  0.9444 -2.8045  0.1901
    9CHL1  H23B  653   0.106   0.604   8.887  0.3830 -0.0654  0.1771
    9CHL1   C24  654   0.103   0.430   8.766  0.1096  0.5988 -0.0268
    9CHL1  H24A  655   0.169   0.455   8.681 -0.2695  2.4786  0.2008
    9CHL1  H24B  656   0.112   0.320   8.776 -1.2917  0.3805 -1.0413
    9CHL1   C25  657  -0.040   0.452   8.719  0.4026  0.5314 -0.8441
    9CHL1   H25  658  -0.062   0.561   8.715 -0.3492  0.4193  0.0121
    9CHL1   C26  659  -0.059   0.381   8.578 -0.7819  0.4824 -0.1726
    9CHL1  H26A  660  -0.029   0.275   8.594  1.5470  1.4959  2.7048
    9CHL1  H26B  661  -0.156   0.399   8.529 -0.7855 -0.4771 -0.5324
    9CHL1  H26C  662   0.015   0.425   8.508 -0.2084  0.2762  0.2977
    9CHL1   C27  663  -0.142   0.382   8.807  0.3016 -0.4113  0.2281
    9CHL1  H27A  664  -0.145   0.411   8.914  0.8068 -0.3643  0.2282
    9CHL1  H27B  665  -0.244   0.390   8.763 -0.1946  0.5637  1.5384
    9CHL1  H27C  666  -0.127   0.272   8.805 -0.6971 -0.5438 -0.7751
   10CHL1    C3  667   5.491   4.910  10.107 -0.3062 -0.0900  0.0132
   10CHL1    H3  668   5.382   4.894  10.094 -0.6955  2.3245  0.0060
   10CHL1    O3  669   5.503   4.942  10.244  0.0909 -0.7145 -0.0854
   10CHL1   H3'  670   5.497   4.859  10.291 -1.5351  0.1407  1.2690
   10CHL1    C4  671   5.550   4.778  10.068  0.2563  0.0238  0.0025
   10CHL1   H4A  672   5.660   4.774  10.086  0.3131  3.1331  0.7204
   10CHL1   H4B  673   5.508   4.695  10.128  3.0287 -2.4896 -1.4444
   10CHL1    C5  674   5.512   4.751   9.922  0.0481 -0.0036 -0.4619
   10CHL1    C6  675   5.436   4.644   9.889 -0.1798 -0.0259 -0.5978
   10CHL1    H6  676   5.406   4.575   9.969 -1.5577 -0.3420 -1.3735
   10CHL1    C7  677   5.387   4.617   9.746 -0.4336 -0.3215 -0.1672
   10CHL1   H7A  678   5.416   4.515   9.711  1.5337  0.7615 -1.7703
   10CHL1   H7B  679   5.278   4.628   9.728 -0.2492  0.7767 -0.6143
   10CHL1    C8  680   5.473   4.682   9.642  0.5035  0.5831  0.0542
   10CHL1    H8  681   5.572   4.632   9.646  0.5843  0.7050 -0.4497
   10CHL1   C14  682   5.401   4.677   9.510  0.6571 -1.0060  0.8570
   10CHL1   H14  683   5.309   4.738   9.518  1.6673  0.7287 -0.3710
   10CHL1   C15  684   5.360   4.538   9.463  0.0376 -0.6363 -1.6357
   10CHL1  H15A  685   5.439   4.467   9.493  0.2389 -0.1839 -1.0820
   10CHL1  H15B  686   5.256   4.512   9.495 -0.6463  1.0976 -2.3523
   10CHL1   C16  687   5.362   4.559   9.311  1.3235 -0.2492  0.0318
   10CHL1  H16A  688   5.433   4.483   9.270 -0.7740 -1.6398 -1.1561
   10CHL1  H16B  689   5.259   4.548   9.271  1.6174  1.7144 -1.3210
   10CHL1   C17  690   5.410   4.699   9.273  0.5106  0.5310  0.0211
   10CHL1   H17  691   5.321   4.765   9.263  0.4145  0.1080 -2.1206
   10CHL1   C13  692   5.486   4.735   9.399  0.1794  0.3431 -0.5231
   10CHL1   C18  693   5.627   4.668   9.390  0.4314  0.1920 -0.2820
   10CHL1  H18A  694   5.697   4.684   9.475 -0.2168  0.6044  0.1835
   10CHL1  H18B  695   5.618   4.559   9.371  1.3131  0.2138 -0.8287
   10CHL1  H18C  696   5.684   4.706   9.303  1.5708 -0.5320  0.1392
   10CHL1   C12  697   5.506   4.886   9.428 -0.2272 -0.2262 -0.1981
   10CHL1  H12A  698   5.560   4.944   9.349  1.5488 -0.6813  0.6389
   10CHL1  H12B  699   5.404   4.928   9.439 -0.2551 -0.7950  1.8257
   10CHL1   C11  700   5.572   4.916   9.563  0.1859 -0.0172 -0.3215
   10CHL1  H11A  701   5.680   4.895   9.551  0.4832  1.0499  0.3983
   10CHL1  H11B  702   5.553   5.025   9.579 -0.0856 -0.2275  0.7907
   10CHL1    C9  703   5.502   4.832   9.680  0.4645 -0.6121 -0.1787
   10CHL1    H9  704   5.403   4.883   9.680  1.0399  0.5360 -1.1571
   10CHL1   C10  705   5.562   4.853   9.826  0.3150 -0.2579  0.6832
   10CHL1   C19  706   5.713   4.851   9.830 -0.0924 -0.1849 -0.6023
   10CHL1  H19A  707   5.754   4.748   9.819 -0.3324 -0.3331 -0.1209
   10CHL1  H19B  708   5.759   4.905   9.745 -0.6736  1.0433 -0.1446
   10CHL1  H19C  709   5.750   4.890   9.927 -1.1429  0.6639 -0.5270
   10CHL1    C1  710   5.506   4.995   9.868  0.1263 -0.0751 -0.3763
   10CHL1   H1A  711   5.550   5.071   9.801 -2.2582  0.9364 -0.8400
   10CHL1   H1B  712   5.397   5.004   9.850  0.2283  1.5211 -0.2219
   10CHL1    C2  713   5.544   5.018  10.018 -0.1707 -0.5724  0.7967
   10CHL1   H2A  714   5.482   5.106  10.048  1.1747  0.3276  0.9709
   10CHL1   H2B  715   5.652   5.032  10.036 -0.2517  0.4018  0.5538
   10CHL1   C20  716   5.477   4.705   9.136 -0.0838  0.3214 -0.9163
   10CHL1   H20  717   5.572   4.649   9.144  0.0714  0.0992 -3.5874
   10CHL1   C21  718   5.540   4.838   9.092  0.3099  0.0565  0.0475
   10CHL1  H21A  719   5.455   4.908   9.081  1.6198  1.7657  0.6146
   10CHL1  H21B  720   5.594   4.824   8.996 -0.5744  0.4747 -0.5214
   10CHL1  H21C  721   5.608   4.888   9.164 -0.1083 -0.0266  0.5063
   10CHL1   C22  722   5.399   4.640   9.022 -0.2624 -0.1896  0.3559
   10CHL1  H22A  723   5.359   4.546   9.067 -1.4809  0.3706  0.4714
   10CHL1  H22B  724   5.317   4.709   8.991 -0.4144 -0.0887  0.9745
   10CHL1   C23  725   5.485   4.599   8.898 -0.0364  0.5340 -0.3505
   10CHL1  H23A  726   5.543   4.686   8.860  2.4179 -1.0277 -0.3146
   10CHL1  H23B  727   5.562   4.529   8.937 -2.0642 -0.6191  1.7036
   10CHL1   C24  728   5.404   4.527   8.787  0.6408 -0.4150 -0.3493
   10CHL1  H24A  729   5.341   4.447   8.832 -1.5704  0.8919 -1.0045
   10CHL1  H24B  730   5.333   4.605   8.751  1.9354  0.7745 -0.3588
   10CHL1   C25  731   5.497   4.459   8.686 -0.0590 -0.0013 -0.5271
   10CHL1   H25  732   5.565   4.545   8.668 -1.4599  1.1200 -0.5840
   10CHL1   C26  733   5.566   4.335   8.744  0.2013 -0.0348  0.4728
   10CHL1  H26A  734   5.485   4.279   8.795 -1.3127  2.0552  0.4448
   10CHL1  H26B  735   5.617   4.291   8.656 -2.4820  0.4955 -1.3906
   10CHL1  H26C  736   5.654   4.372   8.802 -0.2110 -0.0925  1.1382
   10CHL1   C27  737   5.429   4.430   8.547  0.0221  0.5629  0.0657
   10CHL1  H27A  738   5.339   4.368   8.569  0.8481 -0.6319  0.1484
   10CHL1  H27B  739   5.388   4.523   8.503 -0.0981  0.9617  1.0167
   10CHL1  H27C  740   5.494   4.371   8.479 -1.3577 -1.4687  0.4587
   11CHL1    C3  741   1.383   1.995  10.031  0.3781 -0.2661  0.1379
   11CHL1    H3  742   1.479   2.050  10.015  0.0468  0.7368  1.5644
   11CHL1    O3  743   1.330   2.017  10.158 -0.5648  1.0652 -0.6210
   11CHL1   H3'  744   1.406   2.000  10.215 -0.0047  1.0462 -1.3636
   11CHL1    C4  745   1.273   2.035   9.925  0.3878 -0.0354  0.2972
   11CHL1   H4A  746   1.177   1.982   9.941  0.2607  0.0342 -0.2428
   11CHL1   H4B  747   1.245   2.140   9.947 -0.5249 -0.3492  0.6383
   11CHL1    C5  748   1.329   2.023   9.787  1.0291  0.2531 -0.0860
   11CHL1    C6  749   1.362   2.125   9.710 -0.0657 -0.7096  0.2796
   11CHL1    H6  750   1.346   2.227   9.747  1.4487  0.0013 -0.9768
   11CHL1    C7  751   1.414   2.113   9.569  0.1412 -0.1822  0.0796
   11CHL1   H7A  752   1.370   2.180   9.492  2.6017  1.6676  0.2625
   11CHL1   H7B  753   1.524   2.119   9.563  0.0827 -0.5210 -1.5915
   11CHL1    C8  754   1.395   1.966   9.501 -0.0283  0.1373 -0.0970
   11CHL1    H8  755   1.286   1.960   9.484  0.4429  0.5136 -3.5285
   11CHL1   C14  756   1.471   1.943   9.370 -0.2242 -0.6267 -0.7685
   11CHL1   H14  757   1.578   1.961   9.397 -0.6727  1.4631 -0.2507
   11CHL1   C15  758   1.437   2.045   9.258  0.4568  0.9630 -0.5647
   11CHL1  H15A  759   1.327   2.044   9.252  0.3291  1.3850  1.2551
   11CHL1  H15B  760   1.465   2.149   9.285  0.7088  1.1153 -1.4005
   11CHL1   C16  761   1.497   1.984   9.135 -0.5084 -0.1639 -0.2716
   11CHL1  H16A  762   1.414   1.984   9.062  1.0120 -0.2105 -2.0513
   11CHL1  H16B  763   1.576   2.054   9.101 -1.6560  0.5914 -1.4400
   11CHL1   C17  764   1.546   1.836   9.174  0.3649  0.5113  0.0170
   11CHL1   H17  765   1.650   1.845   9.211  0.7358  1.8627 -1.2925
   11CHL1   C13  766   1.456   1.807   9.306 -0.6534  0.1048  0.4290
   11CHL1   C18  767   1.316   1.781   9.251  0.3776  0.4328  0.1459
   11CHL1  H18A  768   1.286   1.834   9.158  1.6188  2.1872  0.7087
   11CHL1  H18B  769   1.296   1.673   9.238  0.2008  0.5806 -0.8396
   11CHL1  H18C  770   1.236   1.811   9.323 -0.7893  0.4463 -1.1483
   11CHL1   C12  771   1.499   1.698   9.409  0.3245 -0.8691  0.3543
   11CHL1  H12A  772   1.482   1.596   9.367 -0.7965  0.0722 -1.5383
   11CHL1  H12B  773   1.607   1.701   9.438 -0.0107 -0.1169  1.5921
   11CHL1   C11  774   1.422   1.717   9.540 -0.9631 -0.5141  0.4006
   11CHL1  H11A  775   1.314   1.695   9.521 -1.1770  1.1500 -0.4366
   11CHL1  H11B  776   1.452   1.639   9.614  0.0126  1.3113  1.9863
   11CHL1    C9  777   1.434   1.855   9.605 -0.6398 -0.5396  0.2306
   11CHL1    H9  778   1.543   1.875   9.617 -0.9404  0.8698  0.6937
   11CHL1   C10  779   1.364   1.877   9.747  0.2875  0.2132  0.3241
   11CHL1   C19  780   1.228   1.808   9.732  0.4465  0.0950 -0.3399
   11CHL1  H19A  781   1.240   1.697   9.733  1.8770  0.1842  3.6415
   11CHL1  H19B  782   1.162   1.816   9.822  1.3355  0.5392  0.2734
   11CHL1  H19C  783   1.168   1.832   9.642  0.7950  1.1548 -0.2864
   11CHL1    C1  784   1.452   1.811   9.865 -0.0701  1.2258 -0.6044
   11CHL1   H1A  785   1.450   1.701   9.846  1.2877  1.5432 -2.7833
   11CHL1   H1B  786   1.555   1.849   9.851  1.2462 -1.4134  1.4848
   11CHL1    C2  787   1.411   1.837  10.007  0.1812 -0.6286 -0.2227
   11CHL1   H2A  788   1.484   1.788  10.075  2.6127  1.6068 -1.1166
   11CHL1   H2B  789   1.317   1.788  10.036  1.0853 -1.5761  1.1460
   11CHL1   C20  790   1.541   1.736   9.064  0.0020  0.5797  0.1505
   11CHL1   H20  791   1.437   1.706   9.040  0.0653  0.3611  0.1500
   11CHL1   C21  792   1.614   1.602   9.107 -0.1042 -0.4429 -0.3429
   11CHL1  H21A  793   1.572   1.547   9.194  2.3429 -0.7336  0.7046
   11CHL1  H21B  794   1.718   1.637   9.130  0.2172 -2.3787  1.2669
   11CHL1  H21C  795   1.626   1.524   9.029  0.9016  0.7401 -1.3945
   11CHL1   C22  796   1.600   1.796   8.939 -0.1426 -0.3744 -0.0471
   11CHL1  H22A  797   1.549   1.891   8.912  0.6751  0.3549  0.9572
   11CHL1  H22B  798   1.710   1.808   8.951 -0.0241  0.3974 -1.7323
   11CHL1   C23  799   1.594   1.709   8.808  0.2639 -0.0959 -0.4042
   11CHL1  H23A  800   1.630   1.606   8.829  0.5609  0.1368  0.2280
   11CHL1  H23B  801   1.486   1.693   8.790 -0.2994  0.5486  2.2478
   11CHL1   C24  802   1.664   1.765   8.685 -0.6013 -0.2661  0.2894
   11CHL1  H24A  803   1.770   1.770   8.717 -0.8156 -0.0845  0.9731
   11CHL1  H24B  804   1.651   1.695   8.600 -0.1822 -0.0907  0.0779
   11CHL1   C25  805   1.624   1.903   8.629  0.4952  0.4103  0.1982
   11CHL1   H25  806   1.630   1.973   8.715 -1.7457  0.9023 -0.0099
   11CHL1   C26  807   1.713   1.954   8.514 -0.2698  0.4912  0.3019
   11CHL1  H26A  808   1.716   2.065   8.514 -0.4013  0.4974 -1.2639
   11CHL1  H26B  809   1.817   1.919   8.532  0.7996  2.0892 -2.5492
   11CHL1  H26C  810   1.690   1.913   8.413  0.6982  0.6980 -0.0021
   11CHL1   C27  811   1.472   1.900   8.585  0.0024  0.2206 -0.0962
   11CHL1  H27A  812   1.457   1.818   8.512 -2.6719  0.4116  0.2208
   11CHL1  H27B  813   1.408   1.881   8.674  0.8804  0.4611  0.6020
   11CHL1  H27C  814   1.445   1.990   8.527 -1.9694 -0.4140 -0.1758
   12CHL1    C3  815   4.758   3.924  10.468  0.2485  0.0828 -0.4012
   12CHL1    H3  816   4.773   3.819  10.436 -0.4714 -0.8187  2.0957
   12CHL1    O3  817   4.820   3.935  10.595  0.0224 -0.1111  0.5874
   12CHL1   H3'  818   4.779   4.013  10.634 -0.6767  0.4007 -1.1561
   12CHL1    C4  819   4.825   4.023  10.369  0.8828  1.3042 -0.1706
   12CHL1   H4A  820   4.824   4.129  10.402 -1.5533  1.5117 -0.8328
   12CHL1   H4B  821   4.933   3.996  10.357  0.6011  0.3286 -0.5742
   12CHL1    C5  822   4.752   4.018  10.239 -0.4307 -0.5164 -0.0527
   12CHL1    C6  823   4.810   4.002  10.122  0.5154  0.5612 -0.3477
   12CHL1    H6  824   4.917   3.981  10.123 -0.2497 -3.7761  2.0098
   12CHL1    C7  825   4.749   4.032   9.991 -0.1578  0.5080  0.3861
   12CHL1   H7A  826   4.805   4.087   9.912 -0.0708  1.8012  1.3186
   12CHL1   H7B  827   4.733   3.929   9.952 -0.9547  1.2040 -1.1537
   12CHL1    C8  828   4.612   4.113  10.003  0.2208  0.6160  0.3767
   12CHL1    H8  829   4.624   4.220  10.030  0.5833  0.9953 -1.2542
   12CHL1   C14  830   4.538   4.092   9.875 -0.5883 -0.2340 -0.4015
   12CHL1   H14  831   4.517   3.986   9.849 -0.3593 -0.2915 -0.3521
   12CHL1   C15  832   4.616   4.137   9.747 -0.0461  0.2091  0.1334
   12CHL1  H15A  833   4.670   4.233   9.763  2.2738 -0.9355 -0.6286
   12CHL1  H15B  834   4.693   4.063   9.716  0.9489  0.1856  2.5272
   12CHL1   C16  835   4.500   4.146   9.640 -0.6171 -0.1423  0.5931
   12CHL1  H16A  836   4.497   4.248   9.596 -1.7146  0.3106  1.6960
   12CHL1  H16B  837   4.495   4.059   9.571 -1.4338  1.2406 -1.1389
   12CHL1   C17  838   4.366   4.143   9.725  0.2988 -0.3489  0.0591
   12CHL1   H17  839   4.330   4.037   9.724  0.9119 -0.5809  1.3951
   12CHL1   C13  840   4.405   4.167   9.868 -0.6192  0.0038  0.5653
   12CHL1   C18  841   4.411   4.318   9.888 -0.0906 -0.1586  0.2801
   12CHL1  H18A  842   4.319   4.378   9.876 -0.4231 -0.0007  3.0928
   12CHL1  H18B  843   4.428   4.342   9.996 -1.6893 -2.2634  1.0281
   12CHL1  H18C  844   4.497   4.356   9.828  1.4704 -0.7385  2.0687
   12CHL1   C12  845   4.313   4.109   9.979  0.5451  0.4348  0.3409
   12CHL1  H12A  846   4.214   4.159   9.983 -1.5622 -3.3198 -1.8050
   12CHL1  H12B  847   4.296   4.004   9.946  2.8250  0.0494  0.3373
   12CHL1   C11  848   4.383   4.110  10.112  0.2546  1.0056 -0.1585
   12CHL1  H11A  849   4.391   4.217  10.141  1.3999  1.7105 -2.9644
   12CHL1  H11B  850   4.326   4.057  10.191  2.1998 -1.5758 -0.4469
   12CHL1    C9  851   4.526   4.047  10.119  0.0685 -0.3874 -0.2588
   12CHL1    H9  852   4.518   3.940  10.091  0.0306 -0.5814  0.4971
   12CHL1   C10  853   4.603   4.054  10.255 -0.1153 -0.0858  0.1364
   12CHL1   C19  854   4.586   4.199  10.311  1.0113  0.3613 -0.4407
   12CHL1  H19A  855   4.482   4.224  10.343  0.8082 -0.7393 -0.1973
   12CHL1  H19B  856   4.652   4.212  10.399  1.7196 -2.1532 -0.5539
   12CHL1  H19C  857   4.608   4.271  10.230  0.2816 -0.0109 -0.9795
   12CHL1    C1  858   4.533   3.948  10.353  0.5274  0.0018  0.7117
   12CHL1   H1A  859   4.425   3.974  10.361  1.1327  2.1796  2.1547
   12CHL1   H1B  860   4.537   3.849  10.303  2.4300  0.7422 -0.6527
   12CHL1    C2  861   4.607   3.947  10.482  0.4570 -0.3808  0.2695
   12CHL1   H2A  862   4.557   3.876  10.552  0.2456 -0.4114  0.0873
   12CHL1   H2B  863   4.590   4.039  10.542 -0.7444 -0.0760 -0.5142
   12CHL1   C20  864   4.255   4.226   9.654 -0.5858  0.4135 -0.3216
   12CHL1   H20  865   4.290   4.332   9.651 -2.4366  1.0394 -0.6478
   12CHL1   C21  866   4.126   4.231   9.739  0.7809 -0.4626 -0.5653
   12CHL1  H21A  867   4.037   4.277   9.690 -0.1469 -1.8821 -0.2291
   12CHL1  H21B  868   4.132   4.279   9.839 -0.7043  0.9215 -1.1192
   12CHL1  H21C  869   4.091   4.130   9.769  0.1822 -0.2045 -0.3867
   12CHL1   C22  870   4.223   4.174   9.514  0.0552 -0.1433  0.1967
   12CHL1  H22A  871   4.147   4.239   9.467  0.5041 -1.0269 -1.8174
   12CHL1  H22B  872   4.312   4.174   9.446  0.8525  1.5560  1.1979
   12CHL1   C23  873   4.169   4.027   9.510 -0.1461  0.2431  0.0098
   12CHL1  H23A  874   4.255   3.957   9.523 -0.7297 -0.5378 -0.2642
   12CHL1  H23B  875   4.098   4.009   9.593 -0.6040 -1.3396 -0.6970
   12CHL1   C24  876   4.118   3.970   9.375  0.5948 -0.2718  0.0647
   12CHL1  H24A  877   4.086   3.865   9.392 -0.1289 -0.4029 -1.9453
   12CHL1  H24B  878   4.023   4.025   9.363  1.1887  0.4641 -1.3815
   12CHL1   C25  879   4.206   3.991   9.248 -0.8373  0.3402  0.7573
   12CHL1   H25  880   4.314   3.979   9.270 -0.9690 -0.7664  0.8511
   12CHL1   C26  881   4.168   3.881   9.141 -0.3674  0.2736 -0.1599
   12CHL1  H26A  882   4.244   3.876   9.060 -0.0161 -1.5886  0.2752
   12CHL1  H26B  883   4.167   3.780   9.187  0.8151  1.5487  2.7896
   12CHL1  H26C  884   4.074   3.903   9.085 -0.0715  3.4145  0.4493
   12CHL1   C27  885   4.185   4.122   9.180  0.2104 -0.0797 -0.2223
   12CHL1  H27A  886   4.088   4.116   9.126 -0.3040 -0.0222  0.6890
   12CHL1  H27B  887   4.182   4.202   9.257 -0.2158 -0.7957  0.5040
   12CHL1  H27C  888   4.258   4.137   9.097  1.1776  1.6627  0.9090
   13CHL1    C3  889   3.762   6.649   9.895 -0.0534  0.8119  0.5959
   13CHL1    H3  890   3.856   6.596   9.866 -0.7114  0.3291 -0.6950
   13CHL1    O3  891   3.751   6.663  10.031 -0.0512 -0.2071 -0.1613
   13CHL1   H3'  892   3.696   6.738  10.052 -1.2838 -0.6672 -1.7394
   13CHL1    C4  893   3.764   6.787   9.829  0.5742 -0.5655 -0.5235
   13CHL1   H4A  894   3.683   6.856   9.861  0.5726 -0.9909  0.3972
   13CHL1   H4B  895   3.855   6.845   9.854 -0.4167 -0.2224  2.4424
   13CHL1    C5  896   3.758   6.776   9.674 -0.7249 -0.3098 -1.1592
   13CHL1    C6  897   3.857   6.834   9.601  0.0035  0.2671  0.1755
   13CHL1    H6  898   3.924   6.901   9.656  0.0956 -0.6585  1.2052
   13CHL1    C7  899   3.850   6.839   9.448 -0.8852 -0.5051 -0.0972
   13CHL1   H7A  900   3.865   6.941   9.406 -1.3367 -0.5157 -0.2920
   13CHL1   H7B  901   3.923   6.768   9.406 -0.3959 -0.8635  1.3530
   13CHL1    C8  902   3.723   6.786   9.386 -0.3563  0.2015  0.2130
   13CHL1    H8  903   3.643   6.864   9.388 -0.2694  0.3722 -1.6554
   13CHL1   C14  904   3.746   6.760   9.236 -0.0842 -0.1215 -0.3329
   13CHL1   H14  905   3.816   6.673   9.228 -2.2333 -1.8128 -1.3102
   13CHL1   C15  906   3.809   6.870   9.155  0.0248 -0.4962  0.7799
   13CHL1  H15A  907   3.791   6.974   9.191 -0.7502 -1.5069  3.4392
   13CHL1  H15B  908   3.919   6.856   9.153  0.6162  3.4178  1.4294
   13CHL1   C16  909   3.765   6.833   9.009  0.2565  0.0971 -0.7754
   13CHL1  H16A  910   3.696   6.918   8.989 -0.6013  0.2392  2.4693
   13CHL1  H16B  911   3.855   6.820   8.945  0.2822 -2.3885 -0.2788
   13CHL1   C17  912   3.668   6.704   9.018  0.2549  0.9743  0.4778
   13CHL1   H17  913   3.717   6.605   9.017  0.4400  0.9673  3.4914
   13CHL1   C13  914   3.623   6.714   9.167  0.4709 -1.0222 -0.3143
   13CHL1   C18  915   3.511   6.829   9.174 -0.2074  0.7015  0.2963
   13CHL1  H18A  916   3.477   6.848   9.278 -0.4846  0.9248  0.1642
   13CHL1  H18B  917   3.555   6.926   9.143  0.2880  1.4761  3.3021
   13CHL1  H18C  918   3.428   6.797   9.108 -0.4490 -1.5012  1.6132
   13CHL1   C12  919   3.584   6.581   9.236  0.0834  0.0074  0.0886
   13CHL1  H12A  920   3.495   6.533   9.190  0.4269  1.4344 -2.1131
   13CHL1  H12B  921   3.663   6.504   9.221  0.3268  0.7710 -2.7498
   13CHL1   C11  922   3.553   6.592   9.389  0.6169  0.3011 -0.3933
   13CHL1  H11A  923   3.456   6.647   9.393  1.7862  2.4024 -0.4445
   13CHL1  H11B  924   3.543   6.486   9.420  1.7928  0.2259 -0.2553
   13CHL1    C9  925   3.674   6.661   9.463 -0.0685 -0.1750 -0.3535
   13CHL1    H9  926   3.758   6.588   9.460 -0.7366 -0.9999  0.5786
   13CHL1   C10  927   3.648   6.687   9.615 -0.0719  0.0506 -0.0368
   13CHL1   C19  928   3.503   6.748   9.618  0.7657  0.5568 -0.5548
   13CHL1  H19A  929   3.487   6.808   9.526 -2.4177 -1.4253 -1.3687
   13CHL1  H19B  930   3.428   6.667   9.611  2.4182 -1.1109  0.4161
   13CHL1  H19C  931   3.482   6.811   9.707  0.9519 -0.1897  0.0238
   13CHL1    C1  932   3.655   6.553   9.694  0.4460 -0.2517 -0.0407
   13CHL1   H1A  933   3.574   6.485   9.661 -0.3806  0.0382  1.3401
   13CHL1   H1B  934   3.748   6.494   9.680 -0.8352 -2.5580  0.9905
   13CHL1    C2  935   3.641   6.571   9.844  0.0884  0.6186  0.2539
   13CHL1   H2A  936   3.645   6.476   9.901 -2.3122  1.2764  1.5499
   13CHL1   H2B  937   3.551   6.629   9.874 -0.4935 -0.8230  1.3690
   13CHL1   C20  938   3.572   6.693   8.906 -0.2063  0.3155 -0.0879
   13CHL1   H20  939   3.501   6.778   8.914 -2.2978 -1.2488 -1.6487
   13CHL1   C21  940   3.479   6.570   8.927 -0.3925 -0.0487 -0.2135
   13CHL1  H21A  941   3.413   6.557   8.838  0.3880  0.9047 -0.9321
   13CHL1  H21B  942   3.406   6.588   9.008  1.0854 -0.5471  1.2456
   13CHL1  H21C  943   3.536   6.480   8.959  0.2616 -0.1635 -1.6423
   13CHL1   C22  944   3.623   6.694   8.764  0.8877  0.6631 -0.6430
   13CHL1  H22A  945   3.538   6.719   8.697  0.2966 -0.6474 -0.3949
   13CHL1  H22B  946   3.699   6.775   8.760  0.5355  1.1479  2.0596
   13CHL1   C23  947   3.696   6.564   8.713  0.1153 -0.0863 -0.2615
   13CHL1  H23A  948   3.757   6.512   8.790 -0.9318  0.1382  0.7370
   13CHL1  H23B  949   3.624   6.483   8.691  0.6092 -0.5693 -0.1283
   13CHL1   C24  950   3.798   6.601   8.599 -0.0876 -0.7316 -0.4567
   13CHL1  H24A  951   3.869   6.675   8.642 -1.9903 -0.9843  3.3593
   13CHL1  H24B  952   3.849   6.505   8.574 -1.0128 -1.7527  1.4748
   13CHL1   C25  953   3.730   6.665   8.480 -0.1020 -0.7243  0.1144
   13CHL1   H25  954   3.672   6.752   8.519  1.0378  0.5530 -0.9932
   13CHL1   C26  955   3.820   6.737   8.378 -0.7369  0.1423 -0.3554
   13CHL1  H26A  956   3.896   6.806   8.420 -1.6285  0.5898  0.5379
   13CHL1  H26B  957   3.881   6.655   8.334 -0.8617 -1.4034  2.2825
   13CHL1  H26C  958   3.762   6.795   8.303 -2.6030  1.6811  2.1951
   13CHL1   C27  959   3.640   6.575   8.407 -0.0649 -0.7135  0.2141
   13CHL1  H27A  960   3.588   6.632   8.327  1.8998 -0.7966 -1.1597
   13CHL1  H27B  961   3.695   6.487   8.366  2.1301  0.8262 -0.2297
   13CHL1  H27C  962   3.561   6.538   8.476 -0.9021  0.7798  0.0807
   14CHL1    C3  963   3.194   2.486  10.329 -0.3712 -1.2647 -0.2256
   14CHL1    H3  964   3.287   2.431  10.306  1.0422  1.4100 -1.1466
   14CHL1    O3  965   3.172   2.446  10.461 -0.0432 -0.3091 -0.6284
   14CHL1   H3'  966   3.132   2.359  10.460 -2.9967  0.9837 -0.9912
   14CHL1    C4  967   3.217   2.633  10.324  0.1548 -0.2252 -0.0958
   14CHL1   H4A  968   3.119   2.679  10.350  0.3407  0.8860 -1.3118
   14CHL1   H4B  969   3.290   2.668  10.400  0.4263 -0.0312 -0.4470
   14CHL1    C5  970   3.258   2.676  10.181  0.6405  0.4664  0.4307
   14CHL1    C6  971   3.378   2.733  10.158  0.7205  0.4025  1.2174
   14CHL1    H6  972   3.431   2.757  10.252  1.1605  3.7549  0.1989
   14CHL1    C7  973   3.436   2.768  10.028 -0.1151 -0.1393  0.3264
   14CHL1   H7A  974   3.471   2.874  10.033 -0.5760 -0.0213  1.2348
   14CHL1   H7B  975   3.520   2.702  10.001  0.8780  1.4352 -0.5150
   14CHL1    C8  976   3.326   2.764   9.916  0.3839 -0.2823 -0.1718
   14CHL1    H8  977   3.263   2.853   9.938  0.8867 -0.2794  1.3293
   14CHL1   C14  978   3.384   2.776   9.780 -0.1062 -0.0772  0.3038
   14CHL1   H14  979   3.450   2.686   9.780  1.1899  0.8543 -1.5421
   14CHL1   C15  980   3.483   2.890   9.748  0.8420 -0.1574 -0.1894
   14CHL1  H15A  981   3.427   2.983   9.772  0.1596 -0.4463 -0.6306
   14CHL1  H15B  982   3.582   2.895   9.797  1.9620 -1.3777 -2.2542
   14CHL1   C16  983   3.488   2.883   9.594  0.6289  0.4908  0.8054
   14CHL1  H16A  984   3.449   2.978   9.551 -0.8324 -1.0700 -1.3487
   14CHL1  H16B  985   3.594   2.865   9.565  1.0071 -0.1395  2.4988
   14CHL1   C17  986   3.388   2.773   9.546 -0.3146 -0.2694 -0.2525
   14CHL1   H17  987   3.450   2.682   9.557 -0.2947  0.0569  2.6003
   14CHL1   C13  988   3.287   2.762   9.659 -0.4302 -0.4996 -0.1287
   14CHL1   C18  989   3.195   2.882   9.661 -0.0895 -0.3762  0.4573
   14CHL1  H18A  990   3.259   2.971   9.648  0.4316 -0.9903 -1.2808
   14CHL1  H18B  991   3.111   2.872   9.588 -0.6283  1.1211  0.8554
   14CHL1  H18C  992   3.144   2.906   9.757 -0.3190  0.0697  0.2242
   14CHL1   C12  993   3.199   2.637   9.671  0.2394 -0.0823  0.9165
   14CHL1  H12A  994   3.118   2.619   9.598  1.7657  0.2522 -0.9217
   14CHL1  H12B  995   3.275   2.556   9.661  0.4662  0.1521  0.7284
   14CHL1   C11  996   3.131   2.633   9.814 -0.0098 -0.4646 -0.3821
   14CHL1  H11A  997   3.065   2.722   9.820  0.3044 -0.2761  0.4052
   14CHL1  H11B  998   3.071   2.539   9.821 -2.0547  0.8371  0.0822
   14CHL1    C9  999   3.234   2.638   9.926  0.4558 -0.0530  0.2546
   14CHL1    H9 1000   3.304   2.553   9.908  0.0811 -0.0178 -1.5150
   14CHL1   C10 1001   3.163   2.629  10.067 -0.3265 -0.5678 -0.3422
   14CHL1   C19 1002   3.033   2.718  10.069  0.4439  0.3326 -0.4175
   14CHL1  H19A 1003   2.965   2.686   9.988  0.1108  0.8863 -0.3603
   14CHL1  H19B 1004   2.985   2.725  10.169  1.0618  4.9060 -0.3163
   14CHL1  H19C 1005   3.070   2.821  10.048  0.1839  0.6255  0.5255
   14CHL1    C1 1006   3.124   2.474  10.092 -0.8938  0.1673  0.3933
   14CHL1   H1A 1007   3.047   2.449  10.016  0.5850 -0.5126 -0.8981
   14CHL1   H1B 1008   3.216   2.417  10.068 -0.7658  1.0186 -1.1264
   14CHL1    C2 1009   3.083   2.443  10.236  0.5784 -0.8757 -0.0251
   14CHL1   H2A 1010   3.080   2.334  10.257  1.3862 -1.4016 -2.4641
   14CHL1   H2B 1011   2.988   2.494  10.262  1.2540 -0.7090  2.2082
   14CHL1   C20 1012   3.338   2.793   9.400  0.1225 -0.1836 -0.2346
   14CHL1   H20 1013   3.286   2.891   9.393  0.7080  0.1111 -0.4859
   14CHL1   C21 1014   3.249   2.679   9.369 -0.1514 -0.0901  0.2050
   14CHL1  H21A 1015   3.283   2.581   9.407 -1.1931 -0.2513  0.7300
   14CHL1  H21B 1016   3.247   2.670   9.258 -0.7564  0.9714  0.1187
   14CHL1  H21C 1017   3.142   2.692   9.397 -0.4648  0.1706 -1.0755
   14CHL1   C22 1018   3.461   2.813   9.301 -0.2039  0.1248  0.2320
   14CHL1  H22A 1019   3.538   2.885   9.336  1.3395 -1.1596 -0.4489
   14CHL1  H22B 1020   3.524   2.722   9.302 -0.0532  0.1983 -0.9475
   14CHL1   C23 1021   3.412   2.864   9.159  0.0064 -0.0940 -0.2920
   14CHL1  H23A 1022   3.309   2.825   9.141  0.0794 -0.3498 -0.1592
   14CHL1  H23B 1023   3.405   2.973   9.179  2.2838  0.2376 -1.2024
   14CHL1   C24 1024   3.493   2.832   9.033 -0.3654 -0.7017  0.4207
   14CHL1  H24A 1025   3.602   2.851   9.045 -0.3030 -2.2372  2.3502
   14CHL1  H24B 1026   3.474   2.726   9.009 -0.3227 -0.5969 -0.0912
   14CHL1   C25 1027   3.438   2.907   8.905  1.1219  0.2291  0.4099
   14CHL1   H25 1028   3.328   2.893   8.906  1.0169  0.8852 -0.6579
   14CHL1   C26 1029   3.458   3.064   8.905 -0.7622  0.4662 -0.1821
   14CHL1  H26A 1030   3.428   3.099   9.006  1.0915  1.0162  0.2033
   14CHL1  H26B 1031   3.565   3.091   8.893 -1.3000  3.3301  1.0909
   14CHL1  H26C 1032   3.395   3.124   8.836 -0.4069 -0.5447 -1.3981
   14CHL1   C27 1033   3.489   2.844   8.768  0.0233  0.4572  0.9578
   14CHL1  H27A 1034   3.425   2.880   8.684 -2.3446 -0.7233  2.2269
   14CHL1  H27B 1035   3.596   2.870   8.753  0.0643 -1.0696 -1.7576
   14CHL1  H27C 1036   3.469   2.735   8.768 -2.6349  0.8949 -0.3984
   15CHL1    C3 1037   3.367   1.665   9.932 -0.9986 -0.4658  0.2158
   15CHL1    H3 1038   3.286   1.724   9.884  1.8900  1.2199 -2.8475
   15CHL1    O3 1039   3.326   1.573  10.025  0.4568 -0.0212 -0.7343
   15CHL1   H3' 1040   3.407   1.550  10.071 -1.0391  0.7477  2.4146
   15CHL1    C4 1041   3.425   1.591   9.807  0.7219 -0.2709  0.1515
   15CHL1   H4A 1042   3.501   1.517   9.841  0.6953 -0.1403  0.4980
   15CHL1   H4B 1043   3.337   1.538   9.764  1.5200 -0.2246 -1.5467
   15CHL1    C5 1044   3.483   1.685   9.705  0.2142  0.0402  0.7949
   15CHL1    C6 1045   3.441   1.687   9.575  0.6084 -0.0805  0.0592
   15CHL1    H6 1046   3.365   1.615   9.540 -0.3145  0.7237  0.3781
   15CHL1    C7 1047   3.493   1.774   9.469  0.1743 -0.1859  0.1285
   15CHL1   H7A 1048   3.505   1.722   9.372 -1.3116 -1.5696  0.6576
   15CHL1   H7B 1049   3.416   1.851   9.446  0.0312  0.3704  2.3210
   15CHL1    C8 1050   3.628   1.837   9.509 -0.2917 -0.6262  0.2257
   15CHL1    H8 1051   3.704   1.757   9.498  1.5986  0.9479  1.4403
   15CHL1   C14 1052   3.674   1.945   9.412  0.0960 -0.6345  0.6780
   15CHL1   H14 1053   3.596   2.024   9.415 -1.1890 -1.6024 -3.5806
   15CHL1   C15 1054   3.681   1.920   9.265 -0.1288 -0.1643  0.0014
   15CHL1  H15A 1055   3.734   1.823   9.256  0.4185  0.0184  1.3035
   15CHL1  H15B 1056   3.582   1.903   9.216  0.5987 -1.6750 -0.9961
   15CHL1   C16 1057   3.769   2.032   9.210  0.1948 -0.0229 -0.0342
   15CHL1  H16A 1058   3.861   1.984   9.171  1.2796  0.8694  1.3646
   15CHL1  H16B 1059   3.709   2.090   9.137 -0.5018  0.3417  0.8261
   15CHL1   C17 1060   3.819   2.115   9.336 -0.6829 -0.1965  0.0008
   15CHL1   H17 1061   3.742   2.195   9.341  0.0899  0.4775  2.1897
   15CHL1   C13 1062   3.797   2.022   9.456 -1.3887 -0.1747 -0.3244
   15CHL1   C18 1063   3.922   1.924   9.452  0.3066 -0.8753 -0.0702
   15CHL1  H18A 1064   4.007   1.988   9.486  0.0673 -0.9696  0.7167
   15CHL1  H18B 1065   3.909   1.849   9.533 -0.3033 -0.2740  0.3944
   15CHL1  H18C 1066   3.932   1.864   9.359 -2.8205 -0.3902 -0.7672
   15CHL1   C12 1067   3.779   2.095   9.589 -0.7716  0.0893  0.0640
   15CHL1  H12A 1068   3.874   2.140   9.626  0.3455 -1.9599 -0.2048
   15CHL1  H12B 1069   3.700   2.172   9.597 -0.1157  0.8690 -0.8118
   15CHL1   C11 1070   3.745   1.984   9.698  0.0736  0.0371  0.0838
   15CHL1  H11A 1071   3.837   1.928   9.725 -0.2460 -0.4130  0.2492
   15CHL1  H11B 1072   3.717   2.034   9.793  1.9135  2.1196 -0.4299
   15CHL1    C9 1073   3.633   1.885   9.658  0.1860  0.0980  0.6678
   15CHL1    H9 1074   3.546   1.954   9.662 -1.8536 -2.4018  0.9181
   15CHL1   C10 1075   3.597   1.784   9.765 -0.1746  0.6579 -0.4204
   15CHL1   C19 1076   3.717   1.707   9.810  0.1501  0.1111  0.3568
   15CHL1  H19A 1077   3.784   1.774   9.869  0.0767  1.3734 -0.9644
   15CHL1  H19B 1078   3.689   1.629   9.885 -0.1351 -1.0605 -0.9618
   15CHL1  H19C 1079   3.773   1.654   9.731  1.1496  2.1704 -0.3555
   15CHL1    C1 1080   3.531   1.856   9.892  0.2961 -0.3509  0.5138
   15CHL1   H1A 1081   3.604   1.926   9.938 -0.4202  0.1617  0.8760
   15CHL1   H1B 1082   3.440   1.913   9.866  1.7297  0.7725 -2.3114
   15CHL1    C2 1083   3.474   1.751   9.993  0.2986  0.9688 -0.1503
   15CHL1   H2A 1084   3.434   1.815  10.073 -0.4563  0.1123  0.1613
   15CHL1   H2B 1085   3.546   1.681  10.041  0.2817  2.1944  1.6914
   15CHL1   C20 1086   3.955   2.183   9.304  0.4483  1.1683 -0.1199
   15CHL1   H20 1087   4.042   2.114   9.302 -0.2173  0.3328 -0.3404
   15CHL1   C21 1088   3.982   2.293   9.412 -0.2465  0.9942 -0.3394
   15CHL1  H21A 1089   4.006   2.243   9.508 -3.8641 -0.5752 -0.1742
   15CHL1  H21B 1090   3.887   2.346   9.433 -1.9112 -1.7962 -0.5638
   15CHL1  H21C 1091   4.056   2.369   9.380  1.0412 -0.8100 -1.8094
   15CHL1   C22 1092   3.949   2.246   9.162  0.2046  0.4950  0.3176
   15CHL1  H22A 1093   3.934   2.170   9.082  1.8524  2.4840 -1.9480
   15CHL1  H22B 1094   3.864   2.317   9.169  0.7596  1.2441 -0.4643
   15CHL1   C23 1095   4.072   2.330   9.118 -0.0567 -0.2683 -0.4985
   15CHL1  H23A 1096   4.100   2.417   9.181  1.1430  0.4498 -1.9829
   15CHL1  H23B 1097   4.158   2.260   9.125 -1.4445 -2.0386 -0.9357
   15CHL1   C24 1098   4.060   2.381   8.975 -0.2193  0.2223  0.4395
   15CHL1  H24A 1099   4.154   2.438   8.954  2.3156 -3.9389  0.0386
   15CHL1  H24B 1100   4.078   2.300   8.902  0.8026  2.2582 -1.6254
   15CHL1   C25 1101   3.936   2.464   8.940 -0.1492  0.2797 -0.1536
   15CHL1   H25 1102   3.853   2.392   8.956 -1.2976  1.6236  0.0346
   15CHL1   C26 1103   3.908   2.573   9.038  0.3444 -0.1407 -0.6977
   15CHL1  H26A 1104   3.987   2.651   9.035 -0.6404  0.9345  0.9363
   15CHL1  H26B 1105   3.805   2.611   9.020  0.5912  1.4021  0.9674
   15CHL1  H26C 1106   3.912   2.535   9.142  2.2480 -1.4710 -1.2396
   15CHL1   C27 1107   3.951   2.512   8.794 -0.0520 -0.1999  0.5773
   15CHL1  H27A 1108   3.966   2.416   8.740  0.6065  0.4271 -0.3624
   15CHL1  H27B 1109   3.854   2.560   8.770  0.2219  0.1129  0.0995
   15CHL1  H27C 1110   4.038   2.581   8.791 -0.2071  0.0312  1.2941
   16CHL1    C3 1111   4.367   1.817  10.129  0.6685  0.1992  0.0268
   16CHL1    H3 1112   4.308   1.908  10.106 -1.2108 -0.4409  2.0913
   16CHL1    O3 1113   4.359   1.794  10.267 -0.0084  0.2679 -0.0256
   16CHL1   H3' 1114   4.397   1.707  10.282  3.6678  1.9898  1.0247
   16CHL1    C4 1115   4.307   1.699  10.050  0.4586  0.6618 -0.1043
   16CHL1   H4A 1116   4.356   1.608  10.091 -0.3743  0.4776  0.4823
   16CHL1   H4B 1117   4.201   1.702  10.083  0.6207  0.2887  0.4559
   16CHL1    C5 1118   4.319   1.691   9.902 -1.2338 -0.6204  0.0025
   16CHL1    C6 1119   4.213   1.676   9.817 -0.2119  0.6157 -0.4847
   16CHL1    H6 1120   4.112   1.667   9.859 -1.1002  0.0811 -2.6998
   16CHL1    C7 1121   4.234   1.683   9.673 -0.5500  0.2163  1.3768
   16CHL1   H7A 1122   4.165   1.611   9.623 -0.1004 -0.0621  1.1563
   16CHL1   H7B 1123   4.190   1.782   9.647 -1.3399 -0.6060 -0.5147
   16CHL1    C8 1124   4.377   1.671   9.626 -0.9877  0.2614  0.6393
   16CHL1    H8 1125   4.414   1.567   9.642  0.3970  0.7460  0.6371
   16CHL1   C14 1126   4.380   1.702   9.478 -0.3767 -0.6871  0.5043
   16CHL1   H14 1127   4.355   1.810   9.474  0.2354 -0.5179  1.3131
   16CHL1   C15 1128   4.297   1.622   9.384  0.0687 -0.4036  0.1539
   16CHL1  H15A 1129   4.303   1.515   9.414  2.2592 -0.3665 -0.1046
   16CHL1  H15B 1130   4.193   1.660   9.376  0.5014  0.9371  0.8169
   16CHL1   C16 1131   4.368   1.638   9.245  0.7550  0.4675  0.5475
   16CHL1  H16A 1132   4.386   1.536   9.203  0.9660 -0.2001  2.2375
   16CHL1  H16B 1133   4.312   1.699   9.171 -2.4834 -3.0985 -0.0691
   16CHL1   C17 1134   4.503   1.721   9.274  0.1243 -0.8060  0.2783
   16CHL1   H17 1135   4.473   1.828   9.280  1.7684 -0.1827 -2.2086
   16CHL1   C13 1136   4.525   1.693   9.424 -0.8509  0.0358 -0.2483
   16CHL1   C18 1137   4.585   1.551   9.434  0.0387  0.6378 -0.0362
   16CHL1  H18A 1138   4.538   1.478   9.365 -0.0023  2.3963 -1.9072
   16CHL1  H18B 1139   4.693   1.559   9.408 -0.8230  2.0083 -3.3983
   16CHL1  H18C 1140   4.578   1.505   9.535  1.0109 -2.4334 -1.3060
   16CHL1   C12 1141   4.618   1.802   9.492  0.6103  0.0849 -0.6750
   16CHL1  H12A 1142   4.726   1.807   9.466  1.1115  0.9634  1.4527
   16CHL1  H12B 1143   4.586   1.908   9.487  1.8981  0.6740  2.2719
   16CHL1   C11 1144   4.614   1.775   9.646  0.1815 -0.1965  0.1170
   16CHL1  H11A 1145   4.672   1.682   9.666  0.2415 -0.1592  0.1158
   16CHL1  H11B 1146   4.646   1.866   9.702  3.2181 -0.1821 -1.5988
   16CHL1    C9 1147   4.469   1.763   9.707 -0.0498 -0.0066 -0.2444
   16CHL1    H9 1148   4.432   1.867   9.697  0.1700  0.4431  2.9674
   16CHL1   C10 1149   4.466   1.729   9.854  0.0294 -0.0692 -0.5561
   16CHL1   C19 1150   4.565   1.611   9.885 -0.0147  0.0843 -0.3447
   16CHL1  H19A 1151   4.534   1.525   9.822 -1.4414 -0.6342  1.2928
   16CHL1  H19B 1152   4.672   1.635   9.867 -0.1332 -0.5871 -2.1036
   16CHL1  H19C 1153   4.550   1.576   9.989 -2.5081 -0.4513 -0.8362
   16CHL1    C1 1154   4.515   1.849   9.938 -0.0732  0.2933  0.3434
   16CHL1   H1A 1155   4.618   1.880   9.911 -0.2501  0.1607 -0.4798
   16CHL1   H1B 1156   4.472   1.949   9.920  1.1620  0.8362  0.3199
   16CHL1    C2 1157   4.509   1.828  10.091 -0.7780  0.0004 -0.8564
   16CHL1   H2A 1158   4.558   1.910  10.148  0.0675  0.9984 -2.9750
   16CHL1   H2B 1159   4.558   1.731  10.111  1.3584  1.2922  0.3707
   16CHL1   C20 1160   4.604   1.702   9.165 -0.4824 -0.1586  0.9161
   16CHL1   H20 1161   4.643   1.599   9.150  0.1358  0.3974 -1.4005
   16CHL1   C21 1162   4.730   1.783   9.198 -0.7381 -0.0366 -0.1444
   16CHL1  H21A 1163   4.802   1.791   9.113 -0.4675 -0.1063  0.0766
   16CHL1  H21B 1164   4.784   1.726   9.276 -0.4316  0.7002  0.1897
   16CHL1  H21C 1165   4.707   1.881   9.246  1.3104  0.8745 -0.9388
   16CHL1   C22 1166   4.545   1.751   9.029  0.0670 -0.5166 -0.0876
   16CHL1  H22A 1167   4.442   1.711   9.017 -0.2887  0.0423  1.0341
   16CHL1  H22B 1168   4.538   1.861   9.018  1.0481 -0.4519 -0.0890
   16CHL1   C23 1169   4.625   1.697   8.913  0.2924  0.2742 -0.3528
   16CHL1  H23A 1170   4.729   1.733   8.925  0.0688  0.9388 -0.3775
   16CHL1  H23B 1171   4.640   1.588   8.928  0.2520  0.5274  1.7631
   16CHL1   C24 1172   4.561   1.729   8.780 -0.1921  0.0713 -0.6448
   16CHL1  H24A 1173   4.458   1.689   8.774 -1.4757  3.3228 -1.3584
   16CHL1  H24B 1174   4.553   1.840   8.774 -2.1299  0.2135  2.9051
   16CHL1   C25 1175   4.617   1.678   8.644  0.2721  0.3860 -0.3886
   16CHL1   H25 1176   4.700   1.747   8.623 -0.8696  1.8844 -0.0550
   16CHL1   C26 1177   4.667   1.529   8.657  0.0057  0.2251 -0.1734
   16CHL1  H26A 1178   4.741   1.521   8.739 -1.3300  1.7384  1.2175
   16CHL1  H26B 1179   4.583   1.460   8.676  0.2834 -0.0021  0.2275
   16CHL1  H26C 1180   4.717   1.492   8.564 -0.9907  1.2735 -1.1476
   16CHL1   C27 1181   4.516   1.686   8.530  0.2472  0.5216 -0.3112
   16CHL1  H27A 1182   4.458   1.592   8.525  0.4052  0.2116  2.5377
   16CHL1  H27B 1183   4.455   1.779   8.524  1.4099  1.5661  2.6345
   16CHL1  H27C 1184   4.564   1.675   8.431  1.8459  1.4890  0.3193
   17CHL1    C3 1185   6.589   5.870  10.490  0.8508  0.5186 -0.1380
   17CHL1    H3 1186   6.508   5.796  10.476  1.0004  0.2714  0.2773
   17CHL1    O3 1187   6.617   5.878  10.631 -0.0217 -0.2826 -0.5097
   17CHL1   H3' 1188   6.534   5.909  10.668  0.9714  0.1946  1.3245
   17CHL1    C4 1189   6.715   5.821  10.416  0.1156  0.3427 -0.5242
   17CHL1   H4A 1190   6.790   5.903  10.426  1.3380 -0.7001 -0.9116
   17CHL1   H4B 1191   6.763   5.731  10.462  1.4146  1.5610  0.5535
   17CHL1    C5 1192   6.684   5.807  10.271  0.3692 -0.9428 -0.0296
   17CHL1    C6 1193   6.689   5.694  10.204  0.1232 -0.1055 -0.4277
   17CHL1    H6 1194   6.718   5.596  10.245 -0.8102 -0.3504 -0.3461
   17CHL1    C7 1195   6.648   5.678  10.061 -0.7555 -0.2865  0.5949
   17CHL1   H7A 1196   6.715   5.609  10.004 -1.6052  0.5101 -1.4140
   17CHL1   H7B 1197   6.549   5.628  10.064  0.0019 -1.7701  1.4030
   17CHL1    C8 1198   6.645   5.814   9.985  0.4669 -0.4777  0.5068
   17CHL1    H8 1199   6.748   5.854   9.979 -0.8358  3.0649  0.1792
   17CHL1   C14 1200   6.577   5.791   9.848  0.2430 -0.4324  0.4654
   17CHL1   H14 1201   6.473   5.762   9.875 -0.0992  1.0085  0.7442
   17CHL1   C15 1202   6.633   5.677   9.754 -0.4026 -0.1494 -0.8871
   17CHL1  H15A 1203   6.744   5.681   9.749 -0.2830  0.3423  1.5591
   17CHL1  H15B 1204   6.601   5.577   9.790  0.6493 -1.0219 -2.2948
   17CHL1   C16 1205   6.564   5.708   9.622 -0.4039 -0.0044  0.0233
   17CHL1  H16A 1206   6.643   5.708   9.543 -1.6036 -1.5430 -1.2167
   17CHL1  H16B 1207   6.487   5.630   9.602 -1.9770  0.8261  2.5555
   17CHL1   C17 1208   6.481   5.843   9.632 -0.3479  0.8792 -1.0973
   17CHL1   H17 1209   6.382   5.817   9.676  0.7835  0.6480  1.3879
   17CHL1   C13 1210   6.553   5.912   9.758 -0.2162  0.4774 -0.8149
   17CHL1   C18 1211   6.692   5.966   9.721 -0.0824  0.1867 -0.2506
   17CHL1  H18A 1212   6.673   6.038   9.638 -1.4111 -1.3079 -1.2873
   17CHL1  H18B 1213   6.744   6.013   9.807 -1.5258 -2.3260  2.0761
   17CHL1  H18C 1214   6.761   5.885   9.689  1.3006  1.0626  0.4890
   17CHL1   C12 1215   6.465   6.013   9.842 -0.0114 -0.1605  0.0430
   17CHL1  H12A 1216   6.434   6.103   9.786 -3.2352 -2.6514 -2.3799
   17CHL1  H12B 1217   6.369   5.960   9.861 -0.2707 -0.3716 -1.7757
   17CHL1   C11 1218   6.533   6.043   9.979  0.2873  0.0654 -0.4482
   17CHL1  H11A 1219   6.622   6.107   9.963 -0.0505  0.6668  0.0808
   17CHL1  H11B 1220   6.469   6.117  10.030  1.1547  1.1368 -0.8871
   17CHL1    C9 1221   6.559   5.914  10.066  0.1015  0.1935  0.1074
   17CHL1    H9 1222   6.462   5.864  10.087  1.8540 -2.6986  1.7649
   17CHL1   C10 1223   6.621   5.936  10.209 -0.1510  0.0331 -0.2650
   17CHL1   C19 1224   6.751   6.029  10.193 -0.5930  0.2542  0.5859
   17CHL1  H19A 1225   6.793   6.052  10.293  1.4701 -0.4302 -0.1153
   17CHL1  H19B 1226   6.832   5.975  10.141 -2.2071 -4.2018  2.4789
   17CHL1  H19C 1227   6.730   6.127  10.144  3.2420  0.6129 -0.4632
   17CHL1    C1 1228   6.512   6.014  10.294 -0.5533  0.0130  0.3026
   17CHL1   H1A 1229   6.499   6.117  10.254 -3.7044 -0.0021  1.1668
   17CHL1   H1B 1230   6.411   5.967  10.288 -0.8652  1.0201 -3.2906
   17CHL1    C2 1231   6.553   6.014  10.439  0.3854 -0.5519 -0.0815
   17CHL1   H2A 1232   6.471   6.049  10.504  0.5758 -0.0569 -0.1035
   17CHL1   H2B 1233   6.633   6.088  10.461  0.0778 -0.5221  0.9702
   17CHL1   C20 1234   6.464   5.916   9.506 -0.4780 -0.8698 -0.2527
   17CHL1   H20 1235   6.563   5.933   9.458  0.5767 -1.3119  1.7075
   17CHL1   C21 1236   6.385   6.043   9.528  0.0627  0.2863  0.1816
   17CHL1  H21A 1237   6.289   6.013   9.574  1.6837 -1.0889  2.8025
   17CHL1  H21B 1238   6.360   6.097   9.434 -1.6010  0.7449  0.8633
   17CHL1  H21C 1239   6.444   6.105   9.599  2.2844  1.0280 -2.2006
   17CHL1   C22 1240   6.384   5.830   9.404 -0.2893 -0.2329 -0.1883
   17CHL1  H22A 1241   6.432   5.730   9.395  0.3341  0.2426 -2.3667
   17CHL1  H22B 1242   6.280   5.826   9.443 -0.0175  0.1266  0.5804
   17CHL1   C23 1243   6.384   5.883   9.263 -0.5073  0.1991 -0.7304
   17CHL1  H23A 1244   6.346   5.988   9.264 -0.9854  0.0248  0.1298
   17CHL1  H23B 1245   6.483   5.890   9.214  0.1324  2.1280  0.7465
   17CHL1   C24 1246   6.283   5.804   9.176  0.4062  0.2257  0.1266
   17CHL1  H24A 1247   6.345   5.715   9.152 -0.3795 -0.0209 -1.0534
   17CHL1  H24B 1248   6.203   5.768   9.245  1.2197 -2.0972 -0.1138
   17CHL1   C25 1249   6.219   5.869   9.055  0.2876 -0.3442 -0.2297
   17CHL1   H25 1250   6.164   5.957   9.096  0.3822 -1.0865  1.5097
   17CHL1   C26 1251   6.330   5.934   8.965  0.3581  0.1644 -0.1462
   17CHL1  H26A 1252   6.300   6.000   8.881  0.1791 -0.8201 -0.8642
   17CHL1  H26B 1253   6.397   5.992   9.032  2.2445 -0.3692 -1.5216
   17CHL1  H26C 1254   6.393   5.846   8.938 -0.6455 -1.0006  1.2275
   17CHL1   C27 1255   6.123   5.784   8.969  0.2228  0.2604  0.8093
   17CHL1  H27A 1256   6.167   5.702   8.908 -2.0174 -2.1431  2.2962
   17CHL1  H27B 1257   6.033   5.745   9.020 -1.0145  0.2098 -1.3724
   17CHL1  H27C 1258   6.084   5.842   8.883 -1.2885 -1.5440  0.2571
   18CHL1    C3 1259   6.020   3.825  10.248 -0.2649  0.0871 -0.0518
   18CHL1    H3 1260   6.078   3.730  10.243 -2.1676 -1.1196  0.3137
   18CHL1    O3 1261   6.002   3.864  10.381 -0.2539  0.7858 -0.1776
   18CHL1   H3' 1262   6.073   3.926  10.402 -0.5958  0.8235  0.9029
   18CHL1    C4 1263   6.103   3.930  10.164 -0.4378  0.3029  0.0672
   18CHL1   H4A 1264   6.045   4.024  10.175 -0.4112  0.5991 -2.1289
   18CHL1   H4B 1265   6.197   3.945  10.222 -1.8501  1.5966  2.1011
   18CHL1    C5 1266   6.114   3.894  10.020  0.0617 -0.1939  0.3905
   18CHL1    C6 1267   6.236   3.878   9.962  0.0191  0.2085 -0.1270
   18CHL1    H6 1268   6.322   3.915  10.019 -1.5254  1.6299  1.3207
   18CHL1    C7 1269   6.255   3.832   9.822  0.5008  0.0286  0.4988
   18CHL1   H7A 1270   6.309   3.914   9.770  1.2374 -0.0544  1.1234
   18CHL1   H7B 1271   6.303   3.734   9.803 -2.4818 -1.4139  0.0153
   18CHL1    C8 1272   6.123   3.839   9.732  0.1930  0.4059  0.3679
   18CHL1    H8 1273   6.097   3.945   9.710  1.8649  0.8603  0.4915
   18CHL1   C14 1274   6.148   3.759   9.595 -0.5094  0.0753 -0.2550
   18CHL1   H14 1275   6.157   3.652   9.623  0.3143  0.6896  1.9731
   18CHL1   C15 1276   6.274   3.804   9.517  0.2014 -0.3579  0.2557
   18CHL1  H15A 1277   6.286   3.914   9.525  1.8734 -0.4598 -0.5757
   18CHL1  H15B 1278   6.369   3.764   9.561 -0.6759 -1.8639  0.8221
   18CHL1   C16 1279   6.242   3.756   9.380  0.7765  0.4034 -0.1203
   18CHL1  H16A 1280   6.261   3.843   9.314  0.6658  0.4609 -0.0770
   18CHL1  H16B 1281   6.303   3.665   9.357  0.2386 -0.2327  0.9473
   18CHL1   C17 1282   6.091   3.712   9.370 -0.0308  0.1396  0.1503
   18CHL1   H17 1283   6.085   3.602   9.388 -0.9970  0.5667  2.6139
   18CHL1   C13 1284   6.034   3.769   9.501  0.6842 -0.6346  0.5424
   18CHL1   C18 1285   6.005   3.920   9.469  0.3497 -0.0560  0.0375
   18CHL1  H18A 1286   6.091   3.972   9.423 -0.0415 -1.7823 -2.8287
   18CHL1  H18B 1287   5.931   3.930   9.386  0.9086  0.8430 -0.3554
   18CHL1  H18C 1288   5.962   3.974   9.555  1.3161 -1.6479  1.5408
   18CHL1   C12 1289   5.907   3.707   9.568 -0.2298 -0.5144 -0.1478
   18CHL1  H12A 1290   5.814   3.711   9.507  0.2054  0.3054 -0.7613
   18CHL1  H12B 1291   5.917   3.596   9.573  0.0660 -0.5860 -2.0155
   18CHL1   C11 1292   5.878   3.757   9.717 -0.2372  0.0299 -0.3264
   18CHL1  H11A 1293   5.827   3.855   9.714  1.2878  0.7952 -1.6114
   18CHL1  H11B 1294   5.810   3.686   9.770  1.3376  0.4716  2.4301
   18CHL1    C9 1295   6.005   3.774   9.808  0.7216 -0.9445 -0.6613
   18CHL1    H9 1296   6.047   3.677   9.842  2.5240  0.1503  0.3180
   18CHL1   C10 1297   5.978   3.856   9.943 -0.3199  0.3708 -0.5024
   18CHL1   C19 1298   5.902   3.989   9.929 -0.3495 -0.4225 -0.0055
   18CHL1  H19A 1299   5.887   4.038  10.028 -0.4055 -1.2742  0.4123
   18CHL1  H19B 1300   5.962   4.061   9.870 -0.5003  0.4478  0.8980
   18CHL1  H19C 1301   5.805   3.984   9.874 -0.1686  2.2592 -0.6335
   18CHL1    C1 1302   5.892   3.767  10.036 -0.3615 -0.1658  0.2109
   18CHL1   H1A 1303   5.793   3.753   9.986  0.1199  1.3889 -1.2050
   18CHL1   H1B 1304   5.933   3.664  10.046 -0.7696 -0.4069 -0.5578
   18CHL1    C2 1305   5.882   3.804  10.185 -0.3459  0.1276  0.7785
   18CHL1   H2A 1306   5.833   3.718  10.235 -1.3093 -0.6500 -1.4302
   18CHL1   H2B 1307   5.815   3.892  10.195 -0.1207  0.5505 -1.1765
   18CHL1   C20 1308   6.020   3.728   9.234  0.0104 -0.3093 -0.3845
   18CHL1   H20 1309   6.019   3.831   9.193 -0.3163 -0.7723 -1.5658
   18CHL1   C21 1310   5.870   3.693   9.242 -0.0215 -0.7178 -0.0249
   18CHL1  H21A 1311   5.830   3.682   9.139  2.6546  0.4129 -1.2559
   18CHL1  H21B 1312   5.813   3.770   9.299  0.1670 -1.7914  1.6623
   18CHL1  H21C 1313   5.848   3.597   9.294 -0.5894  0.4794  2.0121
   18CHL1   C22 1314   6.089   3.637   9.128  0.2343  0.0948 -0.0730
   18CHL1  H22A 1315   6.199   3.649   9.131  0.2980 -0.4409 -0.2475
   18CHL1  H22B 1316   6.064   3.533   9.155 -1.5122  0.4897 -0.1146
   18CHL1   C23 1317   6.051   3.672   8.992  0.3815 -0.0430 -0.1859
   18CHL1  H23A 1318   5.942   3.656   8.978 -0.1980  3.6701 -0.3546
   18CHL1  H23B 1319   6.060   3.780   8.969 -0.1702  0.6387  2.6202
   18CHL1   C24 1320   6.119   3.581   8.888 -0.4472 -0.0602  0.7619
   18CHL1  H24A 1321   6.107   3.476   8.920  0.0783 -0.3444  0.0305
   18CHL1  H24B 1322   6.074   3.591   8.787 -1.7786 -1.3375  1.2144
   18CHL1   C25 1323   6.265   3.613   8.848  0.5211 -0.2852 -0.5484
   18CHL1   H25 1324   6.332   3.586   8.933  2.1819  0.0525 -1.7310
   18CHL1   C26 1325   6.299   3.509   8.741  0.6390 -0.1987 -0.6189
   18CHL1  H26A 1326   6.241   3.516   8.646  0.5186 -0.6496 -0.5779
   18CHL1  H26B 1327   6.403   3.538   8.715  1.3908 -1.2173  1.1725
   18CHL1  H26C 1328   6.301   3.405   8.780  1.9503  0.6855  1.7528
   18CHL1   C27 1329   6.284   3.752   8.791  0.3787  0.6038  0.5008
   18CHL1  H27A 1330   6.270   3.832   8.867  3.7198  0.2847  1.5261
   18CHL1  H27B 1331   6.378   3.762   8.731 -0.6187 -0.2868 -1.2612
   18CHL1  H27C 1332   6.208   3.775   8.713 -0.1583  2.3761  1.5310
   19CHL1    C3 1333   3.024   1.172   9.959  0.3177  0.0195 -0.2318
   19CHL1    H3 1334   3.042   1.074   9.909 -3.7946  0.4344 -2.7812
   19CHL1    O3 1335   3.010   1.145  10.098 -0.2297 -0.4336 -0.2539
   19CHL1   H3' 1336   3.056   1.221  10.134  0.0793  0.1891 -1.9519
   19CHL1    C4 1337   3.142   1.263   9.941  0.5251 -0.3167  0.0879
   19CHL1   H4A 1338   3.129   1.358   9.998 -2.4057 -0.1937 -0.6792
   19CHL1   H4B 1339   3.232   1.215   9.985 -0.5281 -2.0768  0.3483
   19CHL1    C5 1340   3.156   1.298   9.793  0.4100 -0.3450  0.5829
   19CHL1    C6 1341   3.272   1.273   9.720 -0.6515  0.3445 -0.1470
   19CHL1    H6 1342   3.361   1.231   9.769 -0.2145  2.1631  0.6794
   19CHL1    C7 1343   3.293   1.295   9.574  0.2673 -0.9281  0.4087
   19CHL1   H7A 1344   3.381   1.361   9.563 -1.3942  1.2200 -0.4925
   19CHL1   H7B 1345   3.308   1.205   9.510  1.9994 -0.7092  0.4929
   19CHL1    C8 1346   3.175   1.373   9.509 -0.1031 -0.2794  0.1813
   19CHL1    H8 1347   3.188   1.479   9.540  2.5042 -0.5270  0.1036
   19CHL1   C14 1348   3.174   1.371   9.360  0.3219  0.2992  0.4400
   19CHL1   H14 1349   3.141   1.268   9.334  1.3909 -0.4530  1.9817
   19CHL1   C15 1350   3.300   1.399   9.274 -1.1113 -1.3217 -0.1492
   19CHL1  H15A 1351   3.345   1.493   9.312 -1.2331 -1.5196  0.4905
   19CHL1  H15B 1352   3.370   1.313   9.268  0.3389 -0.1120 -0.7378
   19CHL1   C16 1353   3.250   1.444   9.137 -0.4738  0.0161 -0.1256
   19CHL1  H16A 1354   3.276   1.551   9.122 -0.5419  0.4101  2.3901
   19CHL1  H16B 1355   3.285   1.393   9.044 -1.8516  0.9125 -1.1512
   19CHL1   C17 1356   3.097   1.440   9.144 -0.0138  0.1268  0.6506
   19CHL1   H17 1357   3.067   1.337   9.116  2.0594  0.0149 -1.2703
   19CHL1   C13 1358   3.061   1.463   9.292 -0.4723 -0.9492 -0.0789
   19CHL1   C18 1359   3.060   1.616   9.334 -0.4731  0.0780 -0.3120
   19CHL1  H18A 1360   3.062   1.632   9.444 -0.7459 -0.8340 -0.1713
   19CHL1  H18B 1361   3.147   1.670   9.290  0.2265  1.1044  2.2292
   19CHL1  H18C 1362   2.980   1.672   9.281 -0.3597  0.1840 -0.3737
   19CHL1   C12 1363   2.936   1.400   9.338  0.3402  0.3366  0.6544
   19CHL1  H12A 1364   2.853   1.461   9.296  2.4852  3.0280  0.1742
   19CHL1  H12B 1365   2.918   1.297   9.303  0.4658  0.8722 -1.0384
   19CHL1   C11 1366   2.924   1.401   9.488  0.6780  0.1283  0.6445
   19CHL1  H11A 1367   2.913   1.507   9.519 -1.9551  0.3626 -0.8840
   19CHL1  H11B 1368   2.832   1.344   9.513 -0.3410  2.2094  1.8533
   19CHL1    C9 1369   3.038   1.338   9.562 -0.7303  0.1387  1.0113
   19CHL1    H9 1370   3.021   1.228   9.552  0.5102  0.0813 -0.8193
   19CHL1   C10 1371   3.026   1.353   9.718  0.1054  0.2354 -0.9347
   19CHL1   C19 1372   3.015   1.502   9.761 -0.1623  0.1948 -0.0047
   19CHL1  H19A 1373   2.925   1.551   9.718 -1.1351 -1.3750  0.2086
   19CHL1  H19B 1374   2.999   1.508   9.870  0.5585  0.7435  0.0766
   19CHL1  H19C 1375   3.111   1.555   9.739 -0.3330  0.1137 -0.9799
   19CHL1    C1 1376   2.904   1.261   9.754 -0.7390  0.3553 -0.1045
   19CHL1   H1A 1377   2.808   1.306   9.719 -0.2466  1.0594 -0.5694
   19CHL1   H1B 1378   2.918   1.160   9.711  1.6854  1.1020 -1.1497
   19CHL1    C2 1379   2.903   1.239   9.905  0.8631  0.5255 -0.1157
   19CHL1   H2A 1380   2.825   1.163   9.929  0.2148  0.4482 -2.3675
   19CHL1   H2B 1381   2.875   1.330   9.962  1.3264 -1.4223  3.3845
   19CHL1   C20 1382   3.036   1.542   9.044 -0.0878  1.4573  0.4111
   19CHL1   H20 1383   3.091   1.637   9.058  2.0382  0.7457 -2.5283
   19CHL1   C21 1384   2.886   1.578   9.051  0.5490  0.1338  0.5807
   19CHL1  H21A 1385   2.825   1.490   9.023  0.9828 -0.0124  0.0901
   19CHL1  H21B 1386   2.875   1.657   8.974  0.4064 -0.2375  0.2199
   19CHL1  H21C 1387   2.843   1.623   9.143 -0.5154  0.7362 -0.2090
   19CHL1   C22 1388   3.059   1.499   8.895 -0.5145  0.2929  0.5627
   19CHL1  H22A 1389   3.000   1.571   8.833 -1.3014  0.1318  1.1206
   19CHL1  H22B 1390   3.162   1.521   8.861 -0.9724  0.3082 -0.8444
   19CHL1   C23 1391   3.025   1.355   8.868 -0.4121 -0.2612 -0.7227
   19CHL1  H23A 1392   3.103   1.297   8.922 -0.9424 -0.0936  0.2280
   19CHL1  H23B 1393   2.921   1.332   8.900 -0.0901 -0.6905  0.0308
   19CHL1   C24 1394   3.025   1.318   8.717  0.1334 -0.2049 -0.0415
   19CHL1  H24A 1395   2.981   1.398   8.654 -0.7806 -0.3235  0.4332
   19CHL1  H24B 1396   3.128   1.302   8.679 -0.3361 -3.0892 -0.2268
   19CHL1   C25 1397   2.963   1.181   8.694 -0.0316 -0.2335 -0.0219
   19CHL1   H25 1398   3.016   1.112   8.763 -1.0103  1.5667  2.5744
   19CHL1   C26 1399   2.809   1.184   8.728 -0.1255 -0.4891  0.8823
   19CHL1  H26A 1400   2.762   1.269   8.674 -0.2908 -1.1460 -0.0156
   19CHL1  H26B 1401   2.762   1.090   8.693 -1.2601  0.5543 -0.4590
   19CHL1  H26C 1402   2.794   1.189   8.838  1.4204 -2.6984  1.2274
   19CHL1   C27 1403   2.983   1.127   8.556 -0.2634 -0.5587  0.4745
   19CHL1  H27A 1404   2.912   1.044   8.538  1.0791 -1.4897 -0.6141
   19CHL1  H27B 1405   2.975   1.207   8.480  2.8038  0.4309  1.1074
   19CHL1  H27C 1406   3.084   1.080   8.550 -0.1512 -0.1856 -0.8037
   20CHL1    C3 1407   5.311   0.997  10.315 -0.2543 -0.5832  0.0505
   20CHL1    H3 1408   5.243   1.084  10.327 -0.4786 -0.7315 -0.1736
   20CHL1    O3 1409   5.382   0.970  10.435  0.5797  0.0322  0.0689
   20CHL1   H3' 1410   5.324   0.917  10.491  1.0516  0.2932  0.8063
   20CHL1    C4 1411   5.248   0.867  10.263  0.5498  0.1091  0.1344
   20CHL1   H4A 1412   5.319   0.782  10.270  2.4731  1.6559 -0.1127
   20CHL1   H4B 1413   5.159   0.842  10.325  0.2797  0.9385  0.0874
   20CHL1    C5 1414   5.204   0.878  10.122  0.1828  1.2910 -0.0271
   20CHL1    C6 1415   5.076   0.843  10.082  0.2715 -0.1395  0.3288
   20CHL1    H6 1416   5.008   0.806  10.159 -2.2242  0.9849 -1.2864
   20CHL1    C7 1417   5.036   0.854   9.944 -0.3552 -0.1063  0.1939
   20CHL1   H7A 1418   4.950   0.786   9.927 -1.0863  0.4866  1.4334
   20CHL1   H7B 1419   4.986   0.953   9.943 -1.2882 -0.5528  1.2405
   20CHL1    C8 1420   5.146   0.865   9.834 -0.0828  0.0451 -0.3657
   20CHL1    H8 1421   5.190   0.763   9.831  0.5572  0.2619  1.4644
   20CHL1   C14 1422   5.089   0.908   9.709 -0.2866 -0.0352  0.7186
   20CHL1   H14 1423   5.064   1.015   9.721 -0.9171  0.3669 -3.3832
   20CHL1   C15 1424   4.963   0.847   9.654 -0.2128 -0.6326  0.3813
   20CHL1  H15A 1425   4.956   0.738   9.671  2.5210 -0.7644  0.7410
   20CHL1  H15B 1426   4.875   0.897   9.702 -0.3476  0.5476 -1.0473
   20CHL1   C16 1427   4.964   0.880   9.509 -0.7872 -0.0913  0.4598
   20CHL1  H16A 1428   4.977   0.795   9.438  1.4419  2.4279 -2.2998
   20CHL1  H16B 1429   4.866   0.925   9.481 -0.7530 -0.7576 -0.7870
   20CHL1   C17 1430   5.096   0.952   9.476  0.7210 -0.2271  0.2629
   20CHL1   H17 1431   5.063   1.057   9.488  1.0282 -0.0357 -0.4884
   20CHL1   C13 1432   5.192   0.911   9.587  0.4207 -0.2108  0.4567
   20CHL1   C18 1433   5.244   0.776   9.552 -0.3121  0.0153 -0.3119
   20CHL1  H18A 1434   5.156   0.710   9.542 -1.2220  1.2778 -0.7612
   20CHL1  H18B 1435   5.304   0.771   9.458 -1.1615  1.0891 -0.9194
   20CHL1  H18C 1436   5.297   0.737   9.641  1.3054  0.8800 -0.8688
   20CHL1   C12 1437   5.310   1.008   9.621 -0.1895 -0.0624 -0.0141
   20CHL1  H12A 1438   5.396   1.013   9.552  0.3294  2.8860  0.7644
   20CHL1  H12B 1439   5.268   1.111   9.633 -0.6096 -0.0241 -1.6384
   20CHL1   C11 1440   5.363   0.973   9.768 -0.6283  0.7632  0.5575
   20CHL1  H11A 1441   5.426   0.882   9.757  0.5037  1.6265 -0.2194
   20CHL1  H11B 1442   5.427   1.056   9.804 -0.6128  1.3024 -0.6825
   20CHL1    C9 1443   5.253   0.956   9.879  0.0710 -0.0966  0.4433
   20CHL1    H9 1444   5.204   1.055   9.887  1.2609  0.4442  1.2694
   20CHL1   C10 1445   5.311   0.931  10.017  0.4964 -0.1132 -0.2600
   20CHL1   C19 1446   5.416   0.812  10.006 -0.0279 -0.0921  0.6066
   20CHL1  H19A 1447   5.389   0.725   9.942  1.1549 -1.1908  1.5853
   20CHL1  H19B 1448   5.511   0.857   9.968  1.5433 -2.1542  1.9485
   20CHL1  H19C 1449   5.438   0.778  10.109 -1.3282  1.0173  1.2669
   20CHL1    C1 1450   5.384   1.058  10.061  0.2188 -0.3345  0.0729
   20CHL1   H1A 1451   5.475   1.073   9.999  0.3340 -0.6992  0.1489
   20CHL1   H1B 1452   5.323   1.150  10.050  0.6702  0.4352  3.5170
   20CHL1    C2 1453   5.422   1.051  10.214  0.6677  0.0604  0.4425
   20CHL1   H2A 1454   5.444   1.154  10.250 -0.1596  0.3820  0.0581
   20CHL1   H2B 1455   5.517   0.994  10.224  0.3957 -0.8403 -1.8119
   20CHL1   C20 1456   5.124   0.930   9.323 -0.3048  0.5727 -0.2560
   20CHL1   H20 1457   5.139   0.823   9.299  0.3596  0.2139  1.6431
   20CHL1   C21 1458   5.248   1.012   9.287 -0.0594 -0.2506 -0.5162
   20CHL1  H21A 1459   5.338   0.993   9.350  0.4544 -0.5494 -1.3347
   20CHL1  H21B 1460   5.219   1.118   9.306  2.6564  0.2973  0.8272
   20CHL1  H21C 1461   5.272   1.005   9.179 -1.2431  0.9314 -0.8810
   20CHL1   C22 1462   5.011   0.970   9.233  1.0238  0.0790  0.5192
   20CHL1  H22A 1463   4.925   0.899   9.240  0.6417  0.6423  1.8071
   20CHL1  H22B 1464   4.982   1.072   9.267 -0.2422 -0.3960  0.9261
   20CHL1   C23 1465   5.049   0.967   9.086 -0.0491  0.1517 -0.3259
   20CHL1  H23A 1466   5.124   1.040   9.050  0.1866  0.5609  0.9966
   20CHL1  H23B 1467   5.091   0.865   9.068 -0.6127  0.1860 -1.9778
   20CHL1   C24 1468   4.920   0.972   9.003  0.3037  0.6311  0.1385
   20CHL1  H24A 1469   4.852   0.889   9.032  1.4823 -1.0615 -1.7711
   20CHL1  H24B 1470   4.866   1.067   9.025 -0.7029  0.3378 -0.9720
   20CHL1   C25 1471   4.934   0.971   8.845 -0.9287  0.7763  0.2364
   20CHL1   H25 1472   5.036   1.008   8.821 -0.4782 -0.1294  0.7241
   20CHL1   C26 1473   4.922   0.831   8.789 -0.9223 -0.1655  0.0508
   20CHL1  H26A 1474   4.818   0.790   8.780 -2.0172  2.3193  1.0987
   20CHL1  H26B 1475   4.973   0.817   8.692 -0.3813 -1.2352  0.4778
   20CHL1  H26C 1476   4.965   0.762   8.864  1.0551  0.9630 -0.0283
   20CHL1   C27 1477   4.827   1.065   8.773  0.2808  0.0462 -0.1699
   20CHL1  H27A 1478   4.830   1.065   8.662  0.3650  1.7130 -0.1900
   20CHL1  H27B 1479   4.724   1.052   8.814  0.3360  1.3887  0.4345
   20CHL1  H27C 1480   4.861   1.169   8.794 -0.5733  0.4805 -0.9175
   21CHL1    C3 1481   5.249   4.256  10.184  0.2327  0.1703  1.1611
   21CHL1    H3 1482   5.289   4.358  10.166 -0.4736 -0.0650 -2.0709
   21CHL1    O3 1483   5.254   4.249  10.324  0.0056 -0.2308 -0.1758
   21CHL1   H3' 1484   5.267   4.338  10.357 -1.9742 -0.9911  2.7806
   21CHL1    C4 1485   5.105   4.240  10.134  0.8591  0.0592 -0.0201
   21CHL1   H4A 1486   5.074   4.140  10.172  0.5763 -0.0383 -0.5036
   21CHL1   H4B 1487   5.046   4.325  10.176 -0.4812 -0.4744 -0.7790
   21CHL1    C5 1488   5.100   4.253   9.984 -0.0724 -0.3933 -0.2621
   21CHL1    C6 1489   5.020   4.339   9.919  0.6951  0.8660 -0.1880
   21CHL1    H6 1490   4.957   4.404   9.982  2.9084  0.4977  2.5210
   21CHL1    C7 1491   4.998   4.344   9.776  1.2975  0.0459  0.4128
   21CHL1   H7A 1492   4.890   4.351   9.750  1.1415 -0.2419  0.9832
   21CHL1   H7B 1493   5.045   4.435   9.732 -1.2721  0.9388 -0.5870
   21CHL1    C8 1494   5.055   4.223   9.702  0.6961 -0.4679 -0.5125
   21CHL1    H8 1495   4.982   4.139   9.698  0.7939 -0.8545  3.7493
   21CHL1   C14 1496   5.070   4.263   9.558  0.0741  0.3156  0.4994
   21CHL1   H14 1497   5.143   4.348   9.562  0.1231  0.2794  0.3913
   21CHL1   C15 1498   4.964   4.327   9.478  0.0927  0.7363  0.2659
   21CHL1  H15A 1499   4.872   4.265   9.490  0.3734 -0.0790 -1.6156
   21CHL1  H15B 1500   4.936   4.431   9.504 -3.5117  0.7970 -3.4332
   21CHL1   C16 1501   5.017   4.324   9.337  0.0275  0.0497  0.3355
   21CHL1  H16A 1502   4.931   4.297   9.271 -0.1622 -1.2925  1.1232
   21CHL1  H16B 1503   5.052   4.424   9.303 -1.7891  0.4640 -0.3639
   21CHL1   C17 1504   5.139   4.225   9.331  0.5131 -0.0127 -0.0483
   21CHL1   H17 1505   5.222   4.296   9.351 -0.7349  1.0907  1.2874
   21CHL1   C13 1506   5.140   4.149   9.469  0.2795 -0.2244  0.2886
   21CHL1   C18 1507   5.047   4.020   9.455  0.2511  0.1335  0.8800
   21CHL1  H18A 1508   4.946   4.051   9.422 -0.0809 -0.6459  1.1522
   21CHL1  H18B 1509   5.098   3.945   9.391  0.0475  1.0224 -0.3264
   21CHL1  H18C 1510   5.025   3.965   9.549  2.3924 -0.2102  1.2167
   21CHL1   C12 1511   5.279   4.123   9.526 -0.4770  0.0428 -0.2458
   21CHL1  H12A 1512   5.337   4.051   9.465 -1.6415 -1.5518  0.5120
   21CHL1  H12B 1513   5.339   4.216   9.515  1.7238 -1.6285 -2.9298
   21CHL1   C11 1514   5.262   4.079   9.672  0.4840 -0.0311  0.0322
   21CHL1  H11A 1515   5.207   3.983   9.678  2.8337 -1.4089  0.3600
   21CHL1  H11B 1516   5.363   4.056   9.713 -0.1209  0.3319  1.7479
   21CHL1    C9 1517   5.195   4.181   9.758  0.6388  0.3123  0.4842
   21CHL1    H9 1518   5.260   4.270   9.744  2.1769 -1.1072 -1.7007
   21CHL1   C10 1519   5.196   4.152   9.912  0.1681  0.4169 -0.4064
   21CHL1   C19 1520   5.139   4.005   9.925 -0.5981  0.1504  0.0777
   21CHL1  H19A 1521   5.127   3.978  10.032 -0.8494  0.0429  0.0221
   21CHL1  H19B 1522   5.040   3.993   9.877  0.1570  0.3633 -1.5861
   21CHL1  H19C 1523   5.210   3.933   9.880  0.3131 -0.3406  2.2233
   21CHL1    C1 1524   5.336   4.158   9.964  0.5014  0.1047  0.2290
   21CHL1   H1A 1525   5.404   4.075   9.938  0.4284  0.9457 -2.8623
   21CHL1   H1B 1526   5.378   4.255   9.928 -1.1712  0.4551 -0.8615
   21CHL1    C2 1527   5.342   4.154  10.121  0.2722  0.1763  0.4244
   21CHL1   H2A 1528   5.444   4.182  10.154 -1.0459  4.7295  0.9667
   21CHL1   H2B 1529   5.308   4.053  10.153  0.6051 -0.2449 -0.5462
   21CHL1   C20 1530   5.163   4.143   9.197 -1.2526 -0.1216 -1.1729
   21CHL1   H20 1531   5.238   4.065   9.220 -3.7941 -1.8365  1.6827
   21CHL1   C21 1532   5.234   4.241   9.105 -0.5661  0.4106 -0.6238
   21CHL1  H21A 1533   5.284   4.185   9.023  0.9268 -0.7625  1.0382
   21CHL1  H21B 1534   5.316   4.303   9.148 -0.2536 -1.3357  1.3849
   21CHL1  H21C 1535   5.168   4.318   9.060 -1.2186  0.6959  0.7715
   21CHL1   C22 1536   5.047   4.064   9.135 -0.5699 -0.0145 -0.3689
   21CHL1  H22A 1537   4.981   4.023   9.214  0.7539 -1.7540 -0.1263
   21CHL1  H22B 1538   4.983   4.139   9.084  0.3146 -0.2040 -1.8050
   21CHL1   C23 1539   5.101   3.957   9.044  0.4561  0.1117 -0.3217
   21CHL1  H23A 1540   5.140   4.011   8.956  0.0542 -0.7681 -1.0404
   21CHL1  H23B 1541   5.183   3.898   9.090  2.0125  1.8632 -0.7622
   21CHL1   C24 1542   4.991   3.861   8.990 -0.6253 -0.0365  0.1196
   21CHL1  H24A 1543   5.029   3.775   8.931 -1.2988  0.6438 -1.3548
   21CHL1  H24B 1544   4.943   3.819   9.081 -1.0729  2.0494  0.8835
   21CHL1   C25 1545   4.881   3.923   8.901 -0.1724  0.6487  0.1045
   21CHL1   H25 1546   4.845   4.024   8.932 -0.8570  0.1783  0.8642
   21CHL1   C26 1547   4.939   3.948   8.763 -0.8599  0.6184 -0.5167
   21CHL1  H26A 1548   5.037   4.001   8.769 -0.3696 -0.3019 -0.3664
   21CHL1  H26B 1549   4.961   3.850   8.717 -0.8307 -0.2121  1.2481
   21CHL1  H26C 1550   4.878   4.009   8.693  1.1750 -0.4232 -3.2797
   21CHL1   C27 1551   4.773   3.813   8.887  0.2421 -0.2978  1.1453
   21CHL1  H27A 1552   4.810   3.722   8.834 -0.1552  1.3682 -2.1751
   21CHL1  H27B 1553   4.740   3.790   8.990 -0.2112  0.5849  1.2039
   21CHL1  H27C 1554   4.678   3.850   8.842 -0.0456 -2.2211  0.1243
   22CHL1    C3 1555   3.874   5.177   9.977 -0.2787 -0.4476 -0.0364
   22CHL1    H3 1556   3.977   5.173  10.018 -0.5436 -2.4455  0.4615
   22CHL1    O3 1557   3.776   5.197  10.080  0.4503  0.9411 -0.2049
   22CHL1   H3' 1558   3.766   5.289  10.105 -1.9117  0.6573 -0.0063
   22CHL1    C4 1559   3.859   5.297   9.873 -0.0827  0.9130  0.5905
   22CHL1   H4A 1560   3.751   5.301   9.850  0.1644  0.3241 -0.7326
   22CHL1   H4B 1561   3.885   5.399   9.908  0.8164  0.2671  1.8684
   22CHL1    C5 1562   3.933   5.276   9.750 -0.4729 -0.1574  0.6668
   22CHL1    C6 1563   4.031   5.364   9.708 -0.8893 -0.1156 -0.0192
   22CHL1    H6 1564   4.053   5.454   9.767  3.3671 -0.2912 -1.1543
   22CHL1    C7 1565   4.090   5.360   9.570 -0.6910  0.4360  0.0554
   22CHL1   H7A 1566   4.098   5.460   9.522  2.7581 -0.4274 -1.3852
   22CHL1   H7B 1567   4.194   5.327   9.594 -1.0429  1.5836  3.3940
   22CHL1    C8 1568   4.019   5.256   9.479 -0.5765 -0.4439  0.0708
   22CHL1    H8 1569   3.925   5.305   9.446 -0.2037 -1.5685 -2.7522
   22CHL1   C14 1570   4.110   5.235   9.355  0.1421 -0.8047  0.0028
   22CHL1   H14 1571   4.208   5.211   9.402 -0.9596  2.6647  4.4528
   22CHL1   C15 1572   4.146   5.354   9.258 -0.9798  0.2452 -0.0196
   22CHL1  H15A 1573   4.057   5.420   9.262 -4.2789 -4.1274  1.6754
   22CHL1  H15B 1574   4.238   5.401   9.299  1.7849 -2.5589 -2.7032
   22CHL1   C16 1575   4.192   5.290   9.129  1.0297 -0.1688 -0.2350
   22CHL1  H16A 1576   4.129   5.327   9.046  1.1736 -0.8044 -0.6333
   22CHL1  H16B 1577   4.299   5.299   9.099  0.6168  0.4585 -1.5426
   22CHL1   C17 1578   4.161   5.134   9.145 -0.3771  0.6876  0.1162
   22CHL1   H17 1579   4.258   5.089   9.177 -0.5650  0.0595 -0.1876
   22CHL1   C13 1580   4.062   5.124   9.259  0.3147 -0.2068  0.7423
   22CHL1   C18 1581   3.924   5.166   9.201  0.6377 -0.0344  0.0973
   22CHL1  H18A 1582   3.928   5.244   9.122 -3.2203 -1.0144 -1.1821
   22CHL1  H18B 1583   3.876   5.084   9.143 -1.4307  1.5561 -0.5236
   22CHL1  H18C 1584   3.849   5.201   9.275  1.3209  2.5868 -0.3902
   22CHL1   C12 1585   4.070   4.995   9.338  0.4447 -0.2843 -0.4003
   22CHL1  H12A 1586   4.042   4.915   9.267  2.6035  0.5457 -2.2548
   22CHL1  H12B 1587   4.170   4.980   9.383  0.4261  0.1831 -0.1953
   22CHL1   C11 1588   3.973   4.996   9.455  0.1561  0.1598 -0.2332
   22CHL1  H11A 1589   3.871   4.992   9.410  0.8957 -1.9317 -1.8364
   22CHL1  H11B 1590   3.979   4.897   9.506  0.7134  0.1283 -0.3544
   22CHL1    C9 1591   3.994   5.120   9.552 -0.3362 -0.1499 -0.5158
   22CHL1    H9 1592   4.092   5.097   9.599 -0.3855  1.0700  0.2156
   22CHL1   C10 1593   3.893   5.141   9.670 -0.5900  0.2808 -0.3539
   22CHL1   C19 1594   3.746   5.133   9.617  0.6601 -0.3206  0.1558
   22CHL1  H19A 1595   3.727   5.199   9.530 -3.3340 -0.7941  0.5928
   22CHL1  H19B 1596   3.717   5.033   9.577 -3.1229  1.3423 -1.4640
   22CHL1  H19C 1597   3.667   5.145   9.694  0.6584  1.3438 -0.1031
   22CHL1    C1 1598   3.917   5.027   9.779 -0.3698  0.0428  0.5914
   22CHL1   H1A 1599   3.885   4.941   9.716  0.4275  0.5775 -0.5476
   22CHL1   H1B 1600   4.025   5.024   9.804 -0.3249 -1.0165  0.2855
   22CHL1    C2 1601   3.833   5.045   9.903  0.0211 -0.3919  0.0205
   22CHL1   H2A 1602   3.845   4.966   9.979 -1.3037  0.6938  1.3845
   22CHL1   H2B 1603   3.725   5.045   9.877  0.0805 -0.7229 -0.2396
   22CHL1   C20 1604   4.139   5.068   9.011 -0.0213  0.5970 -0.4131
   22CHL1   H20 1605   4.049   5.113   8.964  0.3718  1.7516 -0.1005
   22CHL1   C21 1606   4.109   4.920   9.020  0.3403  0.0300 -0.2183
   22CHL1  H21A 1607   4.004   4.896   9.046  0.5359  1.3913  1.9881
   22CHL1  H21B 1608   4.191   4.868   9.075  0.2943 -0.2508 -0.4160
   22CHL1  H21C 1609   4.113   4.870   8.921 -1.1043 -1.6174  0.5257
   22CHL1   C22 1610   4.249   5.095   8.907 -0.5609  0.7851  0.1166
   22CHL1  H22A 1611   4.210   5.060   8.808  0.6031  1.0760 -0.4537
   22CHL1  H22B 1612   4.274   5.201   8.890 -5.0510  1.4193 -3.7183
   22CHL1   C23 1613   4.383   5.015   8.924 -0.0852  0.4723  0.4343
   22CHL1  H23A 1614   4.424   5.028   9.027  0.3534  1.5021  0.1334
   22CHL1  H23B 1615   4.356   4.908   8.915 -0.6609  0.5075  1.6486
   22CHL1   C24 1616   4.487   5.053   8.814  0.2604  0.3734  0.2567
   22CHL1  H24A 1617   4.446   5.025   8.715  1.0288  0.2491 -0.0320
   22CHL1  H24B 1618   4.509   5.161   8.826 -1.7274  0.9708 -1.2323
   22CHL1   C25 1619   4.625   4.985   8.827 -0.0539  0.1037  0.1423
   22CHL1   H25 1620   4.661   5.022   8.925 -3.4527  4.1617 -0.0099
   22CHL1   C26 1621   4.619   4.830   8.838 -0.4905 -0.0189 -0.1960
   22CHL1  H26A 1622   4.722   4.794   8.821 -0.6934 -0.4425 -0.5329
   22CHL1  H26B 1623   4.580   4.789   8.933 -1.2742  1.1842  0.0180
   22CHL1  H26C 1624   4.549   4.791   8.760  0.6948 -2.3526 -0.1367
   22CHL1   C27 1625   4.714   5.019   8.708  0.1188  0.0978 -0.1654
   22CHL1  H27A 1626   4.822   5.006   8.732  0.1167 -1.9906 -1.1343
   22CHL1  H27B 1627   4.688   4.958   8.619 -1.9305 -0.3739  0.7224
   22CHL1  H27C 1628   4.700   5.129   8.697  0.8256  0.2008 -0.0505
   23CHL1    C3 1629   0.960   0.650  10.327 -0.0409  0.4402 -0.3878
   23CHL1    H3 1630   1.052   0.706  10.300  1.4261 -1.6627  0.0728
   23CHL1    O3 1631   0.931   0.657  10.463 -0.5317 -0.5820  0.4068
   23CHL1   H3' 1632   0.950   0.747  10.490 -1.6836 -0.0036 -0.6490
   23CHL1    C4 1633   0.846   0.697  10.243  0.5792  0.1385  0.0151
   23CHL1   H4A 1634   0.759   0.641  10.283 -0.2811  0.5989 -1.1555
   23CHL1   H4B 1635   0.836   0.807  10.260  0.2273  0.2318 -0.7499
   23CHL1    C5 1636   0.863   0.685  10.092  0.8147 -0.7432 -0.1928
   23CHL1    C6 1637   0.858   0.788   9.997  0.0005  0.5386 -0.5529
   23CHL1    H6 1638   0.829   0.890  10.026 -1.0825  0.8904 -2.7422
   23CHL1    C7 1639   0.870   0.768   9.849 -0.0990 -0.3406  0.2716
   23CHL1   H7A 1640   0.801   0.833   9.791 -1.8147 -2.1012  0.3061
   23CHL1   H7B 1641   0.976   0.788   9.821 -0.4242  0.7255 -0.2263
   23CHL1    C8 1642   0.854   0.617   9.804  0.2791  0.1834 -0.4839
   23CHL1    H8 1643   0.750   0.584   9.821  1.3300 -2.0247  2.1432
   23CHL1   C14 1644   0.895   0.582   9.659 -0.6067  0.6894  0.6298
   23CHL1   H14 1645   1.000   0.613   9.638 -0.6477 -1.0012 -2.3923
   23CHL1   C15 1646   0.825   0.665   9.556 -0.2620 -0.3500  0.5717
   23CHL1  H15A 1647   0.715   0.663   9.572 -0.2379 -1.1305  0.6606
   23CHL1  H15B 1648   0.865   0.769   9.562  0.7847 -0.5817 -1.8113
   23CHL1   C16 1649   0.850   0.594   9.423 -0.1527  1.3778 -0.2721
   23CHL1  H16A 1650   0.755   0.578   9.367 -1.2406  3.4464  0.9172
   23CHL1  H16B 1651   0.920   0.658   9.366 -0.3180  3.2235  1.5316
   23CHL1   C17 1652   0.916   0.456   9.459 -0.8606  0.7430  0.1217
   23CHL1   H17 1653   1.026   0.472   9.452 -1.0292  1.8409 -0.0268
   23CHL1   C13 1654   0.889   0.434   9.610  0.7726  0.3374  0.8908
   23CHL1   C18 1655   0.755   0.368   9.627  1.0161  0.3528 -0.6454
   23CHL1  H18A 1656   0.766   0.261   9.598  0.3038 -0.6507  2.5563
   23CHL1  H18B 1657   0.713   0.374   9.730  0.5487  3.0128 -0.9690
   23CHL1  H18C 1658   0.678   0.415   9.562 -1.5635 -0.4618  1.7014
   23CHL1   C12 1659   0.991   0.363   9.698  0.2769  0.4668  0.4348
   23CHL1  H12A 1660   0.998   0.254   9.680 -2.0412  0.6655 -2.0887
   23CHL1  H12B 1661   1.092   0.408   9.687  0.6631 -0.7466 -1.0959
   23CHL1   C11 1662   0.965   0.383   9.850 -0.3497 -0.4397 -0.3909
   23CHL1  H11A 1663   0.887   0.308   9.874 -0.1309 -1.8084 -3.6814
   23CHL1  H11B 1664   1.054   0.348   9.906  0.2516  0.3825 -0.8204
   23CHL1    C9 1665   0.934   0.530   9.904  0.8259 -0.0161 -0.2132
   23CHL1    H9 1666   1.032   0.580   9.888 -0.1562  1.3661 -2.0694
   23CHL1   C10 1667   0.891   0.542  10.051 -0.2025  0.2618  0.0326
   23CHL1   C19 1668   0.756   0.460  10.060  0.3331 -0.1488 -0.7970
   23CHL1  H19A 1669   0.678   0.497   9.990  0.5340  1.8029 -0.0310
   23CHL1  H19B 1670   0.769   0.353  10.034  0.8866  0.0128 -1.2066
   23CHL1  H19C 1671   0.716   0.458  10.163  1.5993 -2.4815 -0.3210
   23CHL1    C1 1672   1.005   0.481  10.135 -0.4106  0.0694  0.8700
   23CHL1   H1A 1673   1.007   0.374  10.107 -1.4524 -0.0789  1.3397
   23CHL1   H1B 1674   1.096   0.533  10.098 -2.4723  1.4122 -2.5462
   23CHL1    C2 1675   0.987   0.504  10.286 -0.3341 -0.0820 -0.2090
   23CHL1   H2A 1676   1.077   0.471  10.341 -0.4316  0.0808  0.0473
   23CHL1   H2B 1677   0.905   0.435  10.313 -0.7982  0.4343 -0.2968
   23CHL1   C20 1678   0.879   0.342   9.363  0.7957 -0.4052  0.2287
   23CHL1   H20 1679   0.779   0.302   9.387  0.5233  0.5794  0.7833
   23CHL1   C21 1680   0.972   0.223   9.391 -0.7508 -0.4308  0.2752
   23CHL1  H21A 1681   1.071   0.274   9.386 -1.3256  0.8614  1.6250
   23CHL1  H21B 1682   0.956   0.142   9.317 -0.1000  0.9428 -1.4376
   23CHL1  H21C 1683   0.960   0.181   9.493 -0.9823  0.1091  0.4730
   23CHL1   C22 1684   0.874   0.376   9.211  0.5083  0.8009  0.2395
   23CHL1  H22A 1685   0.834   0.479   9.205 -1.0314  0.3693  2.3586
   23CHL1  H22B 1686   0.978   0.368   9.175  0.6889  3.3731  0.1374
   23CHL1   C23 1687   0.779   0.293   9.116  0.4862 -0.0847 -0.0150
   23CHL1  H23A 1688   0.806   0.185   9.127  1.5100  0.0745 -0.8048
   23CHL1  H23B 1689   0.674   0.315   9.144  0.7211 -0.8642  1.5797
   23CHL1   C24 1690   0.803   0.327   8.970 -0.4020 -0.2424 -0.1871
   23CHL1  H24A 1691   0.757   0.428   8.965  1.0135  0.7258  3.8428
   23CHL1  H24B 1692   0.913   0.332   8.953 -0.3069 -3.8500 -0.9309
   23CHL1   C25 1693   0.732   0.234   8.867 -0.7011 -0.0959  0.2742
   23CHL1   H25 1694   0.762   0.128   8.884 -3.0412 -0.8049  0.0702
   23CHL1   C26 1695   0.572   0.246   8.860  0.1918  0.3546  0.8242
   23CHL1  H26A 1696   0.523   0.174   8.791  0.6355 -0.5722  1.4666
   23CHL1  H26B 1697   0.532   0.221   8.961  0.9760  0.1265  1.0833
   23CHL1  H26C 1698   0.552   0.350   8.827  0.7547  0.1269 -0.2356
   23CHL1   C27 1699   0.777   0.257   8.719 -0.5251  0.0420 -0.1786
   23CHL1  H27A 1700   0.885   0.231   8.716 -0.5560 -0.9651  3.8128
   23CHL1  H27B 1701   0.720   0.197   8.645  0.8212 -1.8105  0.2621
   23CHL1  H27C 1702   0.766   0.363   8.689 -1.3052 -0.0087 -0.0680
   24CHL1    C3 1703   2.358   1.659  10.098  0.0636  0.1142 -0.4715
   24CHL1    H3 1704   2.282   1.578  10.091  1.7500 -1.6137  0.9235
   24CHL1    O3 1705   2.366   1.701  10.231  0.1543  0.1043 -0.2154
   24CHL1   H3' 1706   2.429   1.774  10.229 -0.0933  0.3269  0.2661
   24CHL1    C4 1707   2.483   1.594  10.036  0.2851  0.2693  0.3109
   24CHL1   H4A 1708   2.577   1.653  10.044  0.4412  0.4539 -2.2412
   24CHL1   H4B 1709   2.504   1.503  10.095 -0.5760 -1.1647 -1.5481
   24CHL1    C5 1710   2.473   1.561   9.887 -0.2902  0.7109 -0.4144
   24CHL1    C6 1711   2.496   1.438   9.843  0.6726 -1.0665 -0.9021
   24CHL1    H6 1712   2.525   1.360   9.914 -0.9433 -0.7860  0.0902
   24CHL1    C7 1713   2.485   1.386   9.701  0.1136 -0.3750 -0.2448
   24CHL1   H7A 1714   2.582   1.334   9.683  0.7550  0.8873 -0.5103
   24CHL1   H7B 1715   2.388   1.335   9.685  0.1069 -0.3172 -0.3879
   24CHL1    C8 1716   2.487   1.512   9.609  0.3195 -0.1280  0.1212
   24CHL1    H8 1717   2.592   1.547   9.607  0.2650  0.3473  3.0861
   24CHL1   C14 1718   2.454   1.467   9.466 -0.2417  0.2414  0.4826
   24CHL1   H14 1719   2.355   1.419   9.480  0.7047 -1.8056  0.4289
   24CHL1   C15 1720   2.536   1.351   9.410 -0.7776 -0.8737 -0.3450
   24CHL1  H15A 1721   2.643   1.361   9.439 -0.6638 -0.5535 -0.8605
   24CHL1  H15B 1722   2.503   1.254   9.452  1.2024 -0.7463  1.6224
   24CHL1   C16 1723   2.521   1.377   9.259 -0.0865  0.0460  0.9449
   24CHL1  H16A 1724   2.623   1.376   9.214 -1.1566 -1.7068 -1.5971
   24CHL1  H16B 1725   2.471   1.286   9.219 -0.7033  0.7060  0.2007
   24CHL1   C17 1726   2.437   1.505   9.229 -0.0251 -0.2360 -0.3406
   24CHL1   H17 1727   2.331   1.469   9.227 -0.4149  0.9002 -0.9920
   24CHL1   C13 1728   2.450   1.581   9.367 -0.4437  0.1008 -0.5820
   24CHL1   C18 1729   2.582   1.659   9.368 -0.3800  0.0744  0.5570
   24CHL1  H18A 1730   2.615   1.705   9.464  0.7584  0.2396  0.0902
   24CHL1  H18B 1731   2.664   1.584   9.357 -1.9100 -1.9287  2.2226
   24CHL1  H18C 1732   2.594   1.732   9.286  0.0873 -0.2268  0.3551
   24CHL1   C12 1733   2.339   1.685   9.407 -0.4791 -0.4270 -0.9663
   24CHL1  H12A 1734   2.326   1.772   9.339 -1.7876 -1.0595 -1.5290
   24CHL1  H12B 1735   2.240   1.639   9.424 -1.4485  2.6184  2.1073
   24CHL1   C11 1736   2.366   1.743   9.552  0.2710  0.9079 -0.5370
   24CHL1  H11A 1737   2.453   1.812   9.556  0.1130  0.9683  2.2626
   24CHL1  H11B 1738   2.277   1.794   9.594 -0.9510 -1.9604  0.5001
   24CHL1    C9 1739   2.390   1.628   9.659 -0.3989 -0.7985 -0.6604
   24CHL1    H9 1740   2.297   1.567   9.654 -0.2809 -0.8560 -2.7746
   24CHL1   C10 1741   2.419   1.676   9.802 -0.6952  0.6212 -0.1587
   24CHL1   C19 1742   2.546   1.769   9.781 -0.2446 -0.1841 -0.5350
   24CHL1  H19A 1743   2.598   1.783   9.878 -1.2235  1.1000 -0.1902
   24CHL1  H19B 1744   2.615   1.711   9.716  1.6185  0.8913  0.4439
   24CHL1  H19C 1745   2.511   1.864   9.735 -1.7339 -0.7636 -0.6183
   24CHL1    C1 1746   2.292   1.746   9.863 -0.9060  0.4393 -0.4966
   24CHL1   H1A 1747   2.274   1.840   9.806 -0.4388  1.2198  0.6255
   24CHL1   H1B 1748   2.200   1.688   9.837 -0.5486  0.3120 -1.4866
   24CHL1    C2 1749   2.306   1.778  10.015  0.2469  0.4701 -0.2364
   24CHL1   H2A 1750   2.206   1.813  10.049  0.2471  2.4599 -2.1227
   24CHL1   H2B 1751   2.377   1.863  10.026 -1.9341  2.2648  0.5163
   24CHL1   C20 1752   2.477   1.563   9.088 -0.4080 -0.4443 -0.9428
   24CHL1   H20 1753   2.581   1.603   9.095 -0.7685  0.0978  2.0335
   24CHL1   C21 1754   2.362   1.673   9.060  1.0087  0.6063  1.0315
   24CHL1  H21A 1755   2.362   1.712   8.956  2.5058 -0.1208  0.7445
   24CHL1  H21B 1756   2.381   1.764   9.121  0.8982 -1.4926  4.2953
   24CHL1  H21C 1757   2.263   1.635   9.093  0.2395  0.7315 -1.0117
   24CHL1   C22 1758   2.476   1.448   8.980  0.2089  0.0395  0.7911
   24CHL1  H22A 1759   2.561   1.379   9.000  0.0633 -0.6586 -0.8798
   24CHL1  H22B 1760   2.380   1.394   8.992  0.1050  0.5436  2.3542
   24CHL1   C23 1761   2.482   1.493   8.836 -0.2381  0.3492  0.0772
   24CHL1  H23A 1762   2.428   1.589   8.823 -0.6122  0.1207 -0.0500
   24CHL1  H23B 1763   2.587   1.522   8.816 -0.0998  0.3347  0.7551
   24CHL1   C24 1764   2.419   1.397   8.738  0.3820 -0.7254  0.2620
   24CHL1  H24A 1765   2.460   1.297   8.765  0.9526  0.0057  2.2128
   24CHL1  H24B 1766   2.310   1.387   8.755 -0.4012  1.0776 -3.3161
   24CHL1   C25 1767   2.438   1.438   8.592 -0.1774 -0.6431 -0.5992
   24CHL1   H25 1768   2.543   1.475   8.587 -0.4643 -0.1222 -3.3666
   24CHL1   C26 1769   2.424   1.317   8.496 -0.3640 -0.0076 -0.1071
   24CHL1  H26A 1770   2.352   1.250   8.549  1.1925 -2.6697 -1.2588
   24CHL1  H26B 1771   2.366   1.334   8.402  0.3817  1.0137 -0.3840
   24CHL1  H26C 1772   2.521   1.266   8.481  0.1531  0.2792  2.1670
   24CHL1   C27 1773   2.342   1.549   8.546 -0.0334  0.4034 -0.0191
   24CHL1  H27A 1774   2.234   1.531   8.565 -0.4010 -0.1050 -2.4515
   24CHL1  H27B 1775   2.372   1.644   8.596 -2.4691  1.2869 -0.1735
   24CHL1  H27C 1776   2.346   1.575   8.438 -0.8075  0.4398 -0.0391
   25CHL1    C3 1777   4.537   2.300  10.323 -0.4315  0.7800 -0.3538
   25CHL1    H3 1778   4.642   2.268  10.310 -0.4222  0.4607  0.4807
   25CHL1    O3 1779   4.501   2.305  10.459  0.3564  0.0825  0.3260
   25CHL1   H3' 1780   4.573   2.348  10.505  0.2813  0.1089  0.4159
   25CHL1    C4 1781   4.516   2.439  10.266  0.5733 -0.0777  0.2213
   25CHL1   H4A 1782   4.411   2.469  10.282  0.6043 -0.9914  2.4374
   25CHL1   H4B 1783   4.581   2.510  10.323 -2.0214  1.5739  1.1864
   25CHL1    C5 1784   4.540   2.432  10.118 -0.1713  0.6183 -0.2904
   25CHL1    C6 1785   4.630   2.499  10.050  0.7220  0.7727 -0.8646
   25CHL1    H6 1786   4.694   2.573  10.101 -1.1063  2.2168 -0.6238
   25CHL1    C7 1787   4.650   2.499   9.903  0.0809 -0.0592 -0.6156
   25CHL1   H7A 1788   4.668   2.605   9.875 -0.6442  1.2976  3.6951
   25CHL1   H7B 1789   4.740   2.436   9.887  1.6378  1.8272  0.5962
   25CHL1    C8 1790   4.531   2.434   9.826 -0.7012  0.0076 -0.1252
   25CHL1    H8 1791   4.451   2.511   9.830 -1.2147 -0.5555  0.8706
   25CHL1   C14 1792   4.575   2.392   9.687  0.1566 -0.2800  0.4378
   25CHL1   H14 1793   4.658   2.320   9.698  0.8760  0.3689 -0.6398
   25CHL1   C15 1794   4.636   2.509   9.603 -0.1427 -0.2426  0.2630
   25CHL1  H15A 1795   4.577   2.602   9.617 -0.0888 -0.0531 -0.7255
   25CHL1  H15B 1796   4.738   2.521   9.646 -0.1599 -2.9205  1.1439
   25CHL1   C16 1797   4.635   2.461   9.463 -0.2504  0.3700 -0.3170
   25CHL1  H16A 1798   4.583   2.543   9.408  0.4148  0.3893 -0.9101
   25CHL1  H16B 1799   4.739   2.433   9.437 -0.0493  0.6206  0.2037
   25CHL1   C17 1800   4.548   2.331   9.457 -0.9701 -0.5776 -0.2931
   25CHL1   H17 1801   4.620   2.248   9.473  1.6510  1.5870 -0.4117
   25CHL1   C13 1802   4.471   2.334   9.592  0.3471 -0.0176 -0.3111
   25CHL1   C18 1803   4.348   2.420   9.576  1.4449  0.7088  0.2452
   25CHL1  H18A 1804   4.263   2.368   9.527  1.8992 -0.2533  0.4852
   25CHL1  H18B 1805   4.319   2.448   9.680  1.4789 -1.9526  0.9922
   25CHL1  H18C 1806   4.370   2.515   9.522  2.7637  0.0092 -0.4607
   25CHL1   C12 1807   4.437   2.203   9.662  0.2794 -0.1706 -0.2384
   25CHL1  H12A 1808   4.373   2.132   9.605 -1.9098 -0.0346  1.9334
   25CHL1  H12B 1809   4.532   2.149   9.678  0.9426  0.9172 -0.4946
   25CHL1   C11 1810   4.388   2.222   9.806 -0.6730 -0.2768 -0.4488
   25CHL1  H11A 1811   4.287   2.267   9.795 -0.2039  0.4543 -1.9542
   25CHL1  H11B 1812   4.383   2.121   9.850 -0.4361 -0.6911 -1.3650
   25CHL1    C9 1813   4.483   2.308   9.896 -0.3508  0.0747  0.4130
   25CHL1    H9 1814   4.577   2.250   9.911 -0.1603  0.5784  1.1715
   25CHL1   C10 1815   4.444   2.332  10.047 -0.8882 -0.1661  1.0774
   25CHL1   C19 1816   4.302   2.393  10.052 -0.2320 -0.3141  0.0966
   25CHL1  H19A 1817   4.226   2.329  10.002  0.1329 -0.1991 -0.6170
   25CHL1  H19B 1818   4.261   2.405  10.154  1.9959 -3.2633  1.3874
   25CHL1  H19C 1819   4.309   2.490   9.997 -0.4892 -0.3920 -0.0760
   25CHL1    C1 1820   4.453   2.192  10.114  0.4676 -0.2182 -0.1816
   25CHL1   H1A 1821   4.362   2.136  10.086  0.1430 -0.5383  1.4899
   25CHL1   H1B 1822   4.545   2.140  10.080  0.0883 -1.2857  0.4055
   25CHL1    C2 1823   4.445   2.190  10.263  0.0217 -0.7237  0.6587
   25CHL1   H2A 1824   4.480   2.097  10.313  0.0235 -0.1879  1.6651
   25CHL1   H2B 1825   4.342   2.212  10.296  0.6709  3.7341  0.0425
   25CHL1   C20 1826   4.467   2.314   9.325 -0.1147 -0.8122  0.5206
   25CHL1   H20 1827   4.396   2.399   9.330  1.6904  0.7460 -0.0735
   25CHL1   C21 1828   4.389   2.183   9.332 -0.0930 -0.2057 -0.0175
   25CHL1  H21A 1829   4.458   2.096   9.329  0.3180 -0.1481  4.4177
   25CHL1  H21B 1830   4.317   2.171   9.248  1.6238 -2.7402 -1.1758
   25CHL1  H21C 1831   4.334   2.174   9.428  0.1073 -1.1716  0.0087
   25CHL1   C22 1832   4.531   2.338   9.191 -0.2400 -0.7081 -0.3774
   25CHL1  H22A 1833   4.457   2.322   9.110 -0.9827  1.6568 -0.2119
   25CHL1  H22B 1834   4.569   2.442   9.174 -1.7533 -0.5838 -3.2564
   25CHL1   C23 1835   4.652   2.246   9.158  0.3521 -0.1361  0.3224
   25CHL1  H23A 1836   4.730   2.263   9.235  0.1728 -3.6375  1.3585
   25CHL1  H23B 1837   4.624   2.138   9.158  0.0937 -0.0802 -1.6721
   25CHL1   C24 1838   4.695   2.277   9.014  0.1127  0.1656  0.8982
   25CHL1  H24A 1839   4.613   2.250   8.944 -0.7187 -0.0313  1.9259
   25CHL1  H24B 1840   4.715   2.386   9.004  1.5179  0.0086  1.9091
   25CHL1   C25 1841   4.831   2.205   8.989  0.0670  0.0062 -0.2688
   25CHL1   H25 1842   4.910   2.235   9.062 -1.2069 -0.9054  1.5473
   25CHL1   C26 1843   4.815   2.051   9.007  0.8134 -0.1181  0.0422
   25CHL1  H26A 1844   4.817   2.022   9.114  0.1627  0.9543  0.3562
   25CHL1  H26B 1845   4.714   2.023   8.969  1.5310 -0.4895 -1.5971
   25CHL1  H26C 1846   4.892   1.987   8.960  1.2674  0.1236  0.4616
   25CHL1   C27 1847   4.866   2.248   8.845  0.0600 -0.3441  0.4194
   25CHL1  H27A 1848   4.951   2.191   8.800  0.3676  0.1816  0.3315
   25CHL1  H27B 1849   4.788   2.235   8.767 -1.0034 -2.7918  1.8566
   25CHL1  H27C 1850   4.896   2.355   8.847  0.9019 -0.5465 -0.7862
   26CHL1    C3 1851   4.305   4.893  10.355  0.0662  0.3141 -0.3446
   26CHL1    H3 1852   4.386   4.817  10.349  0.1137  0.1454  1.9625
   26CHL1    O3 1853   4.242   4.869  10.480  0.7553  0.4194  0.3626
   26CHL1   H3' 1854   4.272   4.780  10.496  1.7390  0.8325  0.8709
   26CHL1    C4 1855   4.371   5.027  10.342  0.1534 -0.5795  0.3514
   26CHL1   H4A 1856   4.300   5.111  10.351  1.0818  0.2973 -0.4602
   26CHL1   H4B 1857   4.442   5.038  10.427 -2.6923 -1.0075  2.8947
   26CHL1    C5 1858   4.440   5.044  10.214  0.1717  0.3997 -0.5880
   26CHL1    C6 1859   4.569   5.087  10.202  0.3897  0.7365  0.0976
   26CHL1    H6 1860   4.631   5.119  10.287  0.5644 -2.3646  1.2105
   26CHL1    C7 1861   4.627   5.114  10.066 -0.2067 -0.3570  0.3599
   26CHL1   H7A 1862   4.673   5.214  10.080 -0.0763 -0.6013  1.8213
   26CHL1   H7B 1863   4.709   5.042  10.045  0.8053  0.8548  0.1095
   26CHL1    C8 1864   4.532   5.114   9.954 -0.4150 -0.4815 -0.4240
   26CHL1    H8 1865   4.478   5.210   9.953 -1.0111 -0.7992  0.5568
   26CHL1   C14 1866   4.612   5.104   9.825 -0.2551  0.5247  0.4922
   26CHL1   H14 1867   4.669   5.009   9.831  2.8880  2.4586  2.4355
   26CHL1   C15 1868   4.718   5.216   9.808 -0.0421  0.3466 -0.7393
   26CHL1  H15A 1869   4.672   5.314   9.833  1.0671  0.8482 -0.6166
   26CHL1  H15B 1870   4.805   5.201   9.875 -1.4055 -2.0298  0.5329
   26CHL1   C16 1871   4.744   5.203   9.653  0.3142 -0.0508  0.1494
   26CHL1  H16A 1872   4.710   5.300   9.611  0.3589 -0.0348  0.1489
   26CHL1  H16B 1873   4.848   5.181   9.620 -0.2115  0.2328 -1.7891
   26CHL1   C17 1874   4.643   5.102   9.593  0.1055 -0.0136 -0.1242
   26CHL1   H17 1875   4.685   5.000   9.609 -1.7441 -0.7977 -0.0673
   26CHL1   C13 1876   4.527   5.099   9.692 -0.1543 -0.5344 -0.2368
   26CHL1   C18 1877   4.451   5.235   9.680 -0.5617  0.1826 -0.2012
   26CHL1  H18A 1878   4.514   5.326   9.681  1.3692 -1.0780 -2.2393
   26CHL1  H18B 1879   4.382   5.236   9.593 -2.1232  0.4299  1.0008
   26CHL1  H18C 1880   4.387   5.243   9.771  0.9542 -2.9928  1.2108
   26CHL1   C12 1881   4.428   4.984   9.697 -0.2858 -0.1750  0.8437
   26CHL1  H12A 1882   4.360   5.008   9.612  0.1467 -4.9986 -1.0170
   26CHL1  H12B 1883   4.473   4.883   9.688  0.3638  0.2328 -0.7837
   26CHL1   C11 1884   4.343   4.981   9.831  0.6888 -0.9856  0.9278
   26CHL1  H11A 1885   4.271   5.063   9.809  2.8193 -0.0819 -3.4446
   26CHL1  H11B 1886   4.298   4.880   9.836 -0.0555 -0.8530 -1.8343
   26CHL1    C9 1887   4.429   5.004   9.961  0.3139 -0.1944 -0.0953
   26CHL1    H9 1888   4.491   4.912   9.973  1.7361  0.5732 -1.3611
   26CHL1   C10 1889   4.346   5.021  10.093  0.4429  0.0603  0.7504
   26CHL1   C19 1890   4.247   5.143  10.085  0.4805  0.0539 -0.8038
   26CHL1  H19A 1891   4.293   5.242  10.063  0.2330  0.0683 -1.2717
   26CHL1  H19B 1892   4.169   5.108  10.014 -0.2426 -4.8802  2.2218
   26CHL1  H19C 1893   4.201   5.156  10.185  3.0087 -0.2868  0.4345
   26CHL1    C1 1894   4.268   4.889  10.109 -0.0711 -0.7946  0.3268
   26CHL1   H1A 1895   4.195   4.867  10.028 -0.9376  2.3966  0.1892
   26CHL1   H1B 1896   4.341   4.805  10.110  2.0471  1.0010  0.2460
   26CHL1    C2 1897   4.201   4.874  10.244  0.2147 -0.2032 -0.2603
   26CHL1   H2A 1898   4.158   4.772  10.252  1.1012 -0.7068 -1.8368
   26CHL1   H2B 1899   4.119   4.947  10.258  0.0622 -0.2483 -0.9305
   26CHL1   C20 1900   4.611   5.120   9.443  0.3448  0.5486  1.0594
   26CHL1   H20 1901   4.547   5.211   9.445  1.0967  1.0794  0.9304
   26CHL1   C21 1902   4.518   5.009   9.389 -0.0144 -1.0272 -0.0979
   26CHL1  H21A 1903   4.451   5.054   9.313 -0.5528 -0.4103  0.7340
   26CHL1  H21B 1904   4.462   4.948   9.462  2.5506 -1.2705  1.7463
   26CHL1  H21C 1905   4.585   4.934   9.340  1.7544  0.6348 -0.2699
   26CHL1   C22 1906   4.735   5.148   9.353 -0.1661  0.3073 -0.4272
   26CHL1  H22A 1907   4.797   5.232   9.391  0.9599 -0.5631 -0.3109
   26CHL1  H22B 1908   4.799   5.058   9.347  1.7010  1.6218 -0.8721
   26CHL1   C23 1909   4.694   5.187   9.213  0.2615 -0.1600  0.3135
   26CHL1  H23A 1910   4.782   5.177   9.147 -0.6307 -0.0253 -0.9148
   26CHL1  H23B 1911   4.631   5.105   9.172  0.2128  1.6550 -3.4753
   26CHL1   C24 1912   4.619   5.314   9.199  0.4629  0.1257 -0.4486
   26CHL1  H24A 1913   4.515   5.309   9.240 -0.3248 -0.4514 -2.4699
   26CHL1  H24B 1914   4.674   5.397   9.249 -1.5027  1.4967 -0.4627
   26CHL1   C25 1915   4.601   5.354   9.049 -0.2303 -0.1500 -0.2198
   26CHL1   H25 1916   4.547   5.270   9.000  1.9707 -1.5172 -0.3706
   26CHL1   C26 1917   4.516   5.482   9.018  0.0986  0.2247  0.4858
   26CHL1  H26A 1918   4.509   5.490   8.908  1.9479  2.0489  0.4794
   26CHL1  H26B 1919   4.419   5.479   9.072  1.1857  2.4394  2.6808
   26CHL1  H26C 1920   4.575   5.566   9.060  1.3859 -0.8522  0.8689
   26CHL1   C27 1921   4.738   5.373   8.974  0.0128  0.0920  0.3445
   26CHL1  H27A 1922   4.786   5.274   8.985 -0.8695 -0.3948 -0.1566
   26CHL1  H27B 1923   4.731   5.400   8.867  1.8014  0.4813  0.3150
   26CHL1  H27C 1924   4.801   5.450   9.023  0.0003  0.0303  0.4578
   27CHL1    C3 1925   4.956   1.995  10.297 -0.6370  0.7310  0.0583
   27CHL1    H3 1926   5.002   2.096  10.294 -0.3968  0.6352  0.4660
   27CHL1    O3 1927   4.902   1.969  10.428  0.1633 -0.3698  0.0200
   27CHL1   H3' 1928   4.858   1.885  10.417 -1.3745  0.2667  1.1376
   27CHL1    C4 1929   4.844   1.988  10.197  0.2258 -0.2642  0.4414
   27CHL1   H4A 1930   4.800   1.887  10.215 -0.7630  0.3245  1.3568
   27CHL1   H4B 1931   4.759   2.056  10.221 -1.5621 -2.4170  0.3687
   27CHL1    C5 1932   4.893   2.012  10.057 -0.4871 -0.7100 -0.4635
   27CHL1    C6 1933   4.839   2.110   9.987 -0.0229 -0.4578 -0.1185
   27CHL1    H6 1934   4.760   2.174  10.028 -0.6794 -0.3422 -1.5622
   27CHL1    C7 1935   4.881   2.135   9.842 -0.2754 -0.6111  0.5009
   27CHL1   H7A 1936   4.792   2.149   9.778  1.6519  2.0045 -1.7644
   27CHL1   H7B 1937   4.941   2.228   9.830  0.3372 -1.0004  0.4803
   27CHL1    C8 1938   4.951   2.010   9.790  0.4320 -0.8359 -0.3334
   27CHL1    H8 1939   4.869   1.935   9.779 -1.6057  1.2129  0.4803
   27CHL1   C14 1940   5.015   2.051   9.655  0.8403 -0.1527  0.5809
   27CHL1   H14 1941   5.085   2.135   9.668 -0.3486  0.5204  2.7058
   27CHL1   C15 1942   4.910   2.100   9.554  0.3094 -0.6073 -0.7659
   27CHL1  H15A 1943   4.812   2.050   9.566 -0.7514  1.5822 -0.1241
   27CHL1  H15B 1944   4.880   2.207   9.562  3.0069  0.1389 -0.1776
   27CHL1   C16 1945   4.984   2.085   9.422  0.2610 -0.3893 -0.0840
   27CHL1  H16A 1946   4.912   2.042   9.350  0.3460 -0.8876  0.1236
   27CHL1  H16B 1947   5.008   2.181   9.372  0.3298 -0.8707 -0.9827
   27CHL1   C17 1948   5.117   2.011   9.446 -0.0391 -0.5334 -0.1638
   27CHL1   H17 1949   5.198   2.084   9.463  0.8872 -1.1514 -1.8526
   27CHL1   C13 1950   5.090   1.943   9.581  0.4829  0.4175  0.5331
   27CHL1   C18 1951   5.011   1.814   9.551 -0.1407 -0.0874  0.0265
   27CHL1  H18A 1952   4.921   1.826   9.486 -1.4115 -3.7000  1.0046
   27CHL1  H18B 1953   5.078   1.735   9.512  0.6745 -0.1383  1.4919
   27CHL1  H18C 1954   4.981   1.764   9.645  1.1335  0.3954  0.6970
   27CHL1   C12 1955   5.210   1.916   9.672 -0.3372  0.2753 -0.0901
   27CHL1  H12A 1956   5.269   1.832   9.630  0.8910  2.9335 -4.0570
   27CHL1  H12B 1957   5.272   2.008   9.680 -2.3339  1.6359  0.3098
   27CHL1   C11 1958   5.173   1.873   9.817  1.0331 -0.5032  0.4985
   27CHL1  H11A 1959   5.114   1.779   9.811 -0.6264  0.4492  1.4652
   27CHL1  H11B 1960   5.268   1.868   9.874  1.9149  1.0093 -0.8090
   27CHL1    C9 1961   5.056   1.969   9.883  0.1346  0.4033 -0.4954
   27CHL1    H9 1962   5.114   2.062   9.902  0.2606  0.4748 -1.2190
   27CHL1   C10 1963   5.000   1.918  10.016  0.3831  0.2469 -0.1928
   27CHL1   C19 1964   4.952   1.767  10.012  0.1436  0.2159 -0.1743
   27CHL1  H19A 1965   4.885   1.761   9.924 -0.1433  1.9264 -0.0791
   27CHL1  H19B 1966   5.037   1.699   9.989  0.0788 -0.3468  1.1710
   27CHL1  H19C 1967   4.905   1.730  10.106  1.8428 -1.0538  0.2012
   27CHL1    C1 1968   5.109   1.920  10.115  0.0435  0.1719  0.5477
   27CHL1   H1A 1969   5.190   1.846  10.095 -0.6455 -0.0205 -1.6003
   27CHL1   H1B 1970   5.156   2.020  10.100  0.0918  0.1037  0.2363
   27CHL1    C2 1971   5.075   1.902  10.263 -0.2907  0.4937 -0.8240
   27CHL1   H2A 1972   5.169   1.929  10.315 -0.6403  1.3160 -0.6150
   27CHL1   H2B 1973   5.051   1.793  10.270  0.4223  0.3248 -1.0209
   27CHL1   C20 1974   5.167   1.928   9.324  0.0923  0.6011 -0.0337
   27CHL1   H20 1975   5.106   1.837   9.304  2.0937 -0.2252 -2.4981
   27CHL1   C21 1976   5.309   1.871   9.374  1.2238  0.2874  0.1318
   27CHL1  H21A 1977   5.371   1.952   9.418 -0.5652  0.7478  1.8483
   27CHL1  H21B 1978   5.357   1.829   9.283 -2.0536  0.0804 -1.5728
   27CHL1  H21C 1979   5.297   1.780   9.437  2.7938  1.2199  1.8161
   27CHL1   C22 1980   5.170   2.013   9.197 -0.1699 -0.3504  0.1626
   27CHL1  H22A 1981   5.066   2.046   9.178 -1.2263 -1.5966  3.5728
   27CHL1  H22B 1982   5.238   2.101   9.209 -1.0322  0.2740  0.5278
   27CHL1   C23 1983   5.227   1.942   9.070 -0.2340 -0.5021  0.3058
   27CHL1  H23A 1984   5.336   1.924   9.081  0.1816  2.2188  1.0607
   27CHL1  H23B 1985   5.175   1.844   9.075  0.1361 -0.7795 -1.1862
   27CHL1   C24 1986   5.207   2.018   8.933 -0.0604 -0.1020 -0.6030
   27CHL1  H24A 1987   5.098   2.037   8.931 -0.0050  0.1380 -1.4236
   27CHL1  H24B 1988   5.254   2.118   8.946 -0.8102  0.0706  0.8562
   27CHL1   C25 1989   5.264   1.950   8.805  0.1322 -0.3762  0.0228
   27CHL1   H25 1990   5.227   1.845   8.805 -0.2030 -0.2766 -2.3700
   27CHL1   C26 1991   5.224   2.022   8.675  0.1392 -0.1459  0.2947
   27CHL1  H26A 1992   5.115   2.030   8.695  0.3342  0.6824  1.0920
   27CHL1  H26B 1993   5.271   2.123   8.675 -1.3826  0.5909  0.8057
   27CHL1  H26C 1994   5.254   1.973   8.580 -2.0594 -2.2895  0.6405
   27CHL1   C27 1995   5.410   1.949   8.806 -0.3302 -0.0777  0.2529
   27CHL1  H27A 1996   5.461   1.923   8.711  2.2630  2.9722  0.7471
   27CHL1  H27B 1997   5.452   2.050   8.825  0.6208  0.0012 -2.0264
   27CHL1  H27C 1998   5.448   1.868   8.872 -0.9405  0.5103  1.3430
   28CHL1    C3 1999   3.555   1.083  10.102 -0.1201 -0.7662  0.0291
   28CHL1    H3 2000   3.451   1.090  10.066 -0.4967  1.5266  1.5213
   28CHL1    O3 2001   3.566   1.035  10.235 -0.5054  0.1981  0.5068
   28CHL1   H3' 2002   3.658   1.053  10.254 -0.3182  0.9304 -0.9888
   28CHL1    C4 2003   3.645   0.991  10.018  0.7507 -0.7611  0.2632
   28CHL1   H4A 2004   3.748   0.984  10.058  1.1294 -1.7863 -0.8535
   28CHL1   H4B 2005   3.606   0.887  10.029  1.0714 -1.0535 -1.2345
   28CHL1    C5 2006   3.647   1.040   9.873  0.2540 -0.3039 -0.3934
   28CHL1    C6 2007   3.610   0.966   9.772 -1.1697  0.0629  0.1989
   28CHL1    H6 2008   3.583   0.862   9.793 -0.1347 -0.1508  0.5018
   28CHL1    C7 2009   3.618   1.010   9.627  0.3275  0.4930  0.1977
   28CHL1   H7A 2010   3.653   0.932   9.556  0.2059  0.6095  0.0091
   28CHL1   H7B 2011   3.517   1.033   9.587  1.3922  3.4620 -0.8440
   28CHL1    C8 2012   3.700   1.140   9.605 -0.2696 -0.5493 -0.1212
   28CHL1    H8 2013   3.806   1.109   9.615  0.3302  1.2554 -0.6930
   28CHL1   C14 2014   3.681   1.191   9.462  0.4704 -0.3535 -0.5248
   28CHL1   H14 2015   3.571   1.209   9.466 -0.1151 -3.8473  1.0931
   28CHL1   C15 2016   3.700   1.096   9.340 -0.1002 -0.3523  0.5182
   28CHL1  H15A 2017   3.785   1.024   9.342  0.0232 -0.2582 -1.2422
   28CHL1  H15B 2018   3.605   1.039   9.329 -0.2396  0.2480 -1.5400
   28CHL1   C16 2019   3.716   1.197   9.222  0.7958 -0.7484  0.2276
   28CHL1  H16A 2020   3.806   1.181   9.160 -1.3109 -0.0757 -3.1445
   28CHL1  H16B 2021   3.628   1.187   9.155 -1.4222 -0.5670  3.0089
   28CHL1   C17 2022   3.719   1.340   9.278 -0.1611  0.4599  0.0839
   28CHL1   H17 2023   3.612   1.367   9.287 -0.1864  0.5680 -0.5313
   28CHL1   C13 2024   3.755   1.325   9.429  0.1524 -0.2495 -0.6497
   28CHL1   C18 2025   3.908   1.301   9.437  0.0915 -1.2011 -0.5411
   28CHL1  H18A 2026   3.945   1.241   9.352  0.1726 -3.6273  1.1812
   28CHL1  H18B 2027   3.959   1.400   9.429  1.6441 -1.8935  0.7308
   28CHL1  H18C 2028   3.948   1.257   9.530  1.1395  3.1445  1.2200
   28CHL1   C12 2029   3.723   1.432   9.528 -0.6473 -0.3096  0.8663
   28CHL1  H12A 2030   3.784   1.521   9.504 -0.2950 -0.2774  1.8466
   28CHL1  H12B 2031   3.616   1.462   9.522 -0.0532  1.6733 -0.2516
   28CHL1   C11 2032   3.746   1.378   9.677 -0.0263  0.3331  0.1885
   28CHL1  H11A 2033   3.856   1.369   9.688 -0.1501 -0.6285  0.7217
   28CHL1  H11B 2034   3.714   1.452   9.754  0.1581 -0.3715  0.9488
   28CHL1    C9 2035   3.675   1.243   9.711  0.6940  0.0041  0.6618
   28CHL1    H9 2036   3.568   1.272   9.698  0.9975  1.6035  1.6951
   28CHL1   C10 2037   3.686   1.192   9.860 -0.7041 -0.1044  0.1197
   28CHL1   C19 2038   3.835   1.203   9.889 -0.4000  0.7001 -0.1571
   28CHL1  H19A 2039   3.866   1.310   9.887 -0.5366  0.7224 -1.8513
   28CHL1  H19B 2040   3.870   1.145   9.977  0.5396  0.3288 -0.7751
   28CHL1  H19C 2041   3.899   1.159   9.810  1.2036 -0.4161  1.7117
   28CHL1    C1 2042   3.614   1.283   9.955 -0.1123  0.2427  0.4090
   28CHL1   H1A 2043   3.656   1.386   9.951 -0.1248  0.3310  2.1255
   28CHL1   H1B 2044   3.509   1.291   9.922  0.6205  2.3385 -1.5616
   28CHL1    C2 2045   3.608   1.229  10.102  0.4824 -0.1712 -0.2444
   28CHL1   H2A 2046   3.535   1.294  10.156 -0.1220 -2.2666  1.5430
   28CHL1   H2B 2047   3.701   1.224  10.163  0.3754 -2.7911 -0.2535
   28CHL1   C20 2048   3.788   1.448   9.195 -0.0521  0.0422  0.6571
   28CHL1   H20 2049   3.808   1.536   9.260  0.0728  1.4649 -1.2538
   28CHL1   C21 2050   3.683   1.509   9.100  0.1937  0.2424 -0.6611
   28CHL1  H21A 2051   3.710   1.609   9.061 -0.5863  0.7843  0.1512
   28CHL1  H21B 2052   3.590   1.523   9.160  2.3730  0.0494  2.8902
   28CHL1  H21C 2053   3.666   1.447   9.010  1.1050 -1.6889  0.4628
   28CHL1   C22 2054   3.911   1.412   9.111 -0.1460  0.6546 -0.4779
   28CHL1  H22A 2055   3.973   1.342   9.170  0.5582  0.8513 -0.9794
   28CHL1  H22B 2056   3.877   1.349   9.026 -0.4770 -2.4385  1.8495
   28CHL1   C23 2057   4.005   1.533   9.066 -0.1111  0.4759  0.0665
   28CHL1  H23A 2058   3.955   1.631   9.083 -0.5506 -0.1423  2.4363
   28CHL1  H23B 2059   4.105   1.524   9.115 -0.3236 -0.6529  0.2975
   28CHL1   C24 2060   4.034   1.521   8.921  0.2377 -0.3075  0.7396
   28CHL1  H24A 2061   4.069   1.417   8.906  0.6573  0.0333 -0.6732
   28CHL1  H24B 2062   3.942   1.541   8.863  1.1598  1.3790 -0.1739
   28CHL1   C25 2063   4.138   1.620   8.852  0.3123 -0.3830 -0.4095
   28CHL1   H25 2064   4.239   1.599   8.893  0.5298  1.3438 -0.0181
   28CHL1   C26 2065   4.148   1.597   8.700  0.1564  0.2705 -0.1462
   28CHL1  H26A 2066   4.175   1.492   8.676 -1.9838  0.1414 -2.1255
   28CHL1  H26B 2067   4.052   1.613   8.646 -1.3751 -0.7637  2.1888
   28CHL1  H26C 2068   4.240   1.650   8.667  0.7131  0.2114  1.2802
   28CHL1   C27 2069   4.105   1.769   8.870  0.6455 -0.3650 -0.0847
   28CHL1  H27A 2070   4.080   1.791   8.976  3.3384  2.8038 -0.0586
   28CHL1  H27B 2071   4.192   1.832   8.844 -0.0358  0.6557  0.0828
   28CHL1  H27C 2072   4.019   1.801   8.807 -0.0729  1.0574  1.5664
   29CHL1    C3 2073   5.009   5.888   6.621 -0.6027 -0.1577 -0.3821
   29CHL1    H3 2074   4.950   5.807   6.669 -2.3968  1.2221 -0.1868
   29CHL1    O3 2075   4.951   5.887   6.494 -0.2888 -0.2248 -0.0694
   29CHL1   H3' 2076   4.866   5.847   6.510  0.2431 -1.6774 -0.7473
   29CHL1    C4 2077   4.963   6.021   6.687  0.1074 -0.1183 -0.9568
   29CHL1   H4A 2078   4.995   6.109   6.626 -1.7985  1.2538 -0.0248
   29CHL1   H4B 2079   4.852   6.021   6.689  0.1078 -1.8917  2.1161
   29CHL1    C5 2080   5.029   6.044   6.822  0.6944 -0.2320  0.1629
   29CHL1    C6 2081   4.957   6.080   6.927  0.7590  0.1108 -0.0671
   29CHL1    H6 2082   4.849   6.102   6.923 -0.0852 -2.7336  3.6268
   29CHL1    C7 2083   5.007   6.113   7.066 -0.1370 -0.8915 -0.7293
   29CHL1   H7A 2084   4.962   6.209   7.097 -1.2858 -1.4116 -0.7666
   29CHL1   H7B 2085   4.971   6.034   7.135  0.3196  0.0093  0.5549
   29CHL1    C8 2086   5.163   6.127   7.062  0.6879  0.7137 -0.1012
   29CHL1    H8 2087   5.176   6.227   7.016 -0.7041 -0.2686 -2.7049
   29CHL1   C14 2088   5.218   6.121   7.204  0.3823 -0.1557  0.3459
   29CHL1   H14 2089   5.196   6.021   7.249 -0.6327  0.4957  1.3152
   29CHL1   C15 2090   5.161   6.216   7.313  0.0747 -0.5551 -0.5727
   29CHL1  H15A 2091   5.163   6.319   7.270 -1.1588 -1.4093 -2.7427
   29CHL1  H15B 2092   5.062   6.181   7.347  0.6621  0.0491  1.8608
   29CHL1   C16 2093   5.255   6.200   7.428  0.7965 -0.2227 -0.3459
   29CHL1  H16A 2094   5.285   6.303   7.454 -0.0006 -0.4826  1.7736
   29CHL1  H16B 2095   5.219   6.160   7.526  0.8478  1.6902  0.4741
   29CHL1   C17 2096   5.383   6.139   7.374 -0.2007  0.3948  0.1496
   29CHL1   H17 2097   5.381   6.032   7.403 -2.1749 -0.2006 -2.0750
   29CHL1   C13 2098   5.368   6.134   7.213  0.9344 -0.3147 -0.5044
   29CHL1   C18 2099   5.400   6.275   7.166  0.2922 -0.9004  0.0046
   29CHL1  H18A 2100   5.361   6.352   7.235 -1.0450 -0.0867 -1.5987
   29CHL1  H18B 2101   5.510   6.287   7.161  0.3262 -1.1191  0.2098
   29CHL1  H18C 2102   5.370   6.288   7.059  0.2674 -0.3273  0.0822
   29CHL1   C12 2103   5.439   6.033   7.133 -0.3781  0.1598 -0.4846
   29CHL1  H12A 2104   5.549   6.046   7.135 -0.4112  0.3899  0.1085
   29CHL1  H12B 2105   5.417   5.936   7.183 -0.2472  1.6328  2.5900
   29CHL1   C11 2106   5.388   6.021   6.987  0.4649 -0.0488 -0.0835
   29CHL1  H11A 2107   5.431   6.110   6.938  1.8809 -0.1038  1.0264
   29CHL1  H11B 2108   5.422   5.931   6.931  0.4059  0.7713 -1.4508
   29CHL1    C9 2109   5.234   6.024   6.972 -0.2360 -0.3791  0.5483
   29CHL1    H9 2110   5.207   5.930   7.025  0.9436 -2.2349 -1.9635
   29CHL1   C10 2111   5.180   6.018   6.825 -1.0504  0.0389 -0.3028
   29CHL1   C19 2112   5.250   6.134   6.743 -0.5030  0.6226  0.2939
   29CHL1  H19A 2113   5.360   6.116   6.753 -0.7193  0.6552  3.0060
   29CHL1  H19B 2114   5.227   6.132   6.634 -2.4196  0.5733  0.6862
   29CHL1  H19C 2115   5.216   6.230   6.788  0.4157  1.0819  0.0178
   29CHL1    C1 2116   5.223   5.884   6.751  0.4124 -0.2180  0.7854
   29CHL1   H1A 2117   5.331   5.880   6.727  0.1240  0.8408 -0.8011
   29CHL1   H1B 2118   5.203   5.797   6.817  4.4396 -0.7303  1.4568
   29CHL1    C2 2119   5.158   5.852   6.614 -0.4106 -0.7033  0.1496
   29CHL1   H2A 2120   5.177   5.749   6.578 -0.0254 -0.2185 -1.0509
   29CHL1   H2B 2121   5.216   5.919   6.547  0.2736  1.1480  2.4929
   29CHL1   C20 2122   5.510   6.211   7.435 -0.7452 -0.2101 -0.6395
   29CHL1   H20 2123   5.505   6.310   7.385 -0.6519 -0.9257 -2.0771
   29CHL1   C21 2124   5.638   6.141   7.375 -0.3907  0.1899 -0.3750
   29CHL1  H21A 2125   5.677   6.177   7.278  1.7734 -0.6126  0.1881
   29CHL1  H21B 2126   5.629   6.031   7.368 -0.4976  0.2415 -1.1480
   29CHL1  H21C 2127   5.721   6.171   7.442 -0.4420  1.8067 -1.0080
   29CHL1   C22 2128   5.509   6.222   7.586  0.3776 -0.5017  0.0860
   29CHL1  H22A 2129   5.420   6.274   7.627  0.0297 -0.9720 -0.0741
   29CHL1  H22B 2130   5.509   6.117   7.621  2.5792 -0.0241  1.6959
   29CHL1   C23 2131   5.626   6.299   7.650 -1.1807  0.3302  0.1728
   29CHL1  H23A 2132   5.718   6.236   7.651  0.7759  3.0508 -1.5188
   29CHL1  H23B 2133   5.656   6.393   7.600 -0.7910  1.3660  2.2839
   29CHL1   C24 2134   5.600   6.322   7.797  0.3112 -0.3282  0.3760
   29CHL1  H24A 2135   5.684   6.389   7.825  0.7287 -0.4487 -0.5645
   29CHL1  H24B 2136   5.502   6.373   7.807  0.6110  0.1764  0.7583
   29CHL1   C25 2137   5.585   6.202   7.889  0.6820  0.7126 -0.2844
   29CHL1   H25 2138   5.498   6.147   7.847 -0.6123  1.8164  0.9325
   29CHL1   C26 2139   5.703   6.105   7.899 -0.1853  1.1209 -0.0529
   29CHL1  H26A 2140   5.683   6.033   7.981  1.5634  0.2861 -0.3337
   29CHL1  H26B 2141   5.721   6.043   7.808 -1.1976  0.5690  0.1170
   29CHL1  H26C 2142   5.793   6.165   7.924  1.1390 -0.8306  0.0134
   29CHL1   C27 2143   5.550   6.250   8.029 -0.0893 -0.2801  0.9556
   29CHL1  H27A 2144   5.521   6.159   8.086  1.7004 -2.2087 -1.1044
   29CHL1  H27B 2145   5.627   6.304   8.089 -0.0944  1.2061 -0.3506
   29CHL1  H27C 2146   5.466   6.322   8.026  0.0449 -0.1735 -2.7406
   30CHL1    C3 2147   3.506   5.065   7.281 -0.2643 -0.3294 -0.0680
   30CHL1    H3 2148   3.594   4.998   7.275 -1.0109 -1.2248 -1.2324
   30CHL1    O3 2149   3.440   5.072   7.151 -0.3921  0.8401 -0.2990
   30CHL1   H3' 2150   3.497   5.124   7.093  0.1572  1.6511  0.9444
   30CHL1    C4 2151   3.412   5.003   7.378 -0.1687  0.8312  0.1963
   30CHL1   H4A 2152   3.317   5.062   7.371 -0.3290  0.4794 -0.6185
   30CHL1   H4B 2153   3.394   4.899   7.345 -0.1172  1.8564 -3.2305
   30CHL1    C5 2154   3.472   5.007   7.522 -0.0755  0.9080 -0.0341
   30CHL1    C6 2155   3.494   4.898   7.596 -0.8743 -0.1140 -0.3359
   30CHL1    H6 2156   3.465   4.797   7.562 -3.8236  0.6156 -0.0953
   30CHL1    C7 2157   3.554   4.901   7.731  0.3948  0.1812  0.0708
   30CHL1   H7A 2158   3.511   4.822   7.796  0.3546 -0.4255 -0.6761
   30CHL1   H7B 2159   3.663   4.879   7.732  0.4096  0.2213 -0.6304
   30CHL1    C8 2160   3.528   5.037   7.799  0.2192  0.4442  0.8785
   30CHL1    H8 2161   3.417   5.039   7.809 -0.1669 -1.6204 -2.2649
   30CHL1   C14 2162   3.601   5.038   7.933 -0.0849 -0.2962  0.8806
   30CHL1   H14 2163   3.708   5.022   7.906 -0.7905 -1.1944 -1.5757
   30CHL1   C15 2164   3.558   4.930   8.034  0.6359 -0.1069 -0.4275
   30CHL1  H15A 2165   3.448   4.943   8.048  0.4041  0.0083 -2.1868
   30CHL1  H15B 2166   3.584   4.824   8.015  0.7518 -0.1395 -0.0840
   30CHL1   C16 2167   3.631   4.967   8.161  0.3889  0.4160  0.1074
   30CHL1  H16A 2168   3.563   4.938   8.243  0.3466  1.2440  0.3617
   30CHL1  H16B 2169   3.715   4.895   8.171 -1.6593 -2.3533 -1.5582
   30CHL1   C17 2170   3.669   5.120   8.142  0.1022  0.4143 -0.9297
   30CHL1   H17 2171   3.777   5.122   8.116  0.1570  1.8500 -0.6634
   30CHL1   C13 2172   3.593   5.164   8.009  0.5085 -0.4010 -0.6460
   30CHL1   C18 2173   3.449   5.204   8.036  0.3474  0.0978 -0.6501
   30CHL1  H18A 2174   3.411   5.140   8.118  0.2724  0.4992 -0.3714
   30CHL1  H18B 2175   3.437   5.309   8.068 -0.4212  0.9502 -3.5602
   30CHL1  H18C 2176   3.392   5.198   7.940  1.6128 -0.1184 -1.3944
   30CHL1   C12 2177   3.663   5.275   7.925 -0.1799  0.0218  1.0202
   30CHL1  H12A 2178   3.641   5.367   7.983 -0.4175  2.1850 -2.3488
   30CHL1  H12B 2179   3.771   5.260   7.908 -0.3535  0.0879 -0.1810
   30CHL1   C11 2180   3.600   5.291   7.781 -0.9616  0.7929  0.1463
   30CHL1  H11A 2181   3.502   5.342   7.793  0.2427  3.3108 -0.1983
   30CHL1  H11B 2182   3.662   5.361   7.721  1.2068 -1.4478 -0.3088
   30CHL1    C9 2183   3.577   5.151   7.710 -0.0303 -0.1072 -0.1952
   30CHL1    H9 2184   3.684   5.128   7.690 -0.1903 -0.2491 -0.8892
   30CHL1   C10 2185   3.501   5.147   7.577  0.2072  0.0995 -0.3590
   30CHL1   C19 2186   3.375   5.236   7.584 -0.1425  0.5789 -0.1455
   30CHL1  H19A 2187   3.320   5.189   7.669  1.1956  0.3777  0.6221
   30CHL1  H19B 2188   3.394   5.341   7.613  1.4588  0.2249  0.1233
   30CHL1  H19C 2189   3.319   5.234   7.488 -1.4992 -0.2774  0.6435
   30CHL1    C1 2190   3.601   5.205   7.471 -0.3590  0.2286  1.0177
   30CHL1   H1A 2191   3.617   5.314   7.490  2.6280  0.2014 -0.9495
   30CHL1   H1B 2192   3.699   5.153   7.477  0.6363  1.9874  0.3291
   30CHL1    C2 2193   3.549   5.203   7.321  0.1910 -0.3829 -0.1740
   30CHL1   H2A 2194   3.629   5.243   7.255 -0.2367  0.8563  0.0414
   30CHL1   H2B 2195   3.462   5.272   7.315  1.1904  0.9147 -0.0259
   30CHL1   C20 2196   3.647   5.197   8.264  0.0100  0.1735 -0.1373
   30CHL1   H20 2197   3.545   5.207   8.308  0.2626 -1.3041  0.8039
   30CHL1   C21 2198   3.696   5.345   8.248  0.0418  0.5752 -0.1764
   30CHL1  H21A 2199   3.638   5.398   8.169  1.1901  1.1626 -0.6352
   30CHL1  H21B 2200   3.806   5.356   8.236  0.0760 -0.0275 -0.4618
   30CHL1  H21C 2201   3.670   5.398   8.342 -0.5186 -0.0983  0.0491
   30CHL1   C22 2202   3.713   5.130   8.387  1.0355  0.1706  0.8795
   30CHL1  H22A 2203   3.664   5.031   8.404 -0.8056  0.5910 -1.6362
   30CHL1  H22B 2204   3.821   5.117   8.366  0.8820 -0.0018  0.1791
   30CHL1   C23 2205   3.699   5.209   8.512 -0.2236  0.4468 -0.2264
   30CHL1  H23A 2206   3.759   5.302   8.505 -0.2183  0.6242  1.9791
   30CHL1  H23B 2207   3.592   5.233   8.531 -0.2864 -2.0237  2.8887
   30CHL1   C24 2208   3.747   5.144   8.649 -0.5693 -1.0045  0.0061
   30CHL1  H24A 2209   3.690   5.049   8.658 -0.3581 -1.4125 -2.5875
   30CHL1  H24B 2210   3.855   5.120   8.650 -0.6544 -1.4179 -0.5686
   30CHL1   C25 2211   3.715   5.227   8.772  0.6405 -0.4832 -0.4715
   30CHL1   H25 2212   3.614   5.272   8.759 -0.1064 -0.9939  3.0496
   30CHL1   C26 2213   3.729   5.132   8.896 -0.2380  0.6068  0.9896
   30CHL1  H26A 2214   3.839   5.117   8.894 -0.3933 -0.5222  0.0521
   30CHL1  H26B 2215   3.704   5.184   8.990 -0.1623  0.4460  1.0984
   30CHL1  H26C 2216   3.671   5.040   8.871  1.3774  0.2792 -1.8298
   30CHL1   C27 2217   3.809   5.350   8.786  0.0916  0.9313  0.0751
   30CHL1  H27A 2218   3.791   5.394   8.887 -2.8731 -2.4779  1.1368
   30CHL1  H27B 2219   3.914   5.315   8.779 -0.7379 -1.5682 -0.4868
   30CHL1  H27C 2220   3.789   5.426   8.708  0.4892  0.4317 -0.5137
   31CHL1    C3 2221   3.665   0.478   6.724  0.5540 -0.0835 -0.0452
   31CHL1    H3 2222   3.763   0.432   6.749  0.7804  1.0684  1.2810
   31CHL1    O3 2223   3.648   0.500   6.585 -0.0404 -0.1275  0.1211
   31CHL1   H3' 2224   3.554   0.520   6.577  0.7374  3.0590 -2.3188
   31CHL1    C4 2225   3.569   0.372   6.769 -0.5339 -0.1101  0.2348
   31CHL1   H4A 2226   3.468   0.386   6.726  0.2221  0.6345 -1.3246
   31CHL1   H4B 2227   3.592   0.276   6.718 -1.4353  0.7898 -1.9147
   31CHL1    C5 2228   3.564   0.344   6.920 -0.4317 -0.3219 -0.7726
   31CHL1    C6 2229   3.565   0.220   6.973  0.1462  0.3254 -0.8570
   31CHL1    H6 2230   3.563   0.128   6.913  0.8257 -0.1866 -0.1113
   31CHL1    C7 2231   3.559   0.186   7.119 -0.1296 -1.0721  0.3984
   31CHL1   H7A 2232   3.504   0.096   7.155 -1.2888 -0.0151  1.3363
   31CHL1   H7B 2233   3.665   0.189   7.155  0.2324  0.6580 -0.7376
   31CHL1    C8 2234   3.511   0.307   7.200  0.1266 -0.5648 -0.2787
   31CHL1    H8 2235   3.401   0.318   7.186  0.1891  0.0122 -0.3274
   31CHL1   C14 2236   3.539   0.290   7.349 -0.4206 -0.4175  0.2569
   31CHL1   H14 2237   3.650   0.284   7.350 -0.2721  1.5526 -0.6904
   31CHL1   C15 2238   3.483   0.163   7.412 -0.2934  0.0515 -0.3313
   31CHL1  H15A 2239   3.378   0.153   7.375 -0.3674  1.2234 -0.4563
   31CHL1  H15B 2240   3.544   0.074   7.384 -1.4905 -1.1546  0.7880
   31CHL1   C16 2241   3.488   0.191   7.567  0.1199 -0.3752 -0.7523
   31CHL1  H16A 2242   3.382   0.178   7.596 -0.0665  2.8538  0.2081
   31CHL1  H16B 2243   3.546   0.112   7.618  0.6338  0.0707 -0.6445
   31CHL1   C17 2244   3.541   0.335   7.580 -0.1490 -0.1758 -0.4949
   31CHL1   H17 2245   3.651   0.322   7.579 -0.2132 -0.9599  0.8364
   31CHL1   C13 2246   3.507   0.407   7.447  0.0040 -0.1883 -0.0291
   31CHL1   C18 2247   3.358   0.439   7.444 -0.5711 -0.5742  0.6882
   31CHL1  H18A 2248   3.309   0.471   7.350 -1.7495 -1.1376  1.0974
   31CHL1  H18B 2249   3.296   0.356   7.484 -2.5875  0.1378 -0.9120
   31CHL1  H18C 2250   3.342   0.518   7.522  0.6689 -0.0904  0.4729
   31CHL1   C12 2251   3.587   0.532   7.398 -0.8244 -0.2458 -0.8071
   31CHL1  H12A 2252   3.558   0.617   7.464 -0.6619  0.7401 -1.9811
   31CHL1  H12B 2253   3.692   0.501   7.419 -1.1714 -1.0251 -0.2266
   31CHL1   C11 2254   3.566   0.561   7.249 -0.4001  0.1812  0.8911
   31CHL1  H11A 2255   3.461   0.595   7.245 -1.1498 -2.0358  1.0473
   31CHL1  H11B 2256   3.629   0.647   7.220 -0.2951 -1.2118 -3.3206
   31CHL1    C9 2257   3.575   0.436   7.152 -0.1000  0.6381 -0.5665
   31CHL1    H9 2258   3.682   0.409   7.160  0.4069  1.8531 -2.9105
   31CHL1   C10 2259   3.549   0.473   7.008  0.4434  0.1474 -0.6326
   31CHL1   C19 2260   3.400   0.508   7.001  0.7507  0.1823  0.2379
   31CHL1  H19A 2261   3.386   0.608   7.048 -0.6784  0.4473 -0.7212
   31CHL1  H19B 2262   3.364   0.539   6.900  0.6178  2.6727  1.0033
   31CHL1  H19C 2263   3.325   0.436   7.040 -0.6945  1.2560 -0.4772
   31CHL1    C1 2264   3.651   0.580   6.960 -0.3974  0.1862 -1.1024
   31CHL1   H1A 2265   3.615   0.672   7.011 -1.5889 -0.3201 -1.0192
   31CHL1   H1B 2266   3.755   0.557   6.992 -0.4451  1.3796 -0.0333
   31CHL1    C2 2267   3.642   0.601   6.809 -0.2254  0.3044  0.2245
   31CHL1   H2A 2268   3.706   0.682   6.768  1.5499 -1.5139 -0.6846
   31CHL1   H2B 2269   3.533   0.617   6.798 -0.3253  0.1168  0.9268
   31CHL1   C20 2270   3.490   0.406   7.711  0.2250 -1.0588 -0.1388
   31CHL1   H20 2271   3.380   0.410   7.700  0.3830 -0.7436 -1.6931
   31CHL1   C21 2272   3.536   0.553   7.732 -0.6094 -1.1020 -0.0516
   31CHL1  H21A 2273   3.645   0.548   7.712 -0.4909 -1.3385  0.6331
   31CHL1  H21B 2274   3.500   0.591   7.831 -2.5112 -0.5486 -0.9224
   31CHL1  H21C 2275   3.494   0.627   7.660  0.2505 -1.2209 -0.6839
   31CHL1   C22 2276   3.519   0.334   7.843 -0.0933  0.0430  0.0847
   31CHL1  H22A 2277   3.513   0.225   7.826  1.1396 -0.0393  0.1150
   31CHL1  H22B 2278   3.618   0.356   7.888 -1.2137  2.0579  1.6564
   31CHL1   C23 2279   3.422   0.370   7.957  0.1861 -0.2831 -0.2275
   31CHL1  H23A 2280   3.418   0.477   7.987  0.0898  0.1921 -1.8802
   31CHL1  H23B 2281   3.321   0.344   7.919  0.1330 -0.4370  0.0109
   31CHL1   C24 2282   3.425   0.286   8.086  0.4900 -0.4450  0.4587
   31CHL1  H24A 2283   3.447   0.179   8.066  0.9730 -0.0374 -1.3027
   31CHL1  H24B 2284   3.500   0.335   8.151  0.4786 -2.5622  2.0808
   31CHL1   C25 2285   3.284   0.282   8.164 -0.7805 -0.1762 -0.2630
   31CHL1   H25 2286   3.213   0.235   8.093 -1.7809 -1.1411  1.3566
   31CHL1   C26 2287   3.282   0.190   8.288 -0.6639 -0.3954 -1.0461
   31CHL1  H26A 2288   3.354   0.218   8.368 -4.3163 -1.5872  2.8227
   31CHL1  H26B 2289   3.184   0.207   8.337  0.1376 -0.9276  0.7898
   31CHL1  H26C 2290   3.282   0.081   8.268  0.9312 -1.0281  2.0731
   31CHL1   C27 2291   3.231   0.428   8.195  0.3166  0.1598  0.9779
   31CHL1  H27A 2292   3.230   0.481   8.098  1.3144 -4.7650 -1.9042
   31CHL1  H27B 2293   3.302   0.468   8.270 -1.0869 -0.1677  2.5189
   31CHL1  H27C 2294   3.132   0.416   8.245 -0.6144  0.4847 -0.7612
   32CHL1    C3 2295   4.033   5.150   6.929 -1.0061 -0.3784  0.2745
   32CHL1    H3 2296   4.053   5.041   6.929 -0.2819 -0.2731  2.1827
   32CHL1    O3 2297   3.999   5.186   6.795  0.3862 -0.2558  0.0373
   32CHL1   H3' 2298   3.906   5.207   6.795  0.7999  1.5907  0.2659
   32CHL1    C4 2299   3.910   5.176   7.015  0.5899 -0.9427 -0.5781
   32CHL1   H4A 2300   3.882   5.284   7.009  0.9250 -0.8132  0.1467
   32CHL1   H4B 2301   3.824   5.117   6.976 -1.2286  2.4284 -1.9211
   32CHL1    C5 2302   3.945   5.118   7.153  0.1308  0.0856 -1.3837
   32CHL1    C6 2303   3.862   5.030   7.217  0.0536 -0.0075  0.1102
   32CHL1    H6 2304   3.769   4.997   7.167 -0.3818 -1.2081  1.6695
   32CHL1    C7 2305   3.894   4.962   7.347  0.3302 -0.2484  0.9694
   32CHL1   H7A 2306   3.804   4.933   7.405  0.3889  0.9594  1.6666
   32CHL1   H7B 2307   3.947   4.867   7.324  0.0891 -0.1112 -0.1841
   32CHL1    C8 2308   3.983   5.057   7.424 -1.2937 -0.0329 -0.1683
   32CHL1    H8 2309   3.931   5.147   7.464 -1.1799 -0.8421  1.8573
   32CHL1   C14 2310   4.027   4.976   7.549 -0.1190 -0.3093  0.3249
   32CHL1   H14 2311   4.090   4.891   7.513 -0.2408 -0.9780  1.6681
   32CHL1   C15 2312   3.915   4.917   7.636 -0.1001  0.8323  0.1039
   32CHL1  H15A 2313   3.822   4.974   7.659 -0.3177  2.0006 -3.3211
   32CHL1  H15B 2314   3.878   4.817   7.603  1.3445  0.7621 -1.3690
   32CHL1   C16 2315   3.996   4.887   7.769 -0.3652  0.4374 -0.3221
   32CHL1  H16A 2316   3.949   4.955   7.844 -2.0530  0.5701 -1.4937
   32CHL1  H16B 2317   3.987   4.787   7.816  1.3374  0.0849 -0.6967
   32CHL1   C17 2318   4.142   4.940   7.761  0.2273  0.4037  0.7286
   32CHL1   H17 2319   4.203   4.862   7.710  0.8410  1.1613  0.2842
   32CHL1   C13 2320   4.123   5.045   7.645 -0.0997  0.1603 -0.3034
   32CHL1   C18 2321   4.071   5.170   7.708  0.2336 -0.5341 -0.6166
   32CHL1  H18A 2322   4.148   5.235   7.755  0.8251 -3.5547  2.8074
   32CHL1  H18B 2323   4.006   5.229   7.640 -0.3033  1.6152  1.6806
   32CHL1  H18C 2324   4.005   5.154   7.796  0.0121  0.3629 -0.6178
   32CHL1   C12 2325   4.249   5.088   7.560  0.6523  0.4343 -0.2863
   32CHL1  H12A 2326   4.321   5.140   7.626 -1.8180  1.6360  1.5765
   32CHL1  H12B 2327   4.294   4.998   7.514  1.0211  0.3964  0.1384
   32CHL1   C11 2328   4.216   5.176   7.438  0.2414 -0.0923  0.2636
   32CHL1  H11A 2329   4.163   5.268   7.472 -0.9922 -0.7453  0.1271
   32CHL1  H11B 2330   4.303   5.206   7.376 -0.0361 -1.4272 -0.7895
   32CHL1    C9 2331   4.115   5.102   7.344 -0.3457  0.0014  0.3787
   32CHL1    H9 2332   4.174   5.014   7.312  0.9064  1.1361 -0.4583
   32CHL1   C10 2333   4.074   5.179   7.217  0.3656  0.4055  0.0199
   32CHL1   C19 2334   4.024   5.320   7.253 -0.4836  0.2581 -0.5957
   32CHL1  H19A 2335   4.108   5.362   7.312  0.4785 -1.9331 -0.3379
   32CHL1  H19B 2336   4.008   5.380   7.161 -3.3685 -0.7133 -0.7932
   32CHL1  H19C 2337   3.946   5.310   7.332 -0.9852  0.4857 -1.0606
   32CHL1    C1 2338   4.195   5.186   7.114 -0.6381  0.4486 -0.4747
   32CHL1   H1A 2339   4.265   5.259   7.162  0.8764 -0.1370 -1.7434
   32CHL1   H1B 2340   4.241   5.085   7.118 -1.8787 -0.0873  0.7816
   32CHL1    C2 2341   4.159   5.231   6.972 -0.1705 -0.4503 -0.0160
   32CHL1   H2A 2342   4.244   5.206   6.904 -1.4758 -1.8587 -1.1709
   32CHL1   H2B 2343   4.146   5.342   6.965 -0.4137 -0.5961 -2.3614
   32CHL1   C20 2344   4.209   4.991   7.892  0.1535 -0.3793  0.3035
   32CHL1   H20 2345   4.142   5.058   7.949  0.5351  1.3587 -1.2308
   32CHL1   C21 2346   4.354   5.048   7.868 -0.0851 -0.9482  0.1217
   32CHL1  H21A 2347   4.405   5.071   7.964  0.7780 -1.3621 -0.2376
   32CHL1  H21B 2348   4.351   5.144   7.811 -0.0892 -2.3095 -2.2490
   32CHL1  H21C 2349   4.416   4.981   7.805  2.8972  0.1493  1.7866
   32CHL1   C22 2350   4.235   4.869   7.988  0.4508 -0.4950 -0.5095
   32CHL1  H22A 2351   4.166   4.786   7.959 -0.3952 -0.4440  1.3069
   32CHL1  H22B 2352   4.337   4.824   7.986  1.1361  1.0528 -0.9944
   32CHL1   C23 2353   4.215   4.911   8.132  0.2946  0.2176 -0.2430
   32CHL1  H23A 2354   4.263   5.010   8.143  0.1295  0.1404  1.2420
   32CHL1  H23B 2355   4.106   4.929   8.130  0.0463 -1.1120  0.5216
   32CHL1   C24 2356   4.260   4.814   8.239  0.6170 -0.6799  0.2054
   32CHL1  H24A 2357   4.187   4.730   8.232  2.1606 -1.8267 -3.4781
   32CHL1  H24B 2358   4.356   4.769   8.205  0.2998 -1.6051  0.5112
   32CHL1   C25 2359   4.272   4.869   8.385 -0.0174  0.6940  0.0737
   32CHL1   H25 2360   4.168   4.903   8.404 -1.3016 -2.1954 -1.4611
   32CHL1   C26 2361   4.291   4.749   8.485  0.8358 -0.2627 -0.5109
   32CHL1  H26A 2362   4.222   4.663   8.479  1.1903 -0.7424  1.8890
   32CHL1  H26B 2363   4.391   4.701   8.472  1.2759 -0.3555  2.9223
   32CHL1  H26C 2364   4.282   4.788   8.589 -0.5505  0.8999 -1.0502
   32CHL1   C27 2365   4.365   4.988   8.402  0.0558  0.0617 -0.0039
   32CHL1  H27A 2366   4.338   5.071   8.334 -2.1562 -0.9578 -0.4187
   32CHL1  H27B 2367   4.348   5.034   8.502 -0.2331  3.2727 -1.4737
   32CHL1  H27C 2368   4.472   4.960   8.390 -0.8365 -2.6693 -2.2409
   33CHL1    C3 2369   4.461   6.234   6.785 -0.2707  0.1471  0.2963
   33CHL1    H3 2370   4.414   6.332   6.807  0.7039  0.0885  2.8487
   33CHL1    O3 2371   4.458   6.229   6.647  0.4788 -0.0896  0.4718
   33CHL1   H3' 2372   4.464   6.137   6.622 -0.5823  0.5744 -2.3895
   33CHL1    C4 2373   4.609   6.227   6.825 -0.3739 -0.1670 -0.2272
   33CHL1   H4A 2374   4.660   6.139   6.782  0.7189 -0.3591  1.4197
   33CHL1   H4B 2375   4.657   6.322   6.792 -0.0594  0.0634  0.8776
   33CHL1    C5 2376   4.614   6.229   6.976  0.4580  1.0619  0.3106
   33CHL1    C6 2377   4.673   6.336   7.042 -0.2197  0.5972  0.4643
   33CHL1    H6 2378   4.726   6.420   6.995  2.2489 -1.0158  0.3237
   33CHL1    C7 2379   4.677   6.345   7.191 -0.5435  0.1817 -0.9788
   33CHL1   H7A 2380   4.777   6.380   7.226 -1.3930  1.1979  0.4906
   33CHL1   H7B 2381   4.605   6.425   7.219  1.8840  1.8257  0.7531
   33CHL1    C8 2382   4.633   6.218   7.271  0.1193 -0.0400 -0.6003
   33CHL1    H8 2383   4.726   6.158   7.272  0.2331  0.1249  2.2385
   33CHL1   C14 2384   4.603   6.246   7.418  0.1765 -0.2924  0.2958
   33CHL1   H14 2385   4.512   6.309   7.419  1.1977  1.2145  0.2445
   33CHL1   C15 2386   4.706   6.330   7.491 -1.1161 -0.3311 -0.5527
   33CHL1  H15A 2387   4.811   6.296   7.481 -0.7689  0.5627 -0.0511
   33CHL1  H15B 2388   4.705   6.435   7.456  0.6733 -0.5086 -1.1672
   33CHL1   C16 2389   4.664   6.306   7.635 -0.3925  0.1688  0.8066
   33CHL1  H16A 2390   4.753   6.278   7.696  0.8682 -1.0070 -1.5146
   33CHL1  H16B 2391   4.599   6.387   7.674 -2.3964 -1.0131  0.0094
   33CHL1   C17 2392   4.569   6.179   7.639  0.4421  0.8568 -0.6851
   33CHL1   H17 2393   4.464   6.212   7.653  0.4088  0.7252 -0.6211
   33CHL1   C13 2394   4.581   6.123   7.498  0.0219  0.9657 -0.4512
   33CHL1   C18 2395   4.701   6.026   7.494  0.1907  0.0146 -0.0652
   33CHL1  H18A 2396   4.792   6.068   7.542  0.4606 -1.0449  0.3573
   33CHL1  H18B 2397   4.675   5.939   7.558 -1.2084  0.5007  0.0390
   33CHL1  H18C 2398   4.730   5.988   7.393 -0.9644 -1.2408  0.0614
   33CHL1   C12 2399   4.466   6.046   7.432  0.7630 -0.3768  0.0479
   33CHL1  H12A 2400   4.462   5.949   7.487 -1.8052 -1.7671 -2.4269
   33CHL1  H12B 2401   4.369   6.099   7.441  0.6177 -0.8161  1.1987
   33CHL1   C11 2402   4.476   6.019   7.277  0.4055  0.3568 -0.5223
   33CHL1  H11A 2403   4.540   5.929   7.274 -2.3723 -1.7295  0.4311
   33CHL1  H11B 2404   4.381   5.984   7.230  0.0845 -3.2306  2.5709
   33CHL1    C9 2405   4.518   6.140   7.202 -0.3658 -0.0111  0.2542
   33CHL1    H9 2406   4.440   6.218   7.215  0.5181  0.9231  0.0186
   33CHL1   C10 2407   4.536   6.116   7.056  0.5374 -0.2386 -0.6057
   33CHL1   C19 2408   4.617   5.984   7.028 -0.7040  0.0336  0.0033
   33CHL1  H19A 2409   4.616   5.970   6.918  0.3900  0.8819 -0.1240
   33CHL1  H19B 2410   4.720   5.993   7.069 -0.1159 -1.6487 -1.0811
   33CHL1  H19C 2411   4.558   5.900   7.071 -0.0870 -0.4125 -0.0258
   33CHL1    C1 2412   4.394   6.092   6.992 -0.4738  0.6373  0.1475
   33CHL1   H1A 2413   4.362   5.988   7.018  1.3912  0.1653  0.6407
   33CHL1   H1B 2414   4.327   6.171   7.032 -0.1892  2.4632 -2.8373
   33CHL1    C2 2415   4.386   6.111   6.840 -0.1578  0.7380 -0.0743
   33CHL1   H2A 2416   4.279   6.103   6.810  0.0562 -0.4440 -0.5449
   33CHL1   H2B 2417   4.430   6.020   6.795  1.6525  1.9985 -0.9502
   33CHL1   C20 2418   4.582   6.087   7.759  0.3048 -0.0007  0.3464
   33CHL1   H20 2419   4.683   6.042   7.749  1.1692  1.4785  2.1169
   33CHL1   C21 2420   4.470   5.978   7.753 -0.1917 -0.3383 -0.8972
   33CHL1  H21A 2421   4.471   5.923   7.850 -1.7916  0.4182 -0.4275
   33CHL1  H21B 2422   4.495   5.900   7.677 -3.2786 -0.8335 -1.5060
   33CHL1  H21C 2423   4.370   6.028   7.758 -0.6854 -1.2650 -1.3123
   33CHL1   C22 2424   4.580   6.173   7.891  0.3553 -0.2614  0.1593
   33CHL1  H22A 2425   4.674   6.229   7.912 -0.3595  1.4223 -1.0317
   33CHL1  H22B 2426   4.491   6.239   7.890 -0.7526 -1.7248  1.2567
   33CHL1   C23 2427   4.563   6.099   8.022  0.9545 -0.0315  0.4724
   33CHL1  H23A 2428   4.466   6.047   8.039  0.7478  0.2788  0.2250
   33CHL1  H23B 2429   4.647   6.027   8.034  0.5643 -0.7416 -0.9121
   33CHL1   C24 2430   4.593   6.190   8.143  0.3406  0.4590  0.0336
   33CHL1  H24A 2431   4.677   6.253   8.106 -0.4431  1.2567 -0.4087
   33CHL1  H24B 2432   4.506   6.258   8.160  0.1546  1.8892 -5.5746
   33CHL1   C25 2433   4.641   6.108   8.266 -1.0111 -0.4530  0.1092
   33CHL1   H25 2434   4.745   6.072   8.251 -1.1958 -0.8733 -0.1526
   33CHL1   C26 2435   4.649   6.209   8.384  0.2472 -0.3331 -0.0501
   33CHL1  H26A 2436   4.696   6.306   8.357  0.2520 -0.9081 -2.2318
   33CHL1  H26B 2437   4.548   6.237   8.422  0.4879  1.4662 -0.6659
   33CHL1  H26C 2438   4.703   6.158   8.466 -2.4114 -1.9496  0.7589
   33CHL1   C27 2439   4.548   5.992   8.306  0.3930 -0.3322 -0.3091
   33CHL1  H27A 2440   4.448   6.030   8.337  0.7328  0.3815 -0.0756
   33CHL1  H27B 2441   4.532   5.922   8.221  1.7608 -0.6171 -0.3349
   33CHL1  H27C 2442   4.595   5.937   8.390 -0.6605  1.4103  1.4488
   34CHL1    C3 2443   5.724   4.191   7.172 -0.6138  0.3918 -0.2241
   34CHL1    H3 2444   5.800   4.272   7.173 -1.4784  1.2013  0.5979
   34CHL1    O3 2445   5.674   4.171   7.041  0.0917 -0.1765 -0.0081
   34CHL1   H3' 2446   5.633   4.085   7.042  0.9464 -0.5986 -0.7798
   34CHL1    C4 2447   5.793   4.067   7.233 -0.2375 -0.0082 -0.6951
   34CHL1   H4A 2448   5.746   3.969   7.210  0.3486 -0.1037 -1.5123
   34CHL1   H4B 2449   5.892   4.057   7.183 -0.0958  0.6305 -0.5570
   34CHL1    C5 2450   5.817   4.054   7.383 -0.2014 -0.2973  0.9157
   34CHL1    C6 2451   5.930   4.014   7.449 -0.0160 -0.3087 -0.6381
   34CHL1    H6 2452   6.011   3.978   7.384  1.2390 -0.3931  0.9533
   34CHL1    C7 2453   5.946   3.993   7.598  0.3954 -0.2167 -0.1070
   34CHL1   H7A 2454   5.999   3.897   7.617  1.9461  0.5766 -0.3547
   34CHL1   H7B 2455   5.997   4.081   7.641 -0.8969  0.1472  0.6948
   34CHL1    C8 2456   5.809   3.999   7.667 -0.3476  0.8115  0.5030
   34CHL1    H8 2457   5.749   3.906   7.669 -0.8335  1.1353  1.0843
   34CHL1   C14 2458   5.830   4.013   7.818 -0.6516  0.4367  0.1006
   34CHL1   H14 2459   5.879   4.110   7.841  0.7529 -0.4539  0.9308
   34CHL1   C15 2460   5.918   3.910   7.905 -0.3816 -0.6980 -0.6496
   34CHL1  H15A 2461   5.888   3.807   7.877 -1.0811 -1.0513  1.2987
   34CHL1  H15B 2462   6.026   3.925   7.886 -0.9721 -0.6592 -4.4731
   34CHL1   C16 2463   5.886   3.943   8.046  0.0513 -0.1156  0.2476
   34CHL1  H16A 2464   5.861   3.850   8.102  0.5166  0.7191  1.8555
   34CHL1  H16B 2465   5.961   4.007   8.096  1.0944 -1.3725  0.3012
   34CHL1   C17 2466   5.755   4.035   8.038  0.0486 -0.1166 -0.0464
   34CHL1   H17 2467   5.793   4.139   8.032  0.7122 -0.3391  0.2767
   34CHL1   C13 2468   5.700   4.026   7.894  0.0563 -0.8771 -0.9169
   34CHL1   C18 2469   5.607   3.895   7.877 -0.2618 -0.6484 -0.6037
   34CHL1  H18A 2470   5.644   3.801   7.922 -2.9771 -0.9157  1.2235
   34CHL1  H18B 2471   5.508   3.920   7.921 -0.7790 -0.7560 -1.6824
   34CHL1  H18C 2472   5.579   3.866   7.774 -1.5088 -0.6407 -0.2797
   34CHL1   C12 2473   5.625   4.153   7.843  0.3649 -0.0088 -0.2981
   34CHL1  H12A 2474   5.533   4.178   7.901  1.6842  2.1922  0.9145
   34CHL1  H12B 2475   5.682   4.245   7.865 -0.2652  0.7781 -1.9116
   34CHL1   C11 2476   5.595   4.141   7.700 -0.1071 -0.3826 -0.9351
   34CHL1  H11A 2477   5.521   4.058   7.688  0.5385 -1.0369 -0.4255
   34CHL1  H11B 2478   5.548   4.237   7.671  1.4001  0.1976 -1.4751
   34CHL1    C9 2479   5.721   4.110   7.613  0.3402  1.1195 -0.3535
   34CHL1    H9 2480   5.786   4.198   7.630  0.3705  0.9303  0.5226
   34CHL1   C10 2481   5.689   4.100   7.459 -0.8180  0.0546  0.6629
   34CHL1   C19 2482   5.591   3.987   7.428 -0.4118  1.2251  0.9286
   34CHL1  H19A 2483   5.489   4.025   7.452 -0.5536  1.2670  0.2768
   34CHL1  H19B 2484   5.583   3.948   7.324  3.7306  0.2237  0.9239
   34CHL1  H19C 2485   5.615   3.900   7.493  2.1953  0.3949 -1.0799
   34CHL1    C1 2486   5.633   4.241   7.407  0.0375  0.5747  0.0977
   34CHL1   H1A 2487   5.541   4.273   7.460  0.5886  1.0280  0.7823
   34CHL1   H1B 2488   5.717   4.309   7.433  2.0356 -1.7896  0.0171
   34CHL1    C2 2489   5.611   4.244   7.257  0.0205 -0.2046 -0.3560
   34CHL1   H2A 2490   5.580   4.345   7.223 -0.9900 -0.3026  0.2476
   34CHL1   H2B 2491   5.524   4.177   7.236  0.6538 -0.1358 -3.4696
   34CHL1   C20 2492   5.657   4.043   8.161  0.5846  0.0213  0.1615
   34CHL1   H20 2493   5.557   4.081   8.133  0.5003 -1.6876 -1.9998
   34CHL1   C21 2494   5.735   4.127   8.264 -0.0789  0.1360  0.1270
   34CHL1  H21A 2495   5.774   4.220   8.217  2.1966  1.7848  4.9811
   34CHL1  H21B 2496   5.810   4.075   8.327  0.4245 -0.9636 -1.3534
   34CHL1  H21C 2497   5.674   4.172   8.346  2.0127 -0.4715  2.0807
   34CHL1   C22 2498   5.620   3.905   8.226  0.5357  0.4629  0.3062
   34CHL1  H22A 2499   5.554   3.849   8.157  1.5627 -0.4165  0.0176
   34CHL1  H22B 2500   5.704   3.837   8.254 -0.3235 -1.1801 -1.0312
   34CHL1   C23 2501   5.527   3.905   8.353  0.0532  0.1566 -0.2515
   34CHL1  H23A 2502   5.505   3.801   8.382 -0.6143 -0.3826 -2.5474
   34CHL1  H23B 2503   5.573   3.962   8.437  0.1030 -0.7685  0.3463
   34CHL1   C24 2504   5.397   3.981   8.343  0.2341  0.1855 -0.3864
   34CHL1  H24A 2505   5.420   4.078   8.294  0.2328  0.7900  0.7983
   34CHL1  H24B 2506   5.339   3.929   8.263 -0.9971  1.9750 -0.6755
   34CHL1   C25 2507   5.317   3.987   8.470  0.3666 -0.7131 -1.2489
   34CHL1   H25 2508   5.275   3.887   8.493  0.5631 -0.7983 -1.2639
   34CHL1   C26 2509   5.395   4.026   8.595 -0.4261  0.2893  0.7220
   34CHL1  H26A 2510   5.452   4.118   8.569  0.6329 -1.0765 -2.0124
   34CHL1  H26B 2511   5.336   4.042   8.687 -0.7528  1.7011  0.2952
   34CHL1  H26C 2512   5.470   3.948   8.620 -1.4917  0.2926  4.1806
   34CHL1   C27 2513   5.204   4.086   8.458 -0.4779 -0.0729  0.6293
   34CHL1  H27A 2514   5.134   4.046   8.382  0.8909 -1.1877 -0.0700
   34CHL1  H27B 2515   5.157   4.104   8.557 -0.9350 -1.0425  0.5906
   34CHL1  H27C 2516   5.238   4.180   8.409  1.0615 -1.4862 -1.1169
   35CHL1    C3 2517   2.195   5.143   7.348  0.2302 -0.1225  0.0121
   35CHL1    H3 2518   2.098   5.195   7.356 -1.1301 -2.5701  0.0769
   35CHL1    O3 2519   2.234   5.101   7.216 -0.0939  0.1703 -0.4702
   35CHL1   H3' 2520   2.294   5.028   7.232  2.6195  2.4763  0.3903
   35CHL1    C4 2521   2.309   5.220   7.418  0.0094  0.0391 -0.4889
   35CHL1   H4A 2522   2.403   5.163   7.400  0.4734  0.1718  1.4669
   35CHL1   H4B 2523   2.319   5.316   7.362 -2.4603  0.5669 -0.0870
   35CHL1    C5 2524   2.297   5.243   7.570  0.0360 -0.6476  0.1112
   35CHL1    C6 2525   2.312   5.364   7.628  0.0582  0.4483  0.3303
   35CHL1    H6 2526   2.347   5.443   7.559 -2.9472  1.0957 -0.5361
   35CHL1    C7 2527   2.294   5.392   7.779 -0.1330  0.2121 -0.0625
   35CHL1   H7A 2528   2.377   5.460   7.812 -1.6498  2.1965 -0.2356
   35CHL1   H7B 2529   2.196   5.432   7.811 -0.0295 -1.5824  2.6429
   35CHL1    C8 2530   2.291   5.264   7.861 -0.0329  0.3033  0.1591
   35CHL1    H8 2531   2.396   5.227   7.872 -0.1838 -0.5910 -1.2100
   35CHL1   C14 2532   2.226   5.276   7.994 -0.0090 -0.5809  0.1076
   35CHL1   H14 2533   2.118   5.301   7.986  0.7287  3.1366  0.8226
   35CHL1   C15 2534   2.282   5.387   8.087  0.0785 -0.3417  0.4465
   35CHL1  H15A 2535   2.393   5.391   8.090  0.0685 -0.1772  0.5686
   35CHL1  H15B 2536   2.240   5.479   8.041  3.6700  2.1125  1.8678
   35CHL1   C16 2537   2.223   5.358   8.229  0.0519 -0.3265 -0.2050
   35CHL1  H16A 2538   2.314   5.339   8.290 -0.8712 -0.3433  1.1868
   35CHL1  H16B 2539   2.152   5.436   8.262  0.8597  0.7706 -1.0192
   35CHL1   C17 2540   2.166   5.214   8.217 -0.1535 -0.2160  0.7125
   35CHL1   H17 2541   2.058   5.225   8.193  0.5301 -0.1184 -2.5329
   35CHL1   C13 2542   2.220   5.158   8.083 -0.0324 -0.2096 -0.6326
   35CHL1   C18 2543   2.361   5.097   8.121  0.6341 -0.4862  0.0917
   35CHL1  H18A 2544   2.410   5.047   8.035 -1.4725 -1.0253 -0.8342
   35CHL1  H18B 2545   2.430   5.163   8.177 -0.6760 -0.4714  1.7660
   35CHL1  H18C 2546   2.349   5.006   8.185  0.1190 -0.8344 -0.4989
   35CHL1   C12 2547   2.123   5.054   8.011  0.0171 -0.5182 -1.1130
   35CHL1  H12A 2548   2.118   4.963   8.075  0.7802  1.1657  1.4273
   35CHL1  H12B 2549   2.018   5.092   8.007 -0.6866 -2.4500 -1.3839
   35CHL1   C11 2550   2.177   5.026   7.875  0.4372  0.2683  0.1923
   35CHL1  H11A 2551   2.267   4.961   7.886  0.7661  1.0180  2.1914
   35CHL1  H11B 2552   2.108   4.957   7.822  1.8644 -2.0577  1.2686
   35CHL1    C9 2553   2.209   5.154   7.790  0.1034 -0.8642  1.1095
   35CHL1    H9 2554   2.110   5.203   7.776  1.2720  0.8803 -1.6615
   35CHL1   C10 2555   2.255   5.120   7.647 -0.4010 -0.6681 -0.6984
   35CHL1   C19 2556   2.388   5.039   7.650  0.1285 -0.3674  0.1064
   35CHL1  H19A 2557   2.358   4.939   7.687 -1.2931 -0.9853 -2.6019
   35CHL1  H19B 2558   2.437   5.010   7.555  3.5277 -1.1352  2.0059
   35CHL1  H19C 2559   2.458   5.082   7.726  1.5959 -0.6201 -1.0804
   35CHL1    C1 2560   2.149   5.043   7.562  0.0804 -0.0036  0.0032
   35CHL1   H1A 2561   2.145   4.945   7.616 -0.6212  0.4404  0.7699
   35CHL1   H1B 2562   2.052   5.097   7.566  0.2974  0.3714  0.1456
   35CHL1    C2 2563   2.180   5.014   7.420 -0.1236  0.7183  0.1481
   35CHL1   H2A 2564   2.107   4.940   7.379  0.2635  0.5894 -0.3169
   35CHL1   H2B 2565   2.279   4.964   7.418  0.1155  1.1920  0.1490
   35CHL1   C20 2566   2.181   5.137   8.354  0.4180 -0.5162  0.1058
   35CHL1   H20 2567   2.286   5.117   8.383  0.4263 -0.0835  0.3736
   35CHL1   C21 2568   2.098   5.000   8.350  0.3087 -0.0156  0.5669
   35CHL1  H21A 2569   2.144   4.936   8.271  4.0041  1.7152  1.2143
   35CHL1  H21B 2570   1.995   5.032   8.324  0.7227 -1.6072 -3.4368
   35CHL1  H21C 2571   2.104   4.944   8.446 -0.1867  1.2883  1.3632
   35CHL1   C22 2572   2.125   5.232   8.472  0.0638  0.6353 -0.1476
   35CHL1  H22A 2573   2.201   5.309   8.495  1.2066 -0.1279 -1.2419
   35CHL1  H22B 2574   2.027   5.274   8.439 -0.2178  1.2306  1.4269
   35CHL1   C23 2575   2.111   5.148   8.597  0.6532 -0.3428 -0.2316
   35CHL1  H23A 2576   2.016   5.091   8.601  0.9954 -0.9571 -0.7672
   35CHL1  H23B 2577   2.190   5.072   8.617  1.6231  0.2677 -1.6166
   35CHL1   C24 2578   2.111   5.240   8.726  0.1895 -0.2364  0.1485
   35CHL1  H24A 2579   2.201   5.305   8.728 -1.2285  1.7792  0.3560
   35CHL1  H24B 2580   2.025   5.311   8.722 -1.4115 -2.1519 -0.2956
   35CHL1   C25 2581   2.117   5.166   8.861  0.1859  0.2734 -0.4321
   35CHL1   H25 2582   2.210   5.107   8.857 -0.5353 -0.7736 -4.3001
   35CHL1   C26 2583   2.116   5.262   8.977  0.8804 -0.0588 -0.1296
   35CHL1  H26A 2584   2.013   5.299   8.994  1.5649  0.7343  2.5775
   35CHL1  H26B 2585   2.140   5.200   9.066  0.5872 -2.4084 -1.6294
   35CHL1  H26C 2586   2.190   5.341   8.954  0.5879  0.1840 -0.2384
   35CHL1   C27 2587   2.012   5.057   8.868  0.4346 -0.5959 -0.0676
   35CHL1  H27A 2588   1.909   5.100   8.863  1.7087  2.8423  1.6647
   35CHL1  H27B 2589   2.022   5.003   8.965  0.9078  0.3471  0.4145
   35CHL1  H27C 2590   2.023   4.975   8.794  2.3129 -0.7322  0.3447
   36CHL1    C3 2591   2.865   4.354   7.110  0.8743 -0.4666  0.4931
   36CHL1    H3 2592   2.960   4.385   7.160  0.3352  1.9357  0.1095
   36CHL1    O3 2593   2.880   4.387   6.978  0.1777  0.1748  0.5376
   36CHL1   H3' 2594   2.790   4.380   6.946 -0.3360  0.7250  1.8130
   36CHL1    C4 2595   2.832   4.214   7.126  0.6326  0.4290 -0.0086
   36CHL1   H4A 2596   2.753   4.198   7.050 -0.2637  0.6291  0.8639
   36CHL1   H4B 2597   2.919   4.150   7.104 -1.4803 -3.5421  2.5572
   36CHL1    C5 2598   2.776   4.177   7.260  0.0689  0.6944 -0.1192
   36CHL1    C6 2599   2.849   4.101   7.340 -0.9608 -0.2821  1.0985
   36CHL1    H6 2600   2.932   4.051   7.290  0.6252  2.9409  0.3954
   36CHL1    C7 2601   2.810   4.052   7.470 -0.0631 -1.0443 -0.4751
   36CHL1   H7A 2602   2.814   3.941   7.470  0.3247 -1.0643  2.1007
   36CHL1   H7B 2603   2.876   4.097   7.548 -1.2776 -0.6381  0.3293
   36CHL1    C8 2604   2.658   4.084   7.506  0.1071 -0.2707 -0.0611
   36CHL1    H8 2605   2.587   4.013   7.458  0.9934 -1.2025 -0.0339
   36CHL1   C14 2606   2.628   4.067   7.664  0.2400 -0.8679  1.0149
   36CHL1   H14 2607   2.698   4.133   7.718  2.0748 -2.0275  0.1154
   36CHL1   C15 2608   2.655   3.935   7.716 -0.7148 -0.4291 -0.3595
   36CHL1  H15A 2609   2.614   3.851   7.656  0.4956 -1.2033 -0.1135
   36CHL1  H15B 2610   2.764   3.915   7.720 -0.7367 -0.9136 -1.7947
   36CHL1   C16 2611   2.587   3.930   7.853  0.7418  0.0276  0.1294
   36CHL1  H16A 2612   2.520   3.842   7.864  2.6926 -1.2987  1.7826
   36CHL1  H16B 2613   2.660   3.939   7.936 -2.1922  2.4676  2.5524
   36CHL1   C17 2614   2.498   4.060   7.861  0.8187  0.2520  0.4501
   36CHL1   H17 2615   2.556   4.143   7.907  0.0785  1.3566 -0.6069
   36CHL1   C13 2616   2.490   4.110   7.710  0.1131  0.4119 -0.2191
   36CHL1   C18 2617   2.389   4.021   7.635 -0.7970 -0.2588  0.1770
   36CHL1  H18A 2618   2.282   4.039   7.659 -1.1675 -2.7397  0.5589
   36CHL1  H18B 2619   2.388   4.036   7.525  0.6634  1.9176  0.4263
   36CHL1  H18C 2620   2.402   3.911   7.647  3.6601 -0.3795 -4.2584
   36CHL1   C12 2621   2.475   4.259   7.675  0.6271 -0.0536  0.0426
   36CHL1  H12A 2622   2.386   4.313   7.716  0.0087 -0.6276 -0.5237
   36CHL1  H12B 2623   2.557   4.310   7.730 -0.0855  1.3000 -0.1269
   36CHL1   C11 2624   2.503   4.286   7.524 -0.0203  0.8321  0.0063
   36CHL1  H11A 2625   2.414   4.246   7.471 -0.7089  2.1583  0.1268
   36CHL1  H11B 2626   2.523   4.395   7.512 -0.1708  0.5774 -2.8651
   36CHL1    C9 2627   2.639   4.228   7.471  0.0378 -0.7069  0.3772
   36CHL1    H9 2628   2.722   4.281   7.521  0.3605  0.4358 -1.3298
   36CHL1   C10 2629   2.651   4.253   7.315 -0.2424 -0.4334 -0.1386
   36CHL1   C19 2630   2.521   4.214   7.226  0.2727  0.3714  0.3049
   36CHL1  H19A 2631   2.538   4.220   7.116  1.7749  0.3276  0.5207
   36CHL1  H19B 2632   2.480   4.114   7.251 -0.0157  0.6085  0.7977
   36CHL1  H19C 2633   2.440   4.288   7.245 -0.9153 -0.5495 -1.0817
   36CHL1    C1 2634   2.691   4.410   7.295 -0.3373  0.8532 -0.7711
   36CHL1   H1A 2635   2.604   4.473   7.324  0.0969 -0.4614  3.7625
   36CHL1   H1B 2636   2.772   4.427   7.369 -0.0036  1.8422 -1.3582
   36CHL1    C2 2637   2.742   4.439   7.152 -0.6608  0.0702  0.2101
   36CHL1   H2A 2638   2.777   4.545   7.148 -1.1136  0.1524 -1.8942
   36CHL1   H2B 2639   2.670   4.420   7.070  0.1880  0.8975 -0.7498
   36CHL1   C20 2640   2.367   4.041   7.938 -0.4927 -0.1988  0.7362
   36CHL1   H20 2641   2.322   3.949   7.895 -1.0690  1.4089 -2.2072
   36CHL1   C21 2642   2.270   4.155   7.907 -0.8444  0.2001  0.1322
   36CHL1  H21A 2643   2.302   4.253   7.948  0.1578  0.9112 -2.2347
   36CHL1  H21B 2644   2.170   4.133   7.949 -0.6160  2.6253  2.0586
   36CHL1  H21C 2645   2.251   4.175   7.799 -1.1614  0.4304  0.2311
   36CHL1   C22 2646   2.385   4.017   8.089 -0.5084 -0.3926  0.3645
   36CHL1  H22A 2647   2.472   3.948   8.100  1.6592  2.0469 -0.9574
   36CHL1  H22B 2648   2.417   4.120   8.117 -1.6832  0.7995 -2.5080
   36CHL1   C23 2649   2.260   3.975   8.174  0.0351 -0.9317  1.2783
   36CHL1  H23A 2650   2.183   4.056   8.171  0.3035 -0.7330 -0.5770
   36CHL1  H23B 2651   2.210   3.883   8.139 -2.2515  0.5158  0.6270
   36CHL1   C24 2652   2.310   3.955   8.318 -0.0839 -0.2717 -0.0098
   36CHL1  H24A 2653   2.374   3.865   8.308  2.5544  1.2617  2.6488
   36CHL1  H24B 2654   2.376   4.044   8.329 -2.5236  2.0324 -2.9333
   36CHL1   C25 2655   2.197   3.935   8.426  0.5107  0.0598  0.6328
   36CHL1   H25 2656   2.135   4.027   8.428 -0.5227 -0.6189  0.6234
   36CHL1   C26 2657   2.101   3.824   8.386 -0.6941 -0.1269 -0.4025
   36CHL1  H26A 2658   2.151   3.730   8.355  2.3561  1.9121 -1.9353
   36CHL1  H26B 2659   2.024   3.804   8.464  0.4246  0.5248  0.8874
   36CHL1  H26C 2660   2.040   3.851   8.297 -0.4319 -1.5493 -1.0329
   36CHL1   C27 2661   2.272   3.912   8.556  0.8198 -0.4213 -0.1735
   36CHL1  H27A 2662   2.209   3.877   8.640  2.6554 -3.1945  0.1343
   36CHL1  H27B 2663   2.339   3.824   8.541 -0.9347 -1.6202 -1.1156
   36CHL1  H27C 2664   2.330   4.000   8.590 -0.8597  0.1677  1.2025
   37CHL1    C3 2665   0.082   0.141   6.938  0.7167  0.0759 -0.9079
   37CHL1    H3 2666   0.188   0.142   6.969 -0.3792  2.4565  3.0845
   37CHL1    O3 2667   0.074   0.145   6.798 -0.3400  0.1135  0.4701
   37CHL1   H3' 2668  -0.015   0.116   6.775  0.6578 -0.8909 -2.4258
   37CHL1    C4 2669   0.030   0.009   7.002 -0.4377 -0.0038 -0.1724
   37CHL1   H4A 2670  -0.076  -0.002   6.969 -0.5743 -0.1853  0.3276
   37CHL1   H4B 2671   0.084  -0.081   6.967  0.4909 -1.1581  3.9270
   37CHL1    C5 2672   0.014   0.003   7.149 -0.1195  0.3585  0.6848
   37CHL1    C6 2673   0.080  -0.097   7.218  0.2036 -0.2926  0.3983
   37CHL1    H6 2674   0.141  -0.173   7.167  1.4960  1.4548 -0.6912
   37CHL1    C7 2675   0.079  -0.099   7.368 -0.4995 -0.9639  0.1274
   37CHL1   H7A 2676   0.071  -0.202   7.408  1.4449 -1.5169 -0.8984
   37CHL1   H7B 2677   0.168  -0.059   7.422 -1.0478  1.2635 -0.5477
   37CHL1    C8 2678  -0.035  -0.019   7.432  0.0944 -0.3764 -0.8478
   37CHL1    H8 2679  -0.132  -0.073   7.428 -0.5051  0.7322 -1.5798
   37CHL1   C14 2680  -0.006  -0.010   7.589 -0.4794 -0.5496 -0.4874
   37CHL1   H14 2681   0.082   0.057   7.596 -0.7581  0.0133 -2.1043
   37CHL1   C15 2682   0.029  -0.136   7.676  0.3532 -0.4668  0.9205
   37CHL1  H15A 2683  -0.058  -0.204   7.667  0.8418 -0.8395 -1.3607
   37CHL1  H15B 2684   0.128  -0.180   7.653  1.0005  1.6489 -0.4958
   37CHL1   C16 2685   0.024  -0.085   7.822 -1.3293 -0.4308  0.6405
   37CHL1  H16A 2686  -0.034  -0.151   7.890 -0.7319 -1.5549  0.0726
   37CHL1  H16B 2687   0.129  -0.089   7.859 -1.2252  0.6599  0.4787
   37CHL1   C17 2688  -0.046   0.056   7.816 -0.6943 -0.0770 -0.0841
   37CHL1   H17 2689   0.023   0.144   7.820  0.8218 -1.2505  0.2274
   37CHL1   C13 2690  -0.103   0.071   7.671  0.7047 -0.0775 -0.8994
   37CHL1   C18 2691  -0.242   0.009   7.674  0.9214 -0.1378  0.1546
   37CHL1  H18A 2692  -0.285   0.022   7.572  1.2750  1.2064  0.1655
   37CHL1  H18B 2693  -0.242  -0.099   7.702  0.2152  0.1595  1.3124
   37CHL1  H18C 2694  -0.304   0.065   7.747 -0.1013 -1.1188  0.0504
   37CHL1   C12 2695  -0.102   0.218   7.611  0.3591  0.0722 -0.2731
   37CHL1  H12A 2696  -0.171   0.285   7.668  0.4125 -1.5819  1.8088
   37CHL1  H12B 2697  -0.002   0.260   7.635  0.4678 -0.3593  0.0345
   37CHL1   C11 2698  -0.132   0.220   7.456 -0.4919  0.5491 -0.1445
   37CHL1  H11A 2699  -0.236   0.188   7.432 -0.7160  0.5746  0.7623
   37CHL1  H11B 2700  -0.114   0.326   7.431 -3.4452  1.6635  2.1155
   37CHL1    C9 2701  -0.041   0.123   7.372 -0.4025 -0.2461 -0.2402
   37CHL1    H9 2702   0.062   0.163   7.377 -0.8149  1.1324 -2.3213
   37CHL1   C10 2703  -0.058   0.121   7.210  0.1239 -0.3880 -0.3557
   37CHL1   C19 2704  -0.208   0.099   7.191 -0.4214  0.4425 -0.1274
   37CHL1  H19A 2705  -0.238   0.000   7.232 -1.1465  0.4522 -0.6290
   37CHL1  H19B 2706  -0.272   0.178   7.234  2.0059  1.5163  1.6372
   37CHL1  H19C 2707  -0.216   0.094   7.080  1.3683 -0.5937 -0.2411
   37CHL1    C1 2708  -0.007   0.255   7.152  0.2454 -0.1545 -0.3109
   37CHL1   H1A 2709  -0.063   0.341   7.196  0.9451 -0.6991  1.6739
   37CHL1   H1B 2710   0.100   0.277   7.173  0.8530 -0.9114 -2.4316
   37CHL1    C2 2711  -0.006   0.256   6.998 -0.0619  0.7027 -0.3576
   37CHL1   H2A 2712   0.010   0.356   6.951 -0.5754  0.5108 -0.9482
   37CHL1   H2B 2713  -0.108   0.235   6.959 -0.1422 -1.6514  1.0752
   37CHL1   C20 2714  -0.136   0.082   7.941  0.5800  0.0585  0.1492
   37CHL1   H20 2715  -0.220   0.010   7.935  1.5283 -1.3805  3.4100
   37CHL1   C21 2716  -0.172   0.232   7.945  0.6952  0.0813 -0.1326
   37CHL1  H21A 2717  -0.082   0.298   7.936 -0.4496  2.1111  2.7152
   37CHL1  H21B 2718  -0.226   0.256   8.038  0.8972 -1.1388  0.2948
   37CHL1  H21C 2719  -0.240   0.264   7.863  0.9204  0.1044 -0.3128
   37CHL1   C22 2720  -0.075   0.054   8.080 -0.2103  0.3452 -0.5891
   37CHL1  H22A 2721  -0.030  -0.048   8.089 -0.5779  0.3129  1.2076
   37CHL1  H22B 2722  -0.000   0.134   8.101  0.5319  0.0185 -1.9346
   37CHL1   C23 2723  -0.177   0.066   8.207  0.0295  0.5927  0.1668
   37CHL1  H23A 2724  -0.244   0.155   8.209 -0.2765  0.4012 -1.0450
   37CHL1  H23B 2725  -0.245  -0.021   8.216  1.8909 -0.9249 -0.1089
   37CHL1   C24 2726  -0.098   0.068   8.339 -0.4093 -0.1441 -1.1652
   37CHL1  H24A 2727  -0.029  -0.019   8.350 -0.6180 -0.0633  0.9261
   37CHL1  H24B 2728  -0.029   0.155   8.343  0.3628 -0.8039  0.2068
   37CHL1   C25 2729  -0.184   0.058   8.473  0.4561  0.6239  0.7551
   37CHL1   H25 2730  -0.230   0.158   8.492 -1.1906  0.8319 -3.6879
   37CHL1   C26 2731  -0.301  -0.036   8.469  0.6292 -0.3898  0.0638
   37CHL1  H26A 2732  -0.267  -0.141   8.479  0.7175 -0.2833  0.9539
   37CHL1  H26B 2733  -0.354  -0.010   8.564 -0.1464  1.3371 -0.8128
   37CHL1  H26C 2734  -0.361  -0.012   8.379  0.5332  1.8080  0.6818
   37CHL1   C27 2735  -0.093   0.017   8.593  0.0304 -0.0120 -0.2272
   37CHL1  H27A 2736  -0.001   0.080   8.603 -0.2548  0.2615  0.7848
   37CHL1  H27B 2737  -0.146   0.027   8.690 -1.4693 -1.3953 -0.8913
   37CHL1  H27C 2738  -0.065  -0.090   8.591  4.1979  0.9720  0.1366
   38CHL1    C3 2739   3.372   1.118   6.693  0.4282  0.5324  0.7646
   38CHL1    H3 2740   3.442   1.205   6.690  1.2896 -0.1916 -0.8434
   38CHL1    O3 2741   3.338   1.095   6.557  0.0110 -0.2619 -1.1534
   38CHL1   H3' 2742   3.281   1.018   6.552 -0.0211 -0.2655 -0.7908
   38CHL1    C4 2743   3.433   0.996   6.758 -0.6536 -0.4341 -0.0556
   38CHL1   H4A 2744   3.358   0.915   6.746  0.8617 -1.9794  0.7303
   38CHL1   H4B 2745   3.521   0.955   6.703  0.5558 -0.8001  2.0981
   38CHL1    C5 2746   3.475   1.016   6.904  1.0149 -0.6109  0.4556
   38CHL1    C6 2747   3.600   0.998   6.949 -0.1515 -0.0702 -0.0038
   38CHL1    H6 2748   3.684   0.958   6.890  0.8377  0.6248  0.9140
   38CHL1    C7 2749   3.632   1.016   7.093  0.3561 -0.1652  0.4477
   38CHL1   H7A 2750   3.702   0.933   7.115  0.6694  0.7639  3.0901
   38CHL1   H7B 2751   3.685   1.106   7.130  0.6575 -0.1072 -0.1191
   38CHL1    C8 2752   3.511   1.000   7.186 -0.6972 -0.2486  0.4768
   38CHL1    H8 2753   3.476   0.895   7.185 -2.1531  0.2078  0.8934
   38CHL1   C14 2754   3.551   1.029   7.328  0.0235  1.7985  0.1581
   38CHL1   H14 2755   3.583   1.135   7.328  1.1590  1.4680 -0.1155
   38CHL1   C15 2756   3.671   0.949   7.389 -0.2520  0.2041 -1.5422
   38CHL1  H15A 2757   3.674   0.842   7.360  0.1001  0.2363 -1.6252
   38CHL1  H15B 2758   3.766   1.001   7.364  1.4836 -1.8453  0.5794
   38CHL1   C16 2759   3.652   0.951   7.543 -0.7107  0.2169  0.4324
   38CHL1  H16A 2760   3.645   0.845   7.576 -1.7173  0.4202  0.8879
   38CHL1  H16B 2761   3.740   1.011   7.576 -0.2613 -0.3962  0.3660
   38CHL1   C17 2762   3.514   1.024   7.566  0.1545 -0.3676 -0.1466
   38CHL1   H17 2763   3.530   1.134   7.565  2.2777 -0.6713 -0.9087
   38CHL1   C13 2764   3.437   1.011   7.431  0.0544 -0.1104  0.0463
   38CHL1   C18 2765   3.373   0.868   7.427 -0.1049  0.7587 -0.3702
   38CHL1  H18A 2766   3.340   0.835   7.326  0.5793 -0.1235 -0.3140
   38CHL1  H18B 2767   3.453   0.794   7.449 -0.4807  0.0836 -1.2160
   38CHL1  H18C 2768   3.278   0.857   7.485 -0.3385  0.0883 -0.8579
   38CHL1   C12 2769   3.334   1.121   7.397  0.0183  0.5399  0.0267
   38CHL1  H12A 2770   3.241   1.118   7.458  0.6649  1.1721  1.0469
   38CHL1  H12B 2771   3.388   1.217   7.410 -0.3939  0.7916 -0.0879
   38CHL1   C11 2772   3.285   1.104   7.250  0.5799  0.0894  0.2466
   38CHL1  H11A 2773   3.231   1.007   7.255  1.0172 -0.1385  0.6038
   38CHL1  H11B 2774   3.217   1.186   7.221 -0.5721 -1.3169 -1.0599
   38CHL1    C9 2775   3.398   1.089   7.143 -0.5054  0.3270 -0.1409
   38CHL1    H9 2776   3.447   1.187   7.124  1.1371 -0.1764  1.3680
   38CHL1   C10 2777   3.353   1.053   7.000  0.4036  0.3806  0.8179
   38CHL1   C19 2778   3.249   0.936   7.006  0.0901 -1.1515 -1.0151
   38CHL1  H19A 2779   3.203   0.908   6.909 -0.2060  1.4640 -1.6549
   38CHL1  H19B 2780   3.294   0.847   7.057 -0.2218 -0.4651  0.5030
   38CHL1  H19C 2781   3.159   0.967   7.064  0.3006  0.6050 -1.6137
   38CHL1    C1 2782   3.284   1.175   6.934  0.0398 -0.1123 -0.0137
   38CHL1   H1A 2783   3.183   1.178   6.981  1.2134 -0.5367  2.6032
   38CHL1   H1B 2784   3.336   1.271   6.954  1.1993 -0.7758  0.2026
   38CHL1    C2 2785   3.246   1.153   6.781  0.4818 -0.2374 -0.0137
   38CHL1   H2A 2786   3.203   1.249   6.744 -0.4109  0.0084  1.6283
   38CHL1   H2B 2787   3.170   1.073   6.769  0.0839  0.0738  0.4434
   38CHL1   C20 2788   3.439   0.994   7.701  0.0765 -0.2932  0.2615
   38CHL1   H20 2789   3.395   0.892   7.691 -1.6863  0.4266  0.4533
   38CHL1   C21 2790   3.319   1.086   7.739  0.1231 -0.0202  0.2592
   38CHL1  H21A 2791   3.269   1.051   7.832 -1.6161 -0.9478 -1.0184
   38CHL1  H21B 2792   3.239   1.078   7.663 -0.0705 -1.5252  0.6092
   38CHL1  H21C 2793   3.353   1.191   7.752 -0.6587  0.8586 -4.0540
   38CHL1   C22 2794   3.536   0.997   7.824  0.1411  0.1224  0.6519
   38CHL1  H22A 2795   3.617   0.927   7.795 -1.0396 -0.2890 -1.7176
   38CHL1  H22B 2796   3.577   1.100   7.824  1.0902 -0.2305 -1.1792
   38CHL1   C23 2797   3.478   0.962   7.960 -0.6941  0.2393  0.5145
   38CHL1  H23A 2798   3.395   1.031   7.986  0.0023  0.4089  2.3773
   38CHL1  H23B 2799   3.424   0.865   7.964 -1.6377  0.6953 -0.6521
   38CHL1   C24 2800   3.593   0.982   8.059 -0.0017 -0.8315 -0.8857
   38CHL1  H24A 2801   3.664   0.898   8.045  2.2367  0.7332  0.6625
   38CHL1  H24B 2802   3.636   1.081   8.032  0.7411 -0.8647  0.1463
   38CHL1   C25 2803   3.549   0.974   8.210  0.7425 -0.6057 -0.7197
   38CHL1   H25 2804   3.442   1.000   8.222  0.6229 -2.1020  1.6814
   38CHL1   C26 2805   3.554   0.826   8.259 -0.3738  0.0285  0.2443
   38CHL1  H26A 2806   3.656   0.781   8.258 -0.8265 -1.1453  2.4832
   38CHL1  H26B 2807   3.528   0.840   8.366  0.6550  0.7631  0.4045
   38CHL1  H26C 2808   3.481   0.763   8.205 -0.3140 -0.0068  0.2037
   38CHL1   C27 2809   3.641   1.067   8.290 -0.4529 -0.2916  1.3039
   38CHL1  H27A 2810   3.658   1.162   8.236  1.1363 -1.9487 -1.2362
   38CHL1  H27B 2811   3.599   1.083   8.391 -0.4749 -3.4432  1.8624
   38CHL1  H27C 2812   3.738   1.013   8.300  1.2597  1.4044 -4.1237
   39CHL1    C3 2813   2.568   6.397   6.733 -0.2686 -0.9499 -0.0660
   39CHL1    H3 2814   2.491   6.318   6.746 -3.4263  1.7329 -1.8630
   39CHL1    O3 2815   2.582   6.417   6.590  0.4933  0.3707 -0.3905
   39CHL1   H3' 2816   2.593   6.330   6.552 -1.3530  0.1641 -0.5089
   39CHL1    C4 2817   2.533   6.531   6.802 -0.4544  0.1862  0.1403
   39CHL1   H4A 2818   2.601   6.610   6.763 -1.2573 -0.0283 -1.7364
   39CHL1   H4B 2819   2.433   6.558   6.763 -0.3348 -0.4088 -0.5930
   39CHL1    C5 2820   2.540   6.541   6.957  0.0033  0.3802 -0.1554
   39CHL1    C6 2821   2.441   6.586   7.038 -0.1754 -0.4653 -0.1008
   39CHL1    H6 2822   2.348   6.621   6.992 -0.5028 -0.1815  0.7710
   39CHL1    C7 2823   2.450   6.588   7.190 -0.4108  0.0830  0.1280
   39CHL1   H7A 2824   2.388   6.668   7.237  0.1920  0.2807  0.5934
   39CHL1   H7B 2825   2.413   6.488   7.224  0.4831  0.7181  3.1616
   39CHL1    C8 2826   2.596   6.593   7.241  0.0904  0.0910  0.4958
   39CHL1    H8 2827   2.645   6.692   7.224  0.2667 -0.3461 -1.6188
   39CHL1   C14 2828   2.610   6.573   7.389 -0.4781 -0.2315  0.9605
   39CHL1   H14 2829   2.561   6.480   7.426 -0.6796 -0.6764 -0.4298
   39CHL1   C15 2830   2.538   6.674   7.478 -0.3295  0.2484  0.3830
   39CHL1  H15A 2831   2.553   6.771   7.426 -2.1010 -1.9757 -4.5330
   39CHL1  H15B 2832   2.431   6.646   7.482  0.1607 -2.7039 -3.6286
   39CHL1   C16 2833   2.613   6.671   7.612 -0.4691 -0.4330 -0.0882
   39CHL1  H16A 2834   2.662   6.769   7.630 -1.0660  0.0340 -0.9809
   39CHL1  H16B 2835   2.539   6.652   7.693  0.4733 -0.0855  0.8718
   39CHL1   C17 2836   2.720   6.561   7.593 -0.6152  0.2710  0.3405
   39CHL1   H17 2837   2.667   6.465   7.606  0.3414 -0.5170 -1.4745
   39CHL1   C13 2838   2.750   6.570   7.444 -0.7398 -0.0581  0.2466
   39CHL1   C18 2839   2.828   6.703   7.410  0.2326  0.8258 -0.3992
   39CHL1  H18A 2840   2.826   6.719   7.301 -0.0072 -0.1030 -0.5411
   39CHL1  H18B 2841   2.782   6.798   7.446 -1.6296 -0.9748  2.2452
   39CHL1  H18C 2842   2.933   6.706   7.447  0.3290 -1.8417 -0.3228
   39CHL1   C12 2843   2.819   6.444   7.389  0.4346  0.4962  0.2784
   39CHL1  H12A 2844   2.920   6.426   7.429 -0.2014 -1.2024  1.1654
   39CHL1  H12B 2845   2.750   6.364   7.424  0.0959 -0.3569 -2.2383
   39CHL1   C11 2846   2.816   6.440   7.242 -0.8604  0.5872 -0.0187
   39CHL1  H11A 2847   2.890   6.512   7.202  0.5623 -1.2801 -0.8184
   39CHL1  H11B 2848   2.859   6.343   7.209 -0.3006 -0.1275  2.6838
   39CHL1    C9 2849   2.677   6.475   7.173 -0.1593 -0.2599 -0.0217
   39CHL1    H9 2850   2.607   6.391   7.193 -0.1781 -0.6897 -1.7342
   39CHL1   C10 2851   2.672   6.491   7.016 -0.3021  0.0745 -0.3602
   39CHL1   C19 2852   2.775   6.600   6.966  0.3106 -0.2913  0.0824
   39CHL1  H19A 2853   2.772   6.610   6.855 -1.0490 -0.5222  0.0882
   39CHL1  H19B 2854   2.756   6.697   7.016 -0.1954  0.5761 -1.7237
   39CHL1  H19C 2855   2.878   6.566   6.990 -0.5252 -2.2944  0.8543
   39CHL1    C1 2856   2.700   6.355   6.945  0.1442  0.3858  0.3906
   39CHL1   H1A 2857   2.803   6.325   6.974  0.6766  1.5905 -0.1925
   39CHL1   H1B 2858   2.630   6.278   6.982  0.8696 -0.8231 -0.7260
   39CHL1    C2 2859   2.694   6.343   6.787  0.0844 -0.2521  0.8275
   39CHL1   H2A 2860   2.723   6.240   6.757 -1.7930 -0.1289 -1.5048
   39CHL1   H2B 2861   2.773   6.407   6.743 -1.3755 -0.0879 -1.6703
   39CHL1   C20 2862   2.829   6.575   7.701  0.9365  0.1709  0.3351
   39CHL1   H20 2863   2.911   6.647   7.682  0.3299  0.6931 -0.3735
   39CHL1   C21 2864   2.886   6.435   7.720  0.2647 -0.2835 -0.1474
   39CHL1  H21A 2865   2.799   6.373   7.751  1.4987 -1.1408  1.6783
   39CHL1  H21B 2866   2.953   6.438   7.808  0.2350  0.8331 -0.1513
   39CHL1  H21C 2867   2.925   6.389   7.627 -0.1306 -2.9497  0.9658
   39CHL1   C22 2868   2.766   6.622   7.840  0.2027 -0.3140  0.3020
   39CHL1  H22A 2869   2.742   6.730   7.836 -0.6584 -0.4085  2.1356
   39CHL1  H22B 2870   2.670   6.574   7.870  0.9547 -0.9978  1.6697
   39CHL1   C23 2871   2.862   6.621   7.966 -0.4026 -0.7132  0.1336
   39CHL1  H23A 2872   2.899   6.519   7.992  1.6970  0.3111  1.2331
   39CHL1  H23B 2873   2.951   6.683   7.944 -0.4368 -1.2821 -1.7262
   39CHL1   C24 2874   2.789   6.668   8.093  0.3222  0.0943  0.1092
   39CHL1  H24A 2875   2.736   6.760   8.059  1.5959  0.5756 -0.6140
   39CHL1  H24B 2876   2.709   6.598   8.124  1.6273 -0.8354  1.4973
   39CHL1   C25 2877   2.888   6.699   8.216  0.3452 -0.2601  0.3385
   39CHL1   H25 2878   2.936   6.798   8.209  0.6283 -0.5167 -1.6592
   39CHL1   C26 2879   2.814   6.704   8.342 -0.1796  0.5139 -0.3571
   39CHL1  H26A 2880   2.724   6.770   8.343 -1.3030 -1.0111  1.4153
   39CHL1  H26B 2881   2.765   6.608   8.369  2.7985 -0.7249  0.8930
   39CHL1  H26C 2882   2.877   6.731   8.429  1.2730  1.2124 -1.5855
   39CHL1   C27 2883   3.002   6.595   8.213  0.1478  0.6267 -0.3949
   39CHL1  H27A 2884   3.069   6.602   8.125  1.5855 -2.6844  0.3341
   39CHL1  H27B 2885   3.070   6.617   8.299 -1.7410  1.0148  1.0383
   39CHL1  H27C 2886   2.964   6.491   8.226 -0.9955  1.1731  0.7327
   40CHL1    C3 2887   5.557   5.500   6.757  0.5157 -0.6490  0.0486
   40CHL1    H3 2888   5.490   5.412   6.752 -2.0765  1.3301 -1.6653
   40CHL1    O3 2889   5.577   5.535   6.626 -0.2952  0.2165 -0.0603
   40CHL1   H3' 2890   5.636   5.610   6.633 -1.2958  1.2003 -1.6352
   40CHL1    C4 2891   5.484   5.625   6.821  0.1218 -0.1466  0.0148
   40CHL1   H4A 2892   5.531   5.720   6.789 -0.8795  0.7430  1.1215
   40CHL1   H4B 2893   5.382   5.631   6.777 -0.2918  0.2044  0.9955
   40CHL1    C5 2894   5.471   5.615   6.974 -0.0455  0.0961  0.5798
   40CHL1    C6 2895   5.350   5.613   7.035 -0.3182  0.6316  0.8993
   40CHL1    H6 2896   5.261   5.634   6.973  0.3393  1.4574  0.2325
   40CHL1    C7 2897   5.331   5.604   7.180 -0.3337  0.4025  0.9941
   40CHL1   H7A 2898   5.245   5.670   7.204 -0.2242  1.1370 -0.5317
   40CHL1   H7B 2899   5.304   5.498   7.197  2.4607 -0.3650  0.8372
   40CHL1    C8 2900   5.463   5.632   7.257  0.3499  0.4885 -0.3558
   40CHL1    H8 2901   5.489   5.740   7.254 -2.5261  1.1845 -1.1798
   40CHL1   C14 2902   5.453   5.584   7.403 -0.0516 -0.2102 -0.3797
   40CHL1   H14 2903   5.443   5.474   7.395  2.0041 -0.4055 -0.5870
   40CHL1   C15 2904   5.336   5.646   7.487  0.5124  0.4980 -0.0705
   40CHL1  H15A 2905   5.340   5.756   7.495  0.5822  0.6647 -2.1030
   40CHL1  H15B 2906   5.236   5.609   7.457 -1.2636  3.1741  2.3823
   40CHL1   C16 2907   5.369   5.600   7.629 -0.5369 -0.1727  0.1620
   40CHL1  H16A 2908   5.363   5.679   7.708 -0.0933 -1.0852  1.1173
   40CHL1  H16B 2909   5.305   5.515   7.660 -0.0416 -0.4152  0.5147
   40CHL1   C17 2910   5.515   5.550   7.627 -0.9033  0.1119  0.7056
   40CHL1   H17 2911   5.504   5.440   7.621  0.0292  0.0511  0.0731
   40CHL1   C13 2912   5.577   5.598   7.489  0.7157 -0.4912  0.3818
   40CHL1   C18 2913   5.621   5.745   7.502 -0.4332  0.3851 -0.3480
   40CHL1  H18A 2914   5.541   5.801   7.554 -0.2602  0.7392 -0.4620
   40CHL1  H18B 2915   5.720   5.766   7.548  0.9805 -0.8941 -2.7056
   40CHL1  H18C 2916   5.621   5.792   7.402 -2.8781  0.8505 -0.1463
   40CHL1   C12 2917   5.692   5.515   7.425 -0.4512 -0.8208 -0.6597
   40CHL1  H12A 2918   5.794   5.504   7.468  0.3486  0.4960 -2.1421
   40CHL1  H12B 2919   5.665   5.407   7.421  1.0080 -1.3203  1.8214
   40CHL1   C11 2920   5.710   5.563   7.282  0.3599 -0.6505  0.4339
   40CHL1  H11A 2921   5.739   5.671   7.275  3.4872 -1.2812  2.5797
   40CHL1  H11B 2922   5.795   5.500   7.251  2.2770  0.5136  3.0800
   40CHL1    C9 2923   5.580   5.554   7.197  0.4435  0.1487 -0.2147
   40CHL1    H9 2924   5.553   5.446   7.194 -1.1515  0.5303 -0.1852
   40CHL1   C10 2925   5.601   5.585   7.049 -0.0657 -0.4303  0.5301
   40CHL1   C19 2926   5.690   5.709   7.034  0.1869  0.3291 -0.1075
   40CHL1  H19A 2927   5.796   5.697   7.065  0.2569  1.6919  0.2016
   40CHL1  H19B 2928   5.700   5.732   6.926 -1.1623 -0.4176 -0.3958
   40CHL1  H19C 2929   5.654   5.794   7.095  0.9788  1.0231 -0.5954
   40CHL1    C1 2930   5.662   5.460   6.985  0.0563  0.0774 -0.4245
   40CHL1   H1A 2931   5.759   5.433   7.033 -0.2213 -0.4574 -0.1604
   40CHL1   H1B 2932   5.590   5.376   6.995 -0.8850  0.9388  0.1200
   40CHL1    C2 2933   5.687   5.472   6.833  0.6522 -0.1830 -0.2254
   40CHL1   H2A 2934   5.718   5.371   6.799 -1.7555 -1.7007  1.8856
   40CHL1   H2B 2935   5.767   5.543   6.803 -0.6021  1.8145  1.0110
   40CHL1   C20 2936   5.585   5.584   7.760 -0.5038  0.7026 -0.0379
   40CHL1   H20 2937   5.611   5.692   7.759  1.1318  0.3206  0.2894
   40CHL1   C21 2938   5.718   5.514   7.763 -0.4119  0.1728 -0.4290
   40CHL1  H21A 2939   5.785   5.516   7.851 -0.3891  0.2944 -0.4493
   40CHL1  H21B 2940   5.774   5.556   7.677  1.8642  0.7554  1.3000
   40CHL1  H21C 2941   5.698   5.407   7.739 -0.1624 -0.0457  0.3460
   40CHL1   C22 2942   5.499   5.546   7.886 -0.0832 -0.0559 -0.1298
   40CHL1  H22A 2943   5.404   5.604   7.893  1.0831  1.8830 -0.1326
   40CHL1  H22B 2944   5.473   5.438   7.884  0.6298 -0.2444  0.9007
   40CHL1   C23 2945   5.563   5.574   8.020  0.3158 -0.8471  0.3800
   40CHL1  H23A 2946   5.485   5.557   8.097  1.5736  0.0136  1.8752
   40CHL1  H23B 2947   5.644   5.502   8.043  0.3382 -0.6679  0.8743
   40CHL1   C24 2948   5.619   5.715   8.041 -0.4361  0.2951  0.0018
   40CHL1  H24A 2949   5.691   5.732   7.959 -1.0092  0.9971 -0.3691
   40CHL1  H24B 2950   5.541   5.794   8.033 -1.8015 -1.1583 -1.4641
   40CHL1   C25 2951   5.701   5.708   8.174  0.8004 -0.2614  0.3361
   40CHL1   H25 2952   5.775   5.625   8.178  0.5493 -0.5278 -0.4701
   40CHL1   C26 2953   5.783   5.838   8.182 -0.3819 -0.2835  0.7448
   40CHL1  H26A 2954   5.859   5.845   8.102 -0.3039  3.2174  1.0386
   40CHL1  H26B 2955   5.709   5.919   8.162  1.2134  1.2638  1.0287
   40CHL1  H26C 2956   5.823   5.856   8.284  0.4843 -1.4731  0.6216
   40CHL1   C27 2957   5.613   5.702   8.294 -1.0010  0.5161  0.8810
   40CHL1  H27A 2958   5.564   5.602   8.297  1.2890 -0.6059  2.5499
   40CHL1  H27B 2959   5.664   5.730   8.388  0.4857  0.6501  0.0361
   40CHL1  H27C 2960   5.522   5.767   8.294 -0.5524  1.1510  1.8427
   41CHL1    C3 2961   6.177   5.829   6.980  0.2332  0.3902  0.2013
   41CHL1    H3 2962   6.272   5.777   7.005 -0.9620 -1.5445  0.8241
   41CHL1    O3 2963   6.150   5.822   6.838 -0.1779  0.0381  0.5792
   41CHL1   H3' 2964   6.215   5.875   6.791  0.7799 -1.6020  0.0081
   41CHL1    C4 2965   6.067   5.751   7.057  0.5598 -0.2535 -0.0117
   41CHL1   H4A 2966   5.974   5.804   7.029  1.2344  1.2309  0.4648
   41CHL1   H4B 2967   6.052   5.649   7.017 -2.5754  0.1943 -0.0426
   41CHL1    C5 2968   6.093   5.758   7.207 -0.8514 -0.1606  0.1385
   41CHL1    C6 2969   6.103   5.643   7.284  0.7057 -0.4380  0.0315
   41CHL1    H6 2970   6.073   5.546   7.242  0.2176 -0.2511 -0.0524
   41CHL1    C7 2971   6.124   5.651   7.427 -0.2072  0.0711 -0.3079
   41CHL1   H7A 2972   6.057   5.573   7.468 -1.4707  2.0251  1.4317
   41CHL1   H7B 2973   6.231   5.624   7.437 -0.0818 -0.3736 -2.4971
   41CHL1    C8 2974   6.086   5.780   7.497  0.1172  0.0490  0.4447
   41CHL1    H8 2975   5.975   5.788   7.499  0.0337 -1.3347  2.6444
   41CHL1   C14 2976   6.147   5.780   7.637  0.0290  0.6881 -0.5646
   41CHL1   H14 2977   6.257   5.788   7.630 -0.0230  1.1638 -0.8258
   41CHL1   C15 2978   6.132   5.655   7.729 -0.1561 -0.3095  0.1819
   41CHL1  H15A 2979   6.024   5.627   7.734 -0.9378  2.4696 -0.6727
   41CHL1  H15B 2980   6.193   5.566   7.700  0.6030  0.9533 -2.1914
   41CHL1   C16 2981   6.171   5.711   7.866 -0.3383 -0.3879  0.0733
   41CHL1  H16A 2982   6.083   5.688   7.929  1.5092 -0.3333  2.7838
   41CHL1  H16B 2983   6.263   5.669   7.913 -0.5780  0.4865  1.3538
   41CHL1   C17 2984   6.192   5.865   7.855  0.4115 -0.3962  0.3286
   41CHL1   H17 2985   6.301   5.875   7.832  0.5828 -2.6884  0.0040
   41CHL1   C13 2986   6.121   5.906   7.720  0.0094  0.7048  0.2347
   41CHL1   C18 2987   5.970   5.910   7.749  0.4604 -0.8911  1.1247
   41CHL1  H18A 2988   5.934   5.835   7.823 -1.2671  0.5069  1.7172
   41CHL1  H18B 2989   5.933   6.010   7.780  0.8291 -0.5148  0.3706
   41CHL1  H18C 2990   5.909   5.892   7.658  1.1939 -1.0938  0.6676
   41CHL1   C12 2991   6.172   6.025   7.645  0.1615 -0.2148  0.3397
   41CHL1  H12A 2992   6.153   6.124   7.691 -0.2500  0.2133 -0.7369
   41CHL1  H12B 2993   6.282   6.013   7.630 -0.0195 -0.1600 -1.0175
   41CHL1   C11 2994   6.121   6.030   7.501  0.3500  0.4886  0.4200
   41CHL1  H11A 2995   6.012   6.041   7.516  0.2702  1.7671 -0.9855
   41CHL1  H11B 2996   6.152   6.118   7.441 -0.2561  0.9472  0.7751
   41CHL1    C9 2997   6.147   5.895   7.415  0.1928 -0.3861  0.8886
   41CHL1    H9 2998   6.258   5.885   7.421  0.2751 -0.5964 -0.9288
   41CHL1   C10 2999   6.101   5.903   7.272  0.3615  0.0301 -0.4556
   41CHL1   C19 3000   5.965   5.975   7.258  0.8083 -0.3200  0.8209
   41CHL1  H19A 3001   5.960   6.076   7.303  2.5330  0.5447 -0.8483
   41CHL1  H19B 3002   5.924   5.972   7.154  2.7721 -1.0355  0.0388
   41CHL1  H19C 3003   5.886   5.920   7.314 -0.5751  1.0370  0.2502
   41CHL1    C1 3004   6.210   5.978   7.189 -0.5251 -0.1706  0.9553
   41CHL1   H1A 3005   6.202   6.084   7.224 -0.2164  0.6402 -1.3852
   41CHL1   H1B 3006   6.308   5.933   7.215  0.4783  0.5442 -1.4684
   41CHL1    C2 3007   6.184   5.967   7.035  0.3531  0.3093 -0.9570
   41CHL1   H2A 3008   6.260   6.029   6.983  1.7198  0.0946  0.7197
   41CHL1   H2B 3009   6.097   6.030   7.009  1.4637  2.1785 -0.2332
   41CHL1   C20 3010   6.171   5.941   7.990 -0.2781  0.0109 -0.2406
   41CHL1   H20 3011   6.073   5.904   8.024  0.1385 -1.4568 -0.6265
   41CHL1   C21 3012   6.165   6.093   7.959 -0.3100 -0.3029  0.0738
   41CHL1  H21A 3013   6.252   6.134   7.905  0.0297  0.0361  0.8767
   41CHL1  H21B 3014   6.189   6.149   8.052 -1.0531 -0.1307  0.1651
   41CHL1  H21C 3015   6.071   6.132   7.915 -1.4108 -2.4667  0.4179
   41CHL1   C22 3016   6.272   5.914   8.100 -0.7457 -0.1675 -0.1772
   41CHL1  H22A 3017   6.324   5.817   8.086  0.8624  0.9893 -2.4431
   41CHL1  H22B 3018   6.355   5.983   8.076 -3.0824  2.9393  0.3980
   41CHL1   C23 3019   6.239   5.933   8.256 -0.7870  0.1420  0.3327
   41CHL1  H23A 3020   6.208   6.040   8.253  2.6217  1.2577  2.1757
   41CHL1  H23B 3021   6.162   5.860   8.289 -2.2282  1.3838 -0.2600
   41CHL1   C24 3022   6.351   5.922   8.361 -0.8967 -0.1051 -0.5850
   41CHL1  H24A 3023   6.367   5.813   8.373 -1.8337 -0.4430 -2.3317
   41CHL1  H24B 3024   6.443   5.967   8.316 -0.7880 -0.8039 -1.0686
   41CHL1   C25 3025   6.329   5.993   8.491  0.1129  0.3795 -0.1309
   41CHL1   H25 3026   6.281   6.090   8.467 -0.4662  0.0853 -0.1664
   41CHL1   C26 3027   6.239   5.911   8.583  0.0019 -0.0455  0.3014
   41CHL1  H26A 3028   6.274   5.806   8.595  1.8312  0.1259 -3.0539
   41CHL1  H26B 3029   6.228   5.954   8.685  4.6571 -1.9634  1.7401
   41CHL1  H26C 3030   6.138   5.915   8.538  0.5130 -1.5468 -0.9983
   41CHL1   C27 3031   6.460   6.027   8.562  0.4701  1.2387 -0.5426
   41CHL1  H27A 3032   6.448   6.078   8.660  3.1078 -2.4323  1.8483
   41CHL1  H27B 3033   6.517   5.939   8.598 -2.0597 -0.2001  0.0785
   41CHL1  H27C 3034   6.528   6.096   8.507  1.0444 -0.2767 -1.7570
   42CHL1    C3 3035   0.329   2.499   6.998 -0.4763  0.4664 -0.2951
   42CHL1    H3 3036   0.360   2.599   7.036  2.9364 -0.5338 -0.2922
   42CHL1    O3 3037   0.297   2.527   6.861 -0.7353 -0.3528 -0.0672
   42CHL1   H3' 3038   0.223   2.472   6.837 -0.0897 -1.7707  1.1166
   42CHL1    C4 3039   0.451   2.402   7.006  0.3045  0.1709 -0.2138
   42CHL1   H4A 3040   0.415   2.311   6.952  0.3994  1.1606 -1.9945
   42CHL1   H4B 3041   0.536   2.455   6.958  0.5263  3.1892  3.3152
   42CHL1    C5 3042   0.486   2.364   7.148  0.0677  0.6983 -0.2116
   42CHL1    C6 3043   0.606   2.390   7.216 -0.1498  0.9964  0.2859
   42CHL1    H6 3044   0.686   2.441   7.161  1.2872 -0.8856  0.6148
   42CHL1    C7 3045   0.640   2.349   7.352 -0.2749  0.1839  0.1922
   42CHL1   H7A 3046   0.740   2.304   7.369  0.5104  1.4857 -0.9501
   42CHL1   H7B 3047   0.645   2.440   7.417 -1.4731  0.5521 -0.2153
   42CHL1    C8 3048   0.538   2.243   7.402 -0.3924  0.0198 -0.2044
   42CHL1    H8 3049   0.539   2.151   7.340 -1.1389  1.0534 -1.7889
   42CHL1   C14 3050   0.569   2.222   7.550 -1.0087 -0.3346 -0.8886
   42CHL1   H14 3051   0.558   2.326   7.589 -0.8247 -0.5671 -0.2245
   42CHL1   C15 3052   0.712   2.165   7.586  0.2518 -0.7843  0.7542
   42CHL1  H15A 3053   0.743   2.092   7.508 -0.6328  0.4039 -0.7395
   42CHL1  H15B 3054   0.781   2.251   7.584 -1.8195  0.8956 -0.3131
   42CHL1   C16 3055   0.692   2.101   7.721 -0.5781  0.0327  0.0929
   42CHL1  H16A 3056   0.726   1.995   7.722  2.4733  0.9637 -0.2666
   42CHL1  H16B 3057   0.759   2.153   7.793  0.4814  0.4024 -1.1411
   42CHL1   C17 3058   0.537   2.113   7.758 -0.4365 -0.4117  0.4488
   42CHL1   H17 3059   0.528   2.215   7.803 -0.9588 -0.3121  0.1276
   42CHL1   C13 3060   0.462   2.136   7.623  0.3475 -0.6072  0.4296
   42CHL1   C18 3061   0.453   1.995   7.558  0.4421 -0.6170  0.0168
   42CHL1  H18A 3062   0.550   1.946   7.581  0.7373  0.1209  0.3750
   42CHL1  H18B 3063   0.366   1.936   7.596 -0.1803 -0.5557 -1.2819
   42CHL1  H18C 3064   0.440   2.005   7.448  0.8981  0.7794  0.0845
   42CHL1   C12 3065   0.328   2.208   7.612  0.2866  0.7805  0.0386
   42CHL1  H12A 3066   0.247   2.152   7.663 -0.0316  0.6676 -0.5820
   42CHL1  H12B 3067   0.345   2.305   7.665  3.1821  0.2925  0.0616
   42CHL1   C11 3068   0.279   2.224   7.468 -0.3900 -0.5331 -0.1724
   42CHL1  H11A 3069   0.258   2.123   7.426 -1.1650 -0.0032 -1.0807
   42CHL1  H11B 3070   0.184   2.283   7.466 -1.2549 -1.8820  0.2626
   42CHL1    C9 3071   0.397   2.299   7.380  0.0659  0.1203 -0.3946
   42CHL1    H9 3072   0.394   2.398   7.429 -1.6975  0.3520 -0.9129
   42CHL1   C10 3073   0.364   2.312   7.227  0.3766 -0.8015 -0.2764
   42CHL1   C19 3074   0.312   2.175   7.175 -0.2950  0.1257  0.0806
   42CHL1  H19A 3075   0.392   2.100   7.190  0.1649  0.5484 -0.2250
   42CHL1  H19B 3076   0.220   2.144   7.230  0.3485  2.8067  2.8334
   42CHL1  H19C 3077   0.294   2.175   7.066  0.6688 -0.7072 -0.0784
   42CHL1    C1 3078   0.243   2.416   7.217  0.0001  0.2590  0.3090
   42CHL1   H1A 3079   0.156   2.363   7.262 -0.6498 -1.2879 -2.6245
   42CHL1   H1B 3080   0.273   2.501   7.282  3.0641 -0.3361 -0.2458
   42CHL1    C2 3081   0.210   2.452   7.074  0.2542  0.2299 -0.1767
   42CHL1   H2A 3082   0.132   2.531   7.067  0.3138  0.3586  0.5285
   42CHL1   H2B 3083   0.161   2.361   7.033  0.9127 -1.1585  1.9794
   42CHL1   C20 3084   0.508   2.005   7.849  0.1470 -0.3719 -0.4520
   42CHL1   H20 3085   0.528   1.907   7.801  0.0802 -0.0739 -1.0923
   42CHL1   C21 3086   0.360   2.005   7.900 -0.0309 -0.3890  0.0461
   42CHL1  H21A 3087   0.283   1.992   7.821 -1.2500  0.1523  1.1429
   42CHL1  H21B 3088   0.330   2.093   7.960  3.5754  0.2699  1.0466
   42CHL1  H21C 3089   0.335   1.919   7.965 -0.7250  0.6029  1.1017
   42CHL1   C22 3090   0.603   1.997   7.965  0.3142 -0.2139 -1.2788
   42CHL1  H22A 3091   0.569   1.917   8.035  0.9195  0.6233 -0.0337
   42CHL1  H22B 3092   0.708   1.976   7.938  0.5705 -0.2854 -0.2314
   42CHL1   C23 3093   0.603   2.124   8.050 -0.1198 -0.4336 -0.7537
   42CHL1  H23A 3094   0.658   2.201   7.993  0.8234 -0.2527  0.3687
   42CHL1  H23B 3095   0.501   2.154   8.083  0.1487  0.0064 -0.3322
   42CHL1   C24 3096   0.663   2.099   8.191 -0.5405  0.7567  0.2498
   42CHL1  H24A 3097   0.618   2.018   8.251 -1.0922  1.5386  0.9070
   42CHL1  H24B 3098   0.762   2.054   8.173 -1.0943 -1.5473  2.6309
   42CHL1   C25 3099   0.698   2.230   8.274  0.4255  0.3592  0.2972
   42CHL1   H25 3100   0.729   2.294   8.189 -1.8041  0.4218 -0.5051
   42CHL1   C26 3101   0.571   2.294   8.342  0.0730  0.2933 -0.5376
   42CHL1  H26A 3102   0.486   2.302   8.270 -0.4700 -1.1425 -0.0697
   42CHL1  H26B 3103   0.550   2.234   8.433 -0.5480 -0.3392 -1.0915
   42CHL1  H26C 3104   0.587   2.395   8.384 -0.1186 -0.6483  1.8529
   42CHL1   C27 3105   0.807   2.196   8.380 -0.3190 -0.2856  0.1319
   42CHL1  H27A 3106   0.843   2.291   8.425 -2.8135  1.5818 -1.6614
   42CHL1  H27B 3107   0.886   2.133   8.334 -1.4928  0.7868 -3.5165
   42CHL1  H27C 3108   0.762   2.130   8.458 -1.3318 -1.5649 -1.5156
   43CHL1    C3 3109   0.597   0.138   6.805  0.0070 -0.2194  1.0657
   43CHL1    H3 3110   0.675   0.216   6.815 -0.6076  0.6380 -0.6544
   43CHL1    O3 3111   0.583   0.094   6.667 -0.3386 -0.0218  0.1341
   43CHL1   H3' 3112   0.503   0.042   6.655 -0.7627  0.1379  2.0199
   43CHL1    C4 3113   0.652   0.014   6.883  0.4320 -0.2829  0.2383
   43CHL1   H4A 3114   0.590  -0.076   6.864 -1.4474  1.6693 -3.3279
   43CHL1   H4B 3115   0.752  -0.007   6.840 -0.3604  1.4197 -2.5401
   43CHL1    C5 3116   0.665   0.039   7.033  0.1949  0.4140  1.2197
   43CHL1    C6 3117   0.775   0.035   7.105 -0.9222 -0.1208 -0.0169
   43CHL1    H6 3118   0.870   0.024   7.050 -1.5157  0.2885 -1.1524
   43CHL1    C7 3119   0.769   0.053   7.254  0.5269 -0.3172  0.7077
   43CHL1   H7A 3120   0.830  -0.024   7.306  2.0494  0.9329  0.8213
   43CHL1   H7B 3121   0.806   0.151   7.290 -0.1598  0.5897 -0.9967
   43CHL1    C8 3122   0.624   0.053   7.316 -0.2202  0.3764  0.1174
   43CHL1    H8 3123   0.581  -0.049   7.310  1.3038 -0.3317  0.8277
   43CHL1   C14 3124   0.626   0.090   7.467  0.3135 -0.3121  0.0124
   43CHL1   H14 3125   0.668   0.193   7.470 -0.5727  0.0994 -1.5677
   43CHL1   C15 3126   0.712   0.007   7.569  0.2448  0.4205 -0.7510
   43CHL1  H15A 3127   0.691  -0.102   7.559  2.2619 -0.2474  1.7076
   43CHL1  H15B 3128   0.818   0.023   7.539  0.6415 -2.3109 -0.9170
   43CHL1   C16 3129   0.684   0.080   7.701  0.0414  0.0140  0.3902
   43CHL1  H16A 3130   0.684   0.009   7.787  0.7288  1.7174  1.8387
   43CHL1  H16B 3131   0.761   0.161   7.708 -0.2920  0.4359 -0.7111
   43CHL1   C17 3132   0.540   0.155   7.683  0.1126  0.2389  0.3941
   43CHL1   H17 3133   0.560   0.264   7.684  0.7581  0.1372 -0.6784
   43CHL1   C13 3134   0.490   0.106   7.543 -0.0905 -0.1077  0.0152
   43CHL1   C18 3135   0.424  -0.034   7.553 -0.0948  0.9073 -0.2683
   43CHL1  H18A 3136   0.314  -0.032   7.571  0.0373 -0.6098  0.7794
   43CHL1  H18B 3137   0.439  -0.101   7.466 -1.5378 -1.4829  1.2562
   43CHL1  H18C 3138   0.464  -0.091   7.640  0.1006 -3.2403 -2.9437
   43CHL1   C12 3139   0.414   0.206   7.459  0.6943  0.4247 -0.0043
   43CHL1  H12A 3140   0.314   0.229   7.501  1.6987  1.7385  1.7244
   43CHL1  H12B 3141   0.468   0.303   7.461  1.4723  0.0905 -2.3724
   43CHL1   C11 3142   0.396   0.163   7.306  0.4402  0.0708 -0.1325
   43CHL1  H11A 3143   0.330   0.075   7.299  1.0352 -0.3718 -0.2092
   43CHL1  H11B 3144   0.344   0.251   7.264 -0.0260 -0.0933  0.1010
   43CHL1    C9 3145   0.535   0.143   7.231  0.1843  0.4889 -0.1940
   43CHL1    H9 3146   0.585   0.242   7.232  0.6976  0.2294  1.0179
   43CHL1   C10 3147   0.526   0.087   7.083  0.9280  0.2945  0.5733
   43CHL1   C19 3148   0.425  -0.031   7.081  0.3248 -0.3390  0.5086
   43CHL1  H19A 3149   0.321   0.005   7.088 -0.7099 -3.2349  0.7858
   43CHL1  H19B 3150   0.425  -0.082   6.983  0.8920  4.2443 -2.0089
   43CHL1  H19C 3151   0.448  -0.115   7.150 -3.8353 -0.8886  1.2976
   43CHL1    C1 3152   0.471   0.208   7.003 -0.1736 -0.4493 -0.2011
   43CHL1   H1A 3153   0.368   0.228   7.040  0.4490  0.8385  0.8556
   43CHL1   H1B 3154   0.540   0.294   7.016 -0.1884 -0.4541 -0.0874
   43CHL1    C2 3155   0.464   0.180   6.860  0.2843 -0.5841  0.3395
   43CHL1   H2A 3156   0.435   0.270   6.801  0.1175  0.5220  2.0846
   43CHL1   H2B 3157   0.387   0.104   6.835  0.7860 -1.2974  0.9665
   43CHL1   C20 3158   0.445   0.125   7.805  0.0154  0.4393  0.1046
   43CHL1   H20 3159   0.430   0.016   7.821 -1.7040  1.0264  2.7797
   43CHL1   C21 3160   0.305   0.191   7.790  0.0855  0.1123 -0.8738
   43CHL1  H21A 3161   0.260   0.180   7.689 -0.3829  3.2047 -1.0282
   43CHL1  H21B 3162   0.318   0.301   7.795  0.4182  0.0808 -1.0113
   43CHL1  H21C 3163   0.240   0.146   7.868 -0.5494  1.6897 -0.4796
   43CHL1   C22 3164   0.510   0.180   7.931  0.0198  0.2426 -0.1579
   43CHL1  H22A 3165   0.616   0.148   7.940 -1.0698 -3.6699 -0.2774
   43CHL1  H22B 3166   0.510   0.290   7.922  0.6652  0.4134  1.7901
   43CHL1   C23 3167   0.435   0.157   8.065 -0.5749 -0.1499 -0.4115
   43CHL1  H23A 3168   0.338   0.211   8.069 -0.4005  0.3426 -2.4391
   43CHL1  H23B 3169   0.420   0.048   8.073 -0.4538 -0.1858 -0.6676
   43CHL1   C24 3170   0.522   0.203   8.187 -0.6746  0.1533  0.4364
   43CHL1  H24A 3171   0.627   0.178   8.160 -1.0419 -0.9613 -0.0005
   43CHL1  H24B 3172   0.529   0.311   8.209  0.7267 -0.1758  1.7066
   43CHL1   C25 3173   0.496   0.135   8.323  0.5336  0.1426  0.1508
   43CHL1   H25 3174   0.476   0.028   8.301  0.3368  0.1343  0.3697
   43CHL1   C26 3175   0.611   0.140   8.413 -0.6052  0.1016 -0.3352
   43CHL1  H26A 3176   0.631   0.233   8.472 -1.5559  0.9433 -1.3241
   43CHL1  H26B 3177   0.602   0.062   8.492 -1.8708  0.2133 -0.3623
   43CHL1  H26C 3178   0.705   0.103   8.368  0.5012  0.8259  1.3164
   43CHL1   C27 3179   0.377   0.186   8.400  0.6189  0.0903  0.2469
   43CHL1  H27A 3180   0.292   0.158   8.334  1.2868  0.2660 -0.6968
   43CHL1  H27B 3181   0.378   0.141   8.501  0.8005 -1.6670 -0.5159
   43CHL1  H27C 3182   0.375   0.297   8.411 -2.9244  0.2758 -1.3403
   44CHL1    C3 3183   0.358   5.530   6.659 -0.6598 -0.0929 -0.1369
   44CHL1    H3 3184   0.374   5.420   6.654 -0.6481 -0.0791 -0.4142
   44CHL1    O3 3185   0.377   5.572   6.525 -0.4745  0.2920  0.1239
   44CHL1   H3' 3186   0.349   5.664   6.524  0.4231  0.5728  0.3537
   44CHL1    C4 3187   0.221   5.580   6.722 -0.7052 -0.3010 -0.4088
   44CHL1   H4A 3188   0.232   5.691   6.721  0.0437 -0.3770 -1.2240
   44CHL1   H4B 3189   0.137   5.555   6.654 -0.0425  0.4838 -1.5274
   44CHL1    C5 3190   0.201   5.536   6.869  0.0107 -0.1703  0.7705
   44CHL1    C6 3191   0.092   5.465   6.909 -0.6951  0.2376 -1.1249
   44CHL1    H6 3192   0.009   5.445   6.840 -1.8007 -1.2391  0.5807
   44CHL1    C7 3193   0.075   5.435   7.059  0.8722 -0.3878 -0.6861
   44CHL1   H7A 3194  -0.031   5.453   7.087 -0.0453 -2.0525 -2.9383
   44CHL1   H7B 3195   0.075   5.324   7.073  0.5245 -0.3385 -0.2830
   44CHL1    C8 3196   0.171   5.492   7.162  0.3115 -0.0513 -0.0800
   44CHL1    H8 3197   0.140   5.597   7.182  0.2301 -0.2773  1.0306
   44CHL1   C14 3198   0.162   5.419   7.293 -0.4501 -0.6346 -0.2230
   44CHL1   H14 3199   0.207   5.318   7.278  0.7857 -0.4673  2.0811
   44CHL1   C15 3200   0.027   5.396   7.348 -0.2425  0.7532 -0.2423
   44CHL1  H15A 3201  -0.037   5.487   7.349  0.5181  1.2876  1.5102
   44CHL1  H15B 3202  -0.039   5.320   7.300  2.4395 -1.5476 -0.3978
   44CHL1   C16 3203   0.056   5.361   7.501 -0.3895 -0.4931 -0.5618
   44CHL1  H16A 3204  -0.016   5.416   7.564  1.4345  1.6343 -0.2324
   44CHL1  H16B 3205   0.049   5.252   7.517  1.0857 -0.7249 -1.3360
   44CHL1   C17 3206   0.217   5.392   7.519 -0.0215  0.3501 -0.2209
   44CHL1   H17 3207   0.274   5.298   7.503  2.4526  1.8394 -0.5698
   44CHL1   C13 3208   0.256   5.485   7.400  0.3862 -0.5438  0.9985
   44CHL1   C18 3209   0.201   5.627   7.425  0.4128 -0.6482  0.6223
   44CHL1  H18A 3210   0.237   5.667   7.522  2.0833  0.3162 -0.3793
   44CHL1  H18B 3211   0.234   5.704   7.353  0.0177 -0.5366  0.5601
   44CHL1  H18C 3212   0.090   5.628   7.428  0.3589 -2.6852 -0.1859
   44CHL1   C12 3213   0.398   5.480   7.343 -0.2313  0.8732  0.2526
   44CHL1  H12A 3214   0.465   5.533   7.414  0.6122  2.9397 -1.9916
   44CHL1  H12B 3215   0.428   5.374   7.337  0.4531  1.0287  0.8696
   44CHL1   C11 3216   0.411   5.541   7.204  0.5011 -0.6770  0.2764
   44CHL1  H11A 3217   0.393   5.649   7.224  2.1314  0.0719 -2.1493
   44CHL1  H11B 3218   0.513   5.530   7.161  0.1384 -0.3001 -0.6841
   44CHL1    C9 3219   0.311   5.495   7.098  0.2625  0.3080  0.5229
   44CHL1    H9 3220   0.350   5.393   7.080  1.0962  0.6736  0.2672
   44CHL1   C10 3221   0.323   5.573   6.961  0.3623  0.0819  0.0343
   44CHL1   C19 3222   0.317   5.722   6.995 -0.0307 -0.4105 -0.6210
   44CHL1  H19A 3223   0.297   5.775   6.900  3.1057  0.9878 -0.5742
   44CHL1  H19B 3224   0.235   5.740   7.067  0.3994 -1.5440  0.1646
   44CHL1  H19C 3225   0.410   5.761   7.042 -1.2645  1.4184  0.3837
   44CHL1    C1 3226   0.458   5.543   6.896  0.6449  0.1707  0.3024
   44CHL1   H1A 3227   0.547   5.581   6.950 -0.2477 -0.6573  2.3868
   44CHL1   H1B 3228   0.467   5.433   6.887  0.2062  0.1373  0.2557
   44CHL1    C2 3229   0.470   5.588   6.747  0.7452  0.5571 -0.1953
   44CHL1   H2A 3230   0.566   5.544   6.711  1.5057 -0.1995  2.6208
   44CHL1   H2B 3231   0.477   5.698   6.735  3.2245  0.4177 -0.2950
   44CHL1   C20 3232   0.249   5.430   7.669  0.2605  0.2250  0.2693
   44CHL1   H20 3233   0.199   5.527   7.687 -0.0644 -0.0607  0.9142
   44CHL1   C21 3234   0.398   5.448   7.693 -0.4053  0.1306  0.3279
   44CHL1  H21A 3235   0.414   5.513   7.782 -1.9859 -0.1003  0.7940
   44CHL1  H21B 3236   0.435   5.509   7.608 -0.1766  0.8888  0.9589
   44CHL1  H21C 3237   0.455   5.352   7.698  0.7293  0.6365 -2.3561
   44CHL1   C22 3238   0.173   5.330   7.774  0.1299 -0.6718  0.0562
   44CHL1  H22A 3239   0.213   5.372   7.869  1.5621 -1.6410 -0.0926
   44CHL1  H22B 3240   0.064   5.347   7.768  0.0927 -0.4940  1.1558
   44CHL1   C23 3241   0.211   5.179   7.768 -0.2385 -0.0103  0.6153
   44CHL1  H23A 3242   0.201   5.139   7.665  1.9031  1.6494 -0.2814
   44CHL1  H23B 3243   0.321   5.175   7.789  0.0306 -0.1305 -0.7967
   44CHL1   C24 3244   0.143   5.086   7.868 -0.1530  0.2379  0.8298
   44CHL1  H24A 3245   0.159   4.980   7.840  2.5369  1.3290 -2.0901
   44CHL1  H24B 3246   0.165   5.116   7.973  2.8551 -0.8841  0.5424
   44CHL1   C25 3247  -0.011   5.096   7.861 -0.2126 -0.3965  0.0634
   44CHL1   H25 3248  -0.053   5.197   7.878  1.0294 -0.1418  1.7030
   44CHL1   C26 3249  -0.064   5.044   7.718 -0.0316  0.3280 -0.4055
   44CHL1  H26A 3250  -0.002   5.087   7.636 -1.1799  2.6165 -0.1031
   44CHL1  H26B 3251  -0.059   4.933   7.714  2.8231  0.4177 -0.3188
   44CHL1  H26C 3252  -0.170   5.079   7.715  0.0446  0.8848  2.2862
   44CHL1   C27 3253  -0.076   5.011   7.975  0.1032 -0.4218  0.2648
   44CHL1  H27A 3254  -0.050   4.903   7.964  0.8202 -0.1099 -1.2139
   44CHL1  H27B 3255  -0.051   5.046   8.077  0.0062 -1.3064  0.6003
   44CHL1  H27C 3256  -0.186   5.009   7.961 -0.1233 -1.2766  2.0860
   45CHL1    C3 3257   1.535   4.183   6.686  0.5051  0.2785 -0.3495
   45CHL1    H3 3258   1.484   4.274   6.722 -0.7193 -0.1510 -0.9658
   45CHL1    O3 3259   1.561   4.184   6.548 -0.0844  0.1840  0.1972
   45CHL1   H3' 3260   1.480   4.186   6.498  0.3976  3.0312 -0.5870
   45CHL1    C4 3261   1.651   4.168   6.786 -0.1499 -0.6651  0.1304
   45CHL1   H4A 3262   1.709   4.076   6.765 -0.2915 -0.9230  0.8668
   45CHL1   H4B 3263   1.711   4.257   6.757 -0.0795  0.1881  2.8000
   45CHL1    C5 3264   1.619   4.163   6.931 -0.5812 -0.3125  0.0477
   45CHL1    C6 3265   1.669   4.253   7.014 -0.5785 -0.1265 -0.1771
   45CHL1    H6 3266   1.738   4.329   6.977 -1.6302  2.0740  2.1938
   45CHL1    C7 3267   1.633   4.253   7.160  0.4786  0.3936 -0.3495
   45CHL1   H7A 3268   1.723   4.289   7.213  1.4083 -0.4026 -1.3687
   45CHL1   H7B 3269   1.560   4.334   7.180  0.9812  0.7291  0.1260
   45CHL1    C8 3270   1.570   4.117   7.206  0.0854 -0.7154 -0.1532
   45CHL1    H8 3271   1.651   4.041   7.197 -0.0725 -1.2632  2.6302
   45CHL1   C14 3272   1.504   4.132   7.342  0.2181 -0.5863 -0.9956
   45CHL1   H14 3273   1.422   4.207   7.336  1.5977  1.0546  0.0577
   45CHL1   C15 3274   1.596   4.179   7.462 -0.3776 -0.0226  0.9609
   45CHL1  H15A 3275   1.695   4.128   7.453 -0.0997  0.6790 -0.0639
   45CHL1  H15B 3276   1.615   4.288   7.457  3.8433 -0.7361 -1.2747
   45CHL1   C16 3277   1.515   4.147   7.591  0.0470 -1.0304  0.1591
   45CHL1  H16A 3278   1.569   4.082   7.663  1.5615  0.5628  0.4927
   45CHL1  H16B 3279   1.469   4.244   7.619  1.5768 -0.1711 -0.2219
   45CHL1   C17 3280   1.384   4.068   7.538 -0.0930  0.5121 -0.3034
   45CHL1   H17 3281   1.309   4.149   7.519  0.6728  1.2590 -0.1683
   45CHL1   C13 3282   1.425   4.012   7.396  0.2473 -0.8635  0.5198
   45CHL1   C18 3283   1.519   3.893   7.426 -0.2458 -0.3733  0.7695
   45CHL1  H18A 3284   1.462   3.805   7.463 -0.7424 -0.2349  0.3465
   45CHL1  H18B 3285   1.583   3.866   7.339  0.3548 -2.3456  1.8013
   45CHL1  H18C 3286   1.595   3.909   7.505 -0.8651  0.6995  1.1525
   45CHL1   C12 3287   1.304   3.982   7.293 -0.1745 -0.3901 -0.2763
   45CHL1  H12A 3288   1.251   3.890   7.326 -0.0011  0.6770  3.2160
   45CHL1  H12B 3289   1.242   4.075   7.288 -0.1478 -0.3266  0.4577
   45CHL1   C11 3290   1.365   3.966   7.152 -0.0087 -0.3330  0.0005
   45CHL1  H11A 3291   1.434   3.880   7.162  2.0927  1.2037 -0.8957
   45CHL1  H11B 3292   1.288   3.946   7.074  1.5344 -1.5371 -1.2312
   45CHL1    C9 3293   1.459   4.075   7.101  0.6080  0.2049  0.4535
   45CHL1    H9 3294   1.404   4.171   7.092  0.4147  0.0069 -0.5401
   45CHL1   C10 3295   1.513   4.053   6.959 -0.9252  0.1926 -0.3351
   45CHL1   C19 3296   1.582   3.911   6.955  0.3563  0.0241 -0.0081
   45CHL1  H19A 3297   1.605   3.901   6.847 -0.8507 -0.9897 -0.1888
   45CHL1  H19B 3298   1.673   3.907   7.018  0.7991  1.2035 -0.5673
   45CHL1  H19C 3299   1.510   3.830   6.980  2.0080 -0.9219  1.7518
   45CHL1    C1 3300   1.396   4.056   6.855 -0.1865 -0.0991 -0.8271
   45CHL1   H1A 3301   1.333   3.965   6.865 -2.4514  1.3819 -1.2463
   45CHL1   H1B 3302   1.330   4.141   6.885  1.3706 -0.0658  2.7468
   45CHL1    C2 3303   1.438   4.070   6.712 -0.1462  0.0612  0.2022
   45CHL1   H2A 3304   1.350   4.091   6.648 -1.2026 -0.7833  1.3511
   45CHL1   H2B 3305   1.486   3.976   6.677  0.2294  0.4933 -0.4488
   45CHL1   C20 3306   1.330   3.968   7.645  0.2739 -0.8236 -0.3039
   45CHL1   H20 3307   1.403   3.890   7.676  2.0740  1.2006  0.5962
   45CHL1   C21 3308   1.208   3.888   7.592 -0.4612 -0.1559 -0.3531
   45CHL1  H21A 3309   1.146   3.949   7.522 -0.3309  2.5904  1.8461
   45CHL1  H21B 3310   1.155   3.849   7.681 -1.8948 -0.7995 -1.4724
   45CHL1  H21C 3311   1.251   3.805   7.532 -1.2180 -0.6885 -0.1678
   45CHL1   C22 3312   1.307   4.037   7.786  0.3055  0.3018 -1.6005
   45CHL1  H22A 3313   1.398   4.098   7.806 -0.0598 -0.0608  1.4384
   45CHL1  H22B 3314   1.218   4.103   7.780 -0.0898 -0.2717 -2.0834
   45CHL1   C23 3315   1.300   3.943   7.911 -0.8028 -0.2349  0.0968
   45CHL1  H23A 3316   1.225   3.862   7.896 -1.4138  0.8527 -3.1289
   45CHL1  H23B 3317   1.404   3.909   7.932  0.3818  0.6504 -3.8769
   45CHL1   C24 3318   1.226   4.007   8.031 -0.3725 -0.5200 -0.0224
   45CHL1  H24A 3319   1.258   4.113   8.026  0.0959 -0.6135  0.9258
   45CHL1  H24B 3320   1.117   3.989   8.022 -0.0775 -2.6194  0.1400
   45CHL1   C25 3321   1.272   3.969   8.172  0.4787 -0.3754 -0.1082
   45CHL1   H25 3322   1.378   3.935   8.175  0.5553 -0.1278  0.0563
   45CHL1   C26 3323   1.257   4.086   8.269 -0.6991 -0.3401 -0.0188
   45CHL1  H26A 3324   1.303   4.054   8.365  2.2418  0.9914 -0.9384
   45CHL1  H26B 3325   1.310   4.176   8.230  0.7244 -1.2253 -0.1727
   45CHL1  H26C 3326   1.149   4.106   8.281 -0.6437 -0.1192  0.1210
   45CHL1   C27 3327   1.177   3.861   8.222 -0.3251  1.0045 -0.0663
   45CHL1  H27A 3328   1.071   3.893   8.216 -0.6841  0.1852  1.6701
   45CHL1  H27B 3329   1.189   3.770   8.159  0.6610  1.1187 -0.0528
   45CHL1  H27C 3330   1.198   3.842   8.329 -0.8020  2.4775  0.2955
   46CHL1    C3 3331   1.168   4.935   7.024  0.3840  0.1356  0.0626
   46CHL1    H3 3332   1.130   4.832   7.038  2.1717 -1.3474 -4.8950
   46CHL1    O3 3333   1.180   4.963   6.884  0.5670  0.7589 -0.8090
   46CHL1   H3' 3334   1.234   4.890   6.851 -0.6334 -0.4154 -0.2302
   46CHL1    C4 3335   1.076   5.037   7.092  0.1048 -0.4293 -0.3066
   46CHL1   H4A 3336   1.098   5.142   7.067 -2.9672  0.1337 -0.9154
   46CHL1   H4B 3337   0.977   5.026   7.042 -0.8968  1.3542  1.2052
   46CHL1    C5 3338   1.077   5.008   7.243 -0.1713 -0.3762 -0.4447
   46CHL1    C6 3339   0.968   4.970   7.315 -0.4669 -0.0333  0.2887
   46CHL1    H6 3340   0.869   4.961   7.267  0.1933 -2.8735 -0.5980
   46CHL1    C7 3341   0.965   4.964   7.468 -0.8848 -0.1035 -0.9838
   46CHL1   H7A 3342   0.871   5.014   7.498 -0.7161  0.6318 -1.6619
   46CHL1   H7B 3343   0.951   4.859   7.502 -0.4657  0.1217 -0.0986
   46CHL1    C8 3344   1.090   5.021   7.536 -0.3540  0.3006  0.7556
   46CHL1    H8 3345   1.075   5.131   7.538 -2.1845  0.0466  1.4411
   46CHL1   C14 3346   1.088   4.975   7.686 -0.0865  0.7376 -0.2267
   46CHL1   H14 3347   1.082   4.864   7.690  1.3928  0.6742  1.2063
   46CHL1   C15 3348   0.977   5.031   7.771  0.1935 -0.9253 -0.4170
   46CHL1  H15A 3349   0.960   5.131   7.725  1.6152 -0.3931  0.1865
   46CHL1  H15B 3350   0.888   4.966   7.759  0.1617 -1.4591  2.4683
   46CHL1   C16 3351   1.037   5.017   7.913 -0.1841 -1.1974 -0.0732
   46CHL1  H16A 3352   1.030   5.115   7.965 -3.7395 -2.1828  1.3904
   46CHL1  H16B 3353   0.976   4.951   7.978  0.7124 -2.1246 -0.1579
   46CHL1   C17 3354   1.178   4.957   7.902 -0.4284  0.5945 -0.0939
   46CHL1   H17 3355   1.178   4.845   7.905 -1.9203  0.6250  2.3381
   46CHL1   C13 3356   1.219   5.003   7.759 -0.5835 -0.0112 -0.2280
   46CHL1   C18 3357   1.243   5.155   7.765 -0.0375  0.5257  0.2632
   46CHL1  H18A 3358   1.158   5.217   7.801 -0.8706 -0.4347 -0.0540
   46CHL1  H18B 3359   1.329   5.175   7.834 -1.1571 -0.3613  1.9352
   46CHL1  H18C 3360   1.270   5.201   7.668  1.6800  1.3362  1.0892
   46CHL1   C12 3361   1.339   4.942   7.674 -0.0150  0.4461  0.1077
   46CHL1  H12A 3362   1.436   4.964   7.723  0.5057 -1.8661  0.1581
   46CHL1  H12B 3363   1.326   4.831   7.676  1.0844  0.2860 -0.9454
   46CHL1   C11 3364   1.340   4.994   7.532  0.1093  1.1786 -0.7934
   46CHL1  H11A 3365   1.373   5.100   7.535  2.6984  0.3966 -1.0388
   46CHL1  H11B 3366   1.424   4.957   7.470 -0.9864 -0.9272 -1.0495
   46CHL1    C9 3367   1.211   4.971   7.454  0.1108  0.0668  0.0982
   46CHL1    H9 3368   1.187   4.863   7.453 -2.9103  0.6652 -2.2062
   46CHL1   C10 3369   1.214   5.021   7.305  0.3716  0.5559  0.2131
   46CHL1   C19 3370   1.267   5.166   7.307  0.0821 -0.5706 -0.2997
   46CHL1  H19A 3371   1.263   5.204   7.203 -0.4047 -1.4601 -0.6097
   46CHL1  H19B 3372   1.223   5.236   7.382 -2.3853 -1.6957 -0.6311
   46CHL1  H19C 3373   1.375   5.157   7.332 -0.4794 -2.6328  1.6034
   46CHL1    C1 3374   1.325   4.940   7.222  0.3426  0.0945  0.4080
   46CHL1   H1A 3375   1.427   4.973   7.252  0.8752 -0.9102 -0.2829
   46CHL1   H1B 3376   1.293   4.835   7.241 -1.0124  0.2886 -0.7109
   46CHL1    C2 3377   1.312   4.958   7.074 -0.0816  0.3916 -0.0253
   46CHL1   H2A 3378   1.388   4.898   7.020  0.2402 -0.4506  1.3710
   46CHL1   H2B 3379   1.340   5.060   7.039  1.5648 -0.6159 -1.7266
   46CHL1   C20 3380   1.263   4.998   8.019 -0.4739  0.2764 -0.0150
   46CHL1   H20 3381   1.279   5.107   8.009  1.8276 -0.0403 -0.2136
   46CHL1   C21 3382   1.400   4.927   8.009  0.5157 -0.5281  0.1491
   46CHL1  H21A 3383   1.376   4.825   7.972  0.7431  0.0349 -1.6129
   46CHL1  H21B 3384   1.445   4.920   8.110 -0.4584 -1.1450  0.5448
   46CHL1  H21C 3385   1.467   4.980   7.938  1.0815 -0.9780  0.3507
   46CHL1   C22 3386   1.202   4.975   8.157 -0.0914  0.9767  0.0980
   46CHL1  H22A 3387   1.107   5.032   8.171 -1.2690 -0.9580  0.2312
   46CHL1  H22B 3388   1.176   4.867   8.154  0.7219  0.7774  0.0843
   46CHL1   C23 3389   1.285   5.017   8.282 -0.1417 -0.3575 -0.7700
   46CHL1  H23A 3390   1.353   4.933   8.306  0.1671 -0.1511 -0.9063
   46CHL1  H23B 3391   1.338   5.105   8.238  0.6065 -0.4573 -0.0928
   46CHL1   C24 3392   1.199   5.058   8.406 -0.5640  0.6426 -0.4643
   46CHL1  H24A 3393   1.258   5.130   8.466 -1.4028 -2.1285  3.8898
   46CHL1  H24B 3394   1.110   5.112   8.365 -2.0638 -1.2630  0.2155
   46CHL1   C25 3395   1.162   4.940   8.495  0.4706  0.3518  0.3393
   46CHL1   H25 3396   1.112   4.857   8.440  1.9865 -0.3430  0.0089
   46CHL1   C26 3397   1.283   4.869   8.556  0.1353 -0.6294  0.2146
   46CHL1  H26A 3398   1.335   4.809   8.478  2.0645  0.1720  0.8576
   46CHL1  H26B 3399   1.364   4.936   8.593 -0.2740 -0.1938  0.3273
   46CHL1  H26C 3400   1.258   4.785   8.624 -1.5886 -0.3760 -0.0796
   46CHL1   C27 3401   1.076   4.994   8.615 -0.6603  0.0334 -0.2156
   46CHL1  H27A 3402   1.065   4.907   8.683  2.2335  0.0419  0.3465
   46CHL1  H27B 3403   1.134   5.071   8.670  0.6241 -0.5503 -0.7332
   46CHL1  H27C 3404   0.987   5.047   8.575 -0.7897 -0.4323 -0.5538
   47CHL1    C3 3405   0.488   5.009   6.573 -0.4821  0.7636 -0.1711
   47CHL1    H3 3406   0.567   4.933   6.591 -0.8486  0.5755  0.6898
   47CHL1    O3 3407   0.465   5.045   6.440  0.0450  0.0959  0.2557
   47CHL1   H3' 3408   0.392   5.106   6.447 -0.0788 -0.1164  0.8378
   47CHL1    C4 3409   0.352   4.964   6.624 -0.2005 -0.7796 -0.2910
   47CHL1   H4A 3410   0.270   5.037   6.607  1.6673  1.2107 -0.8346
   47CHL1   H4B 3411   0.323   4.869   6.572  1.1885 -0.7299 -1.1719
   47CHL1    C5 3412   0.361   4.934   6.772  0.4444 -0.1755  0.4053
   47CHL1    C6 3413   0.344   4.813   6.827 -0.3051  0.0240  0.5134
   47CHL1    H6 3414   0.327   4.736   6.751  1.0162  1.5428 -1.3689
   47CHL1    C7 3415   0.350   4.776   6.971 -0.6332  0.3131 -0.0927
   47CHL1   H7A 3416   0.254   4.729   7.000 -0.3114  0.1675  0.7582
   47CHL1   H7B 3417   0.440   4.711   6.969 -0.6452  0.3286 -1.2705
   47CHL1    C8 3418   0.346   4.899   7.065 -0.9438 -0.1864  0.2256
   47CHL1    H8 3419   0.245   4.945   7.071  0.5970  3.5641 -1.0103
   47CHL1   C14 3420   0.385   4.862   7.206 -0.3048  0.1811  0.1630
   47CHL1   H14 3421   0.490   4.828   7.192  0.1417  1.0038  1.4708
   47CHL1   C15 3422   0.312   4.750   7.276 -0.2111 -0.0774 -0.7945
   47CHL1  H15A 3423   0.203   4.771   7.272 -0.0636  1.0860  0.7971
   47CHL1  H15B 3424   0.326   4.652   7.226  0.4033 -1.4651  1.9770
   47CHL1   C16 3425   0.381   4.754   7.412  0.1012  0.2370 -0.1388
   47CHL1  H16A 3426   0.311   4.741   7.497  0.8251 -0.3986  0.3708
   47CHL1  H16B 3427   0.455   4.671   7.421 -0.3127  0.0849  2.1878
   47CHL1   C17 3428   0.467   4.887   7.418  0.0739 -0.1522  0.0614
   47CHL1   H17 3429   0.574   4.869   7.393 -0.0951 -0.6383 -0.3184
   47CHL1   C13 3430   0.405   4.974   7.306  0.0409 -0.3613  0.7747
   47CHL1   C18 3431   0.267   5.025   7.353 -1.1826  0.2078  0.4474
   47CHL1  H18A 3432   0.211   4.948   7.411 -0.7975  0.0746  0.6433
   47CHL1  H18B 3433   0.271   5.116   7.416  0.3629 -0.8698  1.9310
   47CHL1  H18C 3434   0.202   5.046   7.265 -1.7318  3.1271  1.4903
   47CHL1   C12 3435   0.498   5.086   7.243 -0.0545  0.6771  0.4863
   47CHL1  H12A 3436   0.508   5.175   7.307  1.4710 -0.7032  2.2259
   47CHL1  H12B 3437   0.602   5.049   7.226 -1.7970 -3.5647 -1.6538
   47CHL1   C11 3438   0.447   5.128   7.105 -0.7924  1.2361 -0.7162
   47CHL1  H11A 3439   0.346   5.173   7.121 -1.2027 -0.3831  1.5263
   47CHL1  H11B 3440   0.512   5.207   7.062  0.3854  0.3063 -0.6410
   47CHL1    C9 3441   0.436   5.012   7.004  0.1591 -0.0958 -0.1669
   47CHL1    H9 3442   0.537   4.965   7.004 -0.0679 -0.5823 -0.5244
   47CHL1   C10 3443   0.407   5.054   6.856  0.6253 -0.8191  0.2063
   47CHL1   C19 3444   0.292   5.156   6.856  0.3397 -0.1404  0.5565
   47CHL1  H19A 3445   0.208   5.113   6.915 -0.4824  0.0938 -0.4256
   47CHL1  H19B 3446   0.328   5.253   6.898  1.2128 -0.0107 -0.4665
   47CHL1  H19C 3447   0.255   5.172   6.752 -0.7983 -0.4194  0.9148
   47CHL1    C1 3448   0.530   5.118   6.796 -0.0564 -0.6721 -0.2072
   47CHL1   H1A 3449   0.545   5.216   6.847 -0.4369 -1.2349  1.0086
   47CHL1   H1B 3450   0.611   5.048   6.824 -1.8249 -2.3435  0.8088
   47CHL1    C2 3451   0.529   5.139   6.650 -0.7905 -0.1489 -0.7061
   47CHL1   H2A 3452   0.623   5.189   6.619 -1.2797  0.1809 -1.6514
   47CHL1   H2B 3453   0.451   5.209   6.614 -2.1649 -1.6190 -0.6304
   47CHL1   C20 3454   0.464   4.958   7.555  0.1914  0.2659  0.7846
   47CHL1   H20 3455   0.359   4.989   7.576  0.3465  1.5125 -0.2552
   47CHL1   C21 3456   0.527   5.102   7.560  0.4609 -0.7067 -0.1077
   47CHL1  H21A 3457   0.630   5.100   7.518  0.8136  0.9220  0.6295
   47CHL1  H21B 3458   0.534   5.136   7.666 -0.0019 -0.5452 -0.1286
   47CHL1  H21C 3459   0.472   5.175   7.498  1.5109  0.6483  0.5304
   47CHL1   C22 3460   0.515   4.867   7.667 -0.0123 -0.7124  0.0287
   47CHL1  H22A 3461   0.505   4.762   7.633  0.7966  0.0647 -2.7306
   47CHL1  H22B 3462   0.625   4.882   7.671 -0.0243 -0.7971  0.7942
   47CHL1   C23 3463   0.434   4.894   7.802  0.0296 -0.1847 -0.4151
   47CHL1  H23A 3464   0.451   4.998   7.836 -0.3025  0.4774 -2.1811
   47CHL1  H23B 3465   0.327   4.877   7.781 -0.2105 -0.7118  1.1815
   47CHL1   C24 3466   0.471   4.807   7.911 -0.0232 -0.1771  0.4588
   47CHL1  H24A 3467   0.462   4.702   7.877  1.0398  0.2914 -1.3273
   47CHL1  H24B 3468   0.580   4.820   7.931  0.6299 -1.1299 -2.3051
   47CHL1   C25 3469   0.394   4.822   8.045 -0.4665  0.3660 -0.6004
   47CHL1   H25 3470   0.286   4.821   8.018 -0.8949 -0.6627  1.0822
   47CHL1   C26 3471   0.408   4.694   8.128 -0.2594 -0.7634  0.3298
   47CHL1  H26A 3472   0.350   4.688   8.223  1.0972 -0.5537  1.1857
   47CHL1  H26B 3473   0.372   4.608   8.067  0.7300 -1.5082  0.7788
   47CHL1  H26C 3474   0.516   4.671   8.137 -0.2768 -0.1865  2.4140
   47CHL1   C27 3475   0.441   4.943   8.133  0.1537  0.0849 -0.1071
   47CHL1  H27A 3476   0.451   5.032   8.066  0.2000 -0.6391 -1.0638
   47CHL1  H27B 3477   0.377   4.963   8.222 -1.3151 -2.1775 -0.6116
   47CHL1  H27C 3478   0.542   4.929   8.176 -1.1634  0.5552  3.2977
   48CHL1    C3 3479   4.714   1.010   6.304  0.4945 -0.1705  1.0533
   48CHL1    H3 3480   4.819   1.031   6.333  0.7506  2.1190 -1.3937
   48CHL1    O3 3481   4.698   1.014   6.160 -0.2791  0.0339 -0.2702
   48CHL1   H3' 3482   4.611   1.051   6.146  0.1729  1.4663  0.6099
   48CHL1    C4 3483   4.669   0.868   6.349 -0.2435 -0.3823  0.4814
   48CHL1   H4A 3484   4.576   0.825   6.305  0.4531 -0.1231 -1.2893
   48CHL1   H4B 3485   4.747   0.798   6.313  0.2801  0.3657  0.1582
   48CHL1    C5 3486   4.669   0.856   6.500  0.1926 -1.0766 -0.1716
   48CHL1    C6 3487   4.751   0.767   6.564  0.0888 -0.6032 -0.0890
   48CHL1    H6 3488   4.810   0.703   6.497 -0.8470  0.5356 -2.0748
   48CHL1    C7 3489   4.770   0.743   6.714  0.0786 -0.7252  0.0272
   48CHL1   H7A 3490   4.769   0.638   6.751  1.2710 -0.3328  1.2094
   48CHL1   H7B 3491   4.867   0.788   6.743 -0.2866  1.1826 -1.6030
   48CHL1    C8 3492   4.670   0.842   6.793 -0.3129 -0.6960  0.0294
   48CHL1    H8 3493   4.573   0.789   6.799 -1.3659  1.2232  0.5520
   48CHL1   C14 3494   4.724   0.871   6.934 -0.0337 -0.0136 -0.4643
   48CHL1   H14 3495   4.818   0.929   6.920 -0.0380 -0.0298 -0.5581
   48CHL1   C15 3496   4.770   0.746   7.015 -0.4139  0.0320 -0.6905
   48CHL1  H15A 3497   4.690   0.671   6.997 -2.0769  1.6957 -0.4056
   48CHL1  H15B 3498   4.865   0.696   6.986 -0.9554 -0.8878 -0.8949
   48CHL1   C16 3499   4.788   0.801   7.155 -0.3898 -0.4355 -0.1939
   48CHL1  H16A 3500   4.738   0.731   7.226  0.5494 -1.3996 -0.4725
   48CHL1  H16B 3501   4.895   0.802   7.186 -0.4161 -1.5030 -0.0433
   48CHL1   C17 3502   4.727   0.944   7.154  0.0568  0.3441 -0.0119
   48CHL1   H17 3503   4.811   1.014   7.136 -0.1277 -0.0106 -2.3343
   48CHL1   C13 3504   4.637   0.952   7.023  0.0653 -0.4326  0.3972
   48CHL1   C18 3505   4.506   0.872   7.058 -0.0673 -0.2013  0.2041
   48CHL1  H18A 3506   4.519   0.778   7.117  0.5492 -0.5026 -0.4070
   48CHL1  H18B 3507   4.445   0.938   7.124 -0.1706  0.3258 -0.4248
   48CHL1  H18C 3508   4.435   0.862   6.973  1.2528  1.3478 -1.1108
   48CHL1   C12 3509   4.606   1.086   6.963  0.3362 -0.1503  0.8453
   48CHL1  H12A 3510   4.521   1.137   7.012  0.4363  1.9268 -1.0408
   48CHL1  H12B 3511   4.698   1.149   6.963  0.6047 -0.5100 -1.1023
   48CHL1   C11 3512   4.552   1.066   6.819 -0.2395 -0.1335  0.2035
   48CHL1  H11A 3513   4.454   1.014   6.824  0.0743 -1.0272 -2.2781
   48CHL1  H11B 3514   4.542   1.170   6.784 -1.1970 -0.4749 -0.5744
   48CHL1    C9 3515   4.651   0.984   6.724  0.3493 -0.6470 -0.0436
   48CHL1    H9 3516   4.748   1.037   6.724 -0.2049  0.4113  1.3552
   48CHL1   C10 3517   4.606   0.977   6.573 -0.6707  0.4677  0.6040
   48CHL1   C19 3518   4.455   0.945   6.560  0.2245  0.2156 -0.1631
   48CHL1  H19A 3519   4.388   1.019   6.610  0.1603 -0.1002  0.2206
   48CHL1  H19B 3520   4.418   0.944   6.456 -0.4474 -0.7000  0.0824
   48CHL1  H19C 3521   4.434   0.845   6.604 -0.8134  0.2759 -0.5168
   48CHL1    C1 3522   4.633   1.116   6.514 -0.3893 -0.2114  0.6291
   48CHL1   H1A 3523   4.561   1.182   6.566 -0.1532  0.2530  0.3697
   48CHL1   H1B 3524   4.736   1.152   6.536 -0.5761  0.7687 -0.0664
   48CHL1    C2 3525   4.621   1.114   6.359 -0.1563  0.6274 -0.2726
   48CHL1   H2A 3526   4.652   1.211   6.313  1.5167  0.8651  1.3012
   48CHL1   H2B 3527   4.515   1.100   6.332 -0.2224  0.7291 -0.0649
   48CHL1   C20 3528   4.671   1.001   7.286 -0.3073 -0.4424 -0.4051
   48CHL1   H20 3529   4.567   0.966   7.307 -0.1509  0.3800  1.9684
   48CHL1   C21 3530   4.663   1.154   7.275 -0.2803  0.2354 -0.0807
   48CHL1  H21A 3531   4.764   1.194   7.251 -0.7779  0.7489 -1.3632
   48CHL1  H21B 3532   4.628   1.190   7.374  0.8857  1.6396 -0.1715
   48CHL1  H21C 3533   4.584   1.172   7.198 -0.2474  0.9156  0.0425
   48CHL1   C22 3534   4.749   0.958   7.406  0.2900 -0.4829  0.4672
   48CHL1  H22A 3535   4.764   0.849   7.398 -0.4110 -0.5847  0.5345
   48CHL1  H22B 3536   4.854   0.991   7.392 -0.0906  0.8097  0.5709
   48CHL1   C23 3537   4.702   0.996   7.549  0.2463 -0.1555 -0.5852
   48CHL1  H23A 3538   4.704   1.106   7.558  0.4723 -0.3628  2.2086
   48CHL1  H23B 3539   4.594   0.968   7.558  0.8322 -2.2369  0.4476
   48CHL1   C24 3540   4.792   0.953   7.670  0.8998 -0.0877  0.1684
   48CHL1  H24A 3541   4.814   0.844   7.669 -2.6633 -0.8805  0.5147
   48CHL1  H24B 3542   4.887   1.009   7.659 -0.0578  1.2639 -1.5914
   48CHL1   C25 3543   4.721   0.965   7.805  0.2737  0.3632 -0.7555
   48CHL1   H25 3544   4.691   1.071   7.811  2.2807  0.8551  1.6782
   48CHL1   C26 3545   4.606   0.858   7.813 -0.6411 -0.5132  0.0944
   48CHL1  H26A 3546   4.542   0.865   7.903  0.3434 -3.6396  1.1023
   48CHL1  H26B 3547   4.541   0.871   7.724  2.3046 -0.3714 -2.1424
   48CHL1  H26C 3548   4.648   0.756   7.804 -2.0435 -1.1314  0.4799
   48CHL1   C27 3549   4.819   0.933   7.922  0.9916 -0.6045  0.0295
   48CHL1  H27A 3550   4.897   1.010   7.941  1.0410 -0.2005 -1.7418
   48CHL1  H27B 3551   4.755   0.913   8.011  0.0200  1.7343 -0.1118
   48CHL1  H27C 3552   4.882   0.842   7.909  4.4009  1.6003  0.4915
   49CHL1    C3 3553   3.093   1.749   6.844 -0.3982  0.0170  0.3494
   49CHL1    H3 3554   2.988   1.785   6.851 -1.2100 -1.8781 -1.4468
   49CHL1    O3 3555   3.126   1.746   6.712  0.3769 -0.6050  0.4956
   49CHL1   H3' 3556   3.108   1.836   6.683 -2.5567 -1.1204  0.5719
   49CHL1    C4 3557   3.176   1.865   6.923  0.6039 -0.1242  0.2855
   49CHL1   H4A 3558   3.280   1.850   6.887  0.6838 -0.5879  0.7001
   49CHL1   H4B 3559   3.146   1.959   6.872  0.1139  0.6217  1.9018
   49CHL1    C5 3560   3.175   1.857   7.076 -0.4146 -0.3529 -0.0090
   49CHL1    C6 3561   3.150   1.973   7.145 -0.7619  0.1941  0.7195
   49CHL1    H6 3562   3.146   2.070   7.093 -2.4327 -1.0686 -1.6525
   49CHL1    C7 3563   3.133   1.977   7.292 -0.3251 -0.5625 -0.2881
   49CHL1   H7A 3564   3.196   2.058   7.334  0.5094 -2.4465  2.2570
   49CHL1   H7B 3565   3.029   2.014   7.305  0.3440  0.6944  1.5388
   49CHL1    C8 3566   3.168   1.843   7.361 -0.3215  0.7922 -0.1447
   49CHL1    H8 3567   3.279   1.834   7.357 -0.3025  1.0747 -0.2233
   49CHL1   C14 3568   3.106   1.836   7.498 -0.4279  0.2386 -0.1526
   49CHL1   H14 3569   2.996   1.838   7.488 -0.3153  0.7956 -1.3354
   49CHL1   C15 3570   3.146   1.954   7.584  0.0859 -1.1682 -0.2626
   49CHL1  H15A 3571   3.250   1.987   7.566  0.2891 -0.4754  2.0507
   49CHL1  H15B 3572   3.078   2.041   7.572  1.1714  0.2327  3.1201
   49CHL1   C16 3573   3.135   1.909   7.732  0.4458 -1.1084  0.5178
   49CHL1  H16A 3574   3.237   1.924   7.772 -0.2709  1.0161  1.6308
   49CHL1  H16B 3575   3.057   1.967   7.786 -0.0613  1.2014 -2.4992
   49CHL1   C17 3576   3.109   1.759   7.724  0.1452  0.6370 -0.2147
   49CHL1   H17 3577   3.000   1.734   7.727  0.4855 -1.0773 -1.0968
   49CHL1   C13 3578   3.147   1.715   7.581  0.1028 -0.1405 -0.4161
   49CHL1   C18 3579   3.305   1.695   7.580 -0.0384  0.6341  0.6292
   49CHL1  H18A 3580   3.350   1.706   7.479 -1.7949 -2.7386 -0.5973
   49CHL1  H18B 3581   3.359   1.765   7.648  0.5444  0.6678  0.1316
   49CHL1  H18C 3582   3.336   1.596   7.621  0.4799  0.9912  1.1123
   49CHL1   C12 3583   3.078   1.593   7.505  0.1244 -0.3931  0.3702
   49CHL1  H12A 3584   3.106   1.497   7.553 -0.5144 -0.6094  0.3183
   49CHL1  H12B 3585   2.968   1.604   7.518  0.5104  2.9178  1.3807
   49CHL1   C11 3586   3.121   1.588   7.357  0.2776 -0.6679  0.0115
   49CHL1  H11A 3587   3.228   1.557   7.351  0.3865 -0.1936 -0.5694
   49CHL1  H11B 3588   3.063   1.514   7.298  0.5117 -0.8269 -0.0202
   49CHL1    C9 3589   3.108   1.722   7.279 -0.1839  0.4799  0.1322
   49CHL1    H9 3590   2.999   1.737   7.265 -0.4181  0.1440  1.4975
   49CHL1   C10 3591   3.176   1.716   7.138  0.0659 -0.0728 -0.3864
   49CHL1   C19 3592   3.320   1.670   7.151 -0.1661 -0.3202 -0.3299
   49CHL1  H19A 3593   3.385   1.706   7.234  0.3498  0.0374 -0.8762
   49CHL1  H19B 3594   3.320   1.560   7.161 -0.5786 -0.2162  0.8662
   49CHL1  H19C 3595   3.384   1.688   7.061 -1.0988 -1.8075 -1.3077
   49CHL1    C1 3596   3.103   1.608   7.054 -0.1042 -0.7932 -0.0236
   49CHL1   H1A 3597   3.130   1.508   7.095 -1.7315 -0.9507  0.7126
   49CHL1   H1B 3598   2.993   1.615   7.066 -0.2811 -2.6590 -0.4458
   49CHL1    C2 3599   3.128   1.612   6.906 -0.1351  0.3313  0.5918
   49CHL1   H2A 3600   3.070   1.535   6.851  0.8248  0.2402 -0.3282
   49CHL1   H2B 3601   3.236   1.600   6.884 -0.3129  1.7527 -1.1979
   49CHL1   C20 3602   3.171   1.687   7.849  0.1425 -0.2399 -0.1207
   49CHL1   H20 3603   3.282   1.697   7.847  0.0319  1.5377  1.7359
   49CHL1   C21 3604   3.153   1.529   7.836 -0.1758 -0.2492  0.0615
   49CHL1  H21A 3605   3.164   1.478   7.934  0.4568  2.5506  1.4977
   49CHL1  H21B 3606   3.233   1.484   7.773  1.4793  1.7786  0.6538
   49CHL1  H21C 3607   3.055   1.494   7.797  0.5821 -1.2255 -1.0092
   49CHL1   C22 3608   3.114   1.744   7.979  0.2644 -0.2259  0.6297
   49CHL1  H22A 3609   3.009   1.775   7.964 -0.0471 -1.8155 -0.5373
   49CHL1  H22B 3610   3.105   1.668   8.059 -1.4148 -0.7808 -0.0674
   49CHL1   C23 3611   3.210   1.851   8.045  0.2372 -0.8748  0.4558
   49CHL1  H23A 3612   3.313   1.812   8.056 -0.0589 -1.8250 -0.0612
   49CHL1  H23B 3613   3.222   1.942   7.982  1.2074 -1.8816 -0.8443
   49CHL1   C24 3614   3.148   1.902   8.176 -0.3194 -0.4850  0.0849
   49CHL1  H24A 3615   3.042   1.929   8.158 -0.2245 -0.5567 -0.5856
   49CHL1  H24B 3616   3.139   1.821   8.252 -2.2889 -1.2021 -0.8922
   49CHL1   C25 3617   3.208   2.030   8.241  0.2940 -0.5462 -0.1039
   49CHL1   H25 3618   3.211   2.121   8.177  0.0206 -1.1028 -0.9154
   49CHL1   C26 3619   3.117   2.078   8.362  0.0003 -0.4220  0.1491
   49CHL1  H26A 3620   3.011   2.093   8.331 -0.0838 -4.1192 -1.7798
   49CHL1  H26B 3621   3.116   1.999   8.440 -3.3637 -0.0579  0.5484
   49CHL1  H26C 3622   3.142   2.178   8.402 -0.5512  0.5383 -1.8475
   49CHL1   C27 3623   3.340   2.004   8.296 -0.1989 -0.4894 -0.4216
   49CHL1  H27A 3624   3.417   1.981   8.219 -0.2045  2.7156 -1.4699
   49CHL1  H27B 3625   3.385   2.083   8.360 -1.8808  2.0682 -2.2659
   49CHL1  H27C 3626   3.338   1.910   8.354 -1.6546  0.0908  0.4959
   50CHL1    C3 3627   3.861   3.205   6.867 -0.1990 -0.9927 -0.6825
   50CHL1    H3 3628   3.756   3.242   6.868  0.5062  1.0261  0.5967
   50CHL1    O3 3629   3.907   3.207   6.731 -0.1188  0.3353 -0.3577
   50CHL1   H3' 3630   3.939   3.121   6.704 -0.2841  0.7389 -1.8372
   50CHL1    C4 3631   3.947   3.300   6.949  0.0136 -0.3162  0.6081
   50CHL1   H4A 3632   4.052   3.268   6.937  0.1454 -0.8059  2.8253
   50CHL1   H4B 3633   3.935   3.403   6.910 -0.8367 -1.0672 -1.2108
   50CHL1    C5 3634   3.902   3.288   7.093 -0.4076 -0.2042 -0.4164
   50CHL1    C6 3635   3.868   3.400   7.158 -0.0509 -0.8077  0.6147
   50CHL1    H6 3636   3.871   3.499   7.110  0.4657 -1.3644 -0.5170
   50CHL1    C7 3637   3.828   3.405   7.307  0.0693 -0.3094 -0.8952
   50CHL1   H7A 3638   3.898   3.478   7.354  0.5135  0.0907 -2.1449
   50CHL1   H7B 3639   3.726   3.446   7.317  0.4103 -0.1631  2.4727
   50CHL1    C8 3640   3.848   3.276   7.379  0.5715  1.5499 -0.4748
   50CHL1    H8 3641   3.957   3.278   7.402  0.4786 -0.1493  0.2405
   50CHL1   C14 3642   3.781   3.268   7.520 -0.1882  0.8145 -0.1875
   50CHL1   H14 3643   3.672   3.272   7.500 -0.8594  1.0910  3.2669
   50CHL1   C15 3644   3.804   3.382   7.618  0.3105  0.5956 -0.4289
   50CHL1  H15A 3645   3.908   3.419   7.613  0.2584  0.7591 -0.2838
   50CHL1  H15B 3646   3.736   3.468   7.601  1.6070  1.6281 -0.4908
   50CHL1   C16 3647   3.769   3.319   7.749  0.2104  0.0204  1.0920
   50CHL1  H16A 3648   3.852   3.332   7.821  0.3857  0.5625  0.7948
   50CHL1  H16B 3649   3.673   3.359   7.788 -1.7121 -0.9583 -2.3522
   50CHL1   C17 3650   3.751   3.168   7.728  0.0995 -0.8253 -0.3778
   50CHL1   H17 3651   3.642   3.145   7.722 -0.1885  0.2985  0.2799
   50CHL1   C13 3652   3.812   3.141   7.591  0.1042 -0.5301 -0.4164
   50CHL1   C18 3653   3.962   3.120   7.615 -0.0723 -0.5750  0.3973
   50CHL1  H18A 3654   4.012   3.216   7.636 -0.5564  0.2028 -1.8100
   50CHL1  H18B 3655   4.000   3.045   7.688  1.0104 -1.4235 -0.9971
   50CHL1  H18C 3656   4.015   3.090   7.522  1.0682  0.7231  0.6205
   50CHL1   C12 3657   3.747   3.026   7.500 -0.0140  0.0632 -0.1185
   50CHL1  H12A 3658   3.734   2.938   7.566 -2.5379  0.9361  0.6214
   50CHL1  H12B 3659   3.644   3.068   7.490 -0.2830  0.1877  2.7803
   50CHL1   C11 3660   3.805   3.013   7.357  0.3345 -0.9667 -0.7925
   50CHL1  H11A 3661   3.899   2.955   7.344  0.2853 -0.4918 -3.5619
   50CHL1  H11B 3662   3.742   2.944   7.297  0.1712  0.1447 -1.9162
   50CHL1    C9 3663   3.824   3.154   7.286  0.2548 -0.1201  0.0631
   50CHL1    H9 3664   3.720   3.165   7.248  0.9757 -0.3239 -2.0896
   50CHL1   C10 3665   3.897   3.151   7.150  0.2897  0.7523 -0.4953
   50CHL1   C19 3666   4.043   3.101   7.174  0.0883  0.5317  0.0941
   50CHL1  H19A 3667   4.045   2.995   7.206 -2.1115  0.4493  0.0505
   50CHL1  H19B 3668   4.104   3.099   7.081 -1.2166  0.9698 -0.7837
   50CHL1  H19C 3669   4.090   3.162   7.254  0.1809  2.1758 -1.1685
   50CHL1    C1 3670   3.829   3.046   7.061 -0.3975  0.6346  0.4201
   50CHL1   H1A 3671   3.861   2.949   7.106  1.7563  0.6483 -1.0157
   50CHL1   H1B 3672   3.719   3.060   7.054 -0.4691 -0.5822 -0.9512
   50CHL1    C2 3673   3.878   3.061   6.917  0.0590 -0.3289 -0.2378
   50CHL1   H2A 3674   3.807   2.997   6.859  0.9441 -0.4973 -1.1455
   50CHL1   H2B 3675   3.977   3.015   6.897  0.3827  0.6189 -0.8506
   50CHL1   C20 3676   3.802   3.092   7.852 -0.3304  0.7811 -0.2465
   50CHL1   H20 3677   3.910   3.109   7.870 -0.1897  0.0880 -0.4231
   50CHL1   C21 3678   3.779   2.941   7.841 -0.8597 -0.0677  0.0361
   50CHL1  H21A 3679   3.816   2.905   7.743  0.3604 -0.9210  0.7964
   50CHL1  H21B 3680   3.669   2.922   7.847 -0.5817 -1.2657  1.6114
   50CHL1  H21C 3681   3.836   2.895   7.924 -0.2907  0.6698  0.0540
   50CHL1   C22 3682   3.727   3.129   7.984 -0.6226 -0.3892 -0.3333
   50CHL1  H22A 3683   3.719   3.239   7.982 -2.6206 -0.4837  0.8282
   50CHL1  H22B 3684   3.628   3.081   7.995 -0.5087 -0.6082 -0.2421
   50CHL1   C23 3685   3.811   3.089   8.110 -0.1433  0.5209  0.6451
   50CHL1  H23A 3686   3.811   2.978   8.110 -1.0916  0.5196  0.4460
   50CHL1  H23B 3687   3.915   3.126   8.094  0.0657 -0.4192 -0.2421
   50CHL1   C24 3688   3.741   3.144   8.234  0.0003 -0.2856 -0.8773
   50CHL1  H24A 3689   3.750   3.254   8.243 -2.2027 -0.1073 -0.6094
   50CHL1  H24B 3690   3.631   3.129   8.231  0.2141 -1.6697 -3.1823
   50CHL1   C25 3691   3.803   3.100   8.365  0.0333  0.3450  0.2854
   50CHL1   H25 3692   3.785   2.992   8.384  3.1196 -0.2159  0.3143
   50CHL1   C26 3693   3.962   3.118   8.375 -0.2479  0.3912  0.4744
   50CHL1  H26A 3694   4.005   3.130   8.477 -3.1549  1.0718  1.6723
   50CHL1  H26B 3695   4.009   3.033   8.321  0.6137 -1.2783  3.7074
   50CHL1  H26C 3696   3.983   3.212   8.320  0.9675 -0.4774 -0.5637
   50CHL1   C27 3697   3.729   3.174   8.479  0.1829  0.8571  0.4649
   50CHL1  H27A 3698   3.723   3.281   8.451  1.3568  1.0938  1.0816
   50CHL1  H27B 3699   3.628   3.134   8.501  0.4076  1.1909  2.1972
   50CHL1  H27C 3700   3.789   3.158   8.571  1.9646 -1.8761 -1.0651
   51CHL1    C3 3701   3.650   2.247   7.004  0.0056  0.3081  0.0340
   51CHL1    H3 3702   3.663   2.340   7.063  0.1301  0.6298 -0.4966
   51CHL1    O3 3703   3.628   2.282   6.874 -0.4450  0.4489 -0.1732
   51CHL1   H3' 3704   3.637   2.202   6.821 -1.8739 -0.1359  0.4310
   51CHL1    C4 3705   3.780   2.166   7.026  0.6020  0.4884  0.5847
   51CHL1   H4A 3706   3.771   2.074   6.965 -2.7768  0.0430  1.6295
   51CHL1   H4B 3707   3.871   2.220   6.994 -0.9482  3.2592  0.6979
   51CHL1    C5 3708   3.790   2.130   7.175 -0.0494 -0.2683  0.3860
   51CHL1    C6 3709   3.895   2.159   7.248 -0.3731  0.4719 -0.5188
   51CHL1    H6 3710   3.981   2.205   7.198 -0.2479 -0.8307 -1.5419
   51CHL1    C7 3711   3.924   2.126   7.393  0.0588  0.4143 -0.0547
   51CHL1   H7A 3712   4.029   2.088   7.391  0.8868  2.6267 -1.7878
   51CHL1   H7B 3713   3.924   2.223   7.448  0.4012  1.0519 -1.1485
   51CHL1    C8 3714   3.823   2.033   7.453 -0.5784  0.2592  0.9288
   51CHL1    H8 3715   3.859   1.935   7.415 -1.7436 -0.1574  0.8799
   51CHL1   C14 3716   3.826   2.045   7.605 -0.0996  0.2768  0.5804
   51CHL1   H14 3717   3.777   2.144   7.609  0.4179  0.5574  0.0684
   51CHL1   C15 3718   3.968   2.056   7.670  0.2251  0.2016  0.3686
   51CHL1  H15A 3719   4.042   1.992   7.618 -0.4998  0.3867 -0.9081
   51CHL1  H15B 3720   3.996   2.164   7.672 -1.2272  0.5700  2.0910
   51CHL1   C16 3721   3.933   2.019   7.814  0.2765 -0.1009  0.3077
   51CHL1  H16A 3722   3.984   1.924   7.843 -0.5349 -0.1000  1.7927
   51CHL1  H16B 3723   3.956   2.105   7.880  0.3086 -0.6316  1.0051
   51CHL1   C17 3724   3.774   2.012   7.825 -0.3579  0.3220  0.3102
   51CHL1   H17 3725   3.736   2.114   7.846 -0.5626 -0.2950  3.2086
   51CHL1   C13 3726   3.744   1.955   7.685  0.3006  0.2220 -0.9952
   51CHL1   C18 3727   3.793   1.808   7.664  0.3973 -0.3013 -0.5239
   51CHL1  H18A 3728   3.903   1.798   7.678  0.7338  0.4644 -2.4137
   51CHL1  H18B 3729   3.734   1.736   7.724  0.1900  1.2357  1.1651
   51CHL1  H18C 3730   3.774   1.787   7.557  3.7503  1.7235 -1.6011
   51CHL1   C12 3731   3.600   1.974   7.632  0.2758  0.2057  0.0785
   51CHL1  H12A 3732   3.542   1.886   7.668 -1.1591  1.3931  0.7475
   51CHL1  H12B 3733   3.547   2.071   7.646 -0.3297  0.1801 -1.9651
   51CHL1   C11 3734   3.582   1.966   7.477  0.3801  0.7026 -0.1563
   51CHL1  H11A 3735   3.600   1.861   7.445 -1.2959 -0.1103  1.4694
   51CHL1  H11B 3736   3.475   1.981   7.449  0.0301 -1.0198  0.1925
   51CHL1    C9 3737   3.677   2.059   7.397 -0.3931 -0.1935  0.5716
   51CHL1    H9 3738   3.645   2.161   7.429 -1.1048 -0.6416  1.2970
   51CHL1   C10 3739   3.665   2.056   7.238  0.0586  0.2520  0.0532
   51CHL1   C19 3740   3.676   1.913   7.177  0.5240  0.1787  0.0846
   51CHL1  H19A 3741   3.754   1.859   7.235  1.2065  0.3731 -0.6546
   51CHL1  H19B 3742   3.578   1.865   7.195  1.2069 -1.6235 -0.8873
   51CHL1  H19C 3743   3.692   1.897   7.068  3.5585 -1.7785  0.7604
   51CHL1    C1 3744   3.538   2.137   7.196  0.1921  0.4970  0.9711
   51CHL1   H1A 3745   3.452   2.079   7.233  1.1854 -0.6902  1.4512
   51CHL1   H1B 3746   3.541   2.231   7.255  1.9659 -0.4776  2.4799
   51CHL1    C2 3747   3.529   2.166   7.046  0.5731 -0.6924 -0.5984
   51CHL1   H2A 3748   3.431   2.217   7.034  0.0899 -1.5390 -0.2112
   51CHL1   H2B 3749   3.529   2.072   6.988  2.5538 -0.1397 -1.5439
   51CHL1   C20 3750   3.737   1.933   7.949  0.7583  0.0992  1.0366
   51CHL1   H20 3751   3.771   1.829   7.928 -1.8228 -1.2267  3.1446
   51CHL1   C21 3752   3.583   1.934   7.956  0.3871 -0.2292  0.2362
   51CHL1  H21A 3753   3.543   2.038   7.954  2.7025  0.6952  1.2670
   51CHL1  H21B 3754   3.562   1.882   8.052  1.6792 -2.1445 -0.4892
   51CHL1  H21C 3755   3.534   1.869   7.879  1.3039 -2.2134  1.2929
   51CHL1   C22 3756   3.810   1.975   8.085  0.1302 -0.1117  0.4569
   51CHL1  H22A 3757   3.918   1.958   8.065  0.4288  2.5428 -0.3531
   51CHL1  H22B 3758   3.791   2.080   8.115  0.8146  0.0824  0.2249
   51CHL1   C23 3759   3.773   1.886   8.204 -0.2484 -0.1942 -0.8493
   51CHL1  H23A 3760   3.853   1.910   8.278 -0.6290 -0.4921 -0.3397
   51CHL1  H23B 3761   3.671   1.898   8.246  0.0372 -2.4532  0.5506
   51CHL1   C24 3762   3.796   1.739   8.171  0.5237  0.4225  0.0073
   51CHL1  H24A 3763   3.725   1.701   8.095 -2.0825  1.7517  1.6999
   51CHL1  H24B 3764   3.898   1.728   8.128  0.7075  0.8348  0.3369
   51CHL1   C25 3765   3.791   1.648   8.298  0.0463  0.2414 -0.1776
   51CHL1   H25 3766   3.874   1.689   8.360 -0.5662  1.2366 -0.0120
   51CHL1   C26 3767   3.652   1.657   8.367 -0.7188  0.2849  0.7865
   51CHL1  H26A 3768   3.661   1.591   8.457 -2.0014 -0.0132  0.7046
   51CHL1  H26B 3769   3.627   1.761   8.397 -1.8086  0.0394  0.7158
   51CHL1  H26C 3770   3.565   1.621   8.310  0.1096  0.1067 -0.3869
   51CHL1   C27 3771   3.819   1.506   8.252 -0.2442 -0.4188 -0.2030
   51CHL1  H27A 3772   3.809   1.432   8.335  1.0745 -0.3778  0.0072
   51CHL1  H27B 3773   3.759   1.476   8.164 -1.8514 -2.8053  1.6279
   51CHL1  H27C 3774   3.926   1.503   8.222  0.2954 -0.7093  1.6914
   52CHL1    C3 3775   5.287   3.634   7.110 -0.1088 -1.6916 -0.5213
   52CHL1    H3 3776   5.372   3.561   7.114 -1.3721 -3.1219  1.2221
   52CHL1    O3 3777   5.265   3.677   6.979  0.0258 -0.4584  0.2440
   52CHL1   H3' 3778   5.244   3.771   6.984  0.2057 -0.3219 -1.3603
   52CHL1    C4 3779   5.162   3.578   7.168  0.6070  0.3392  0.3142
   52CHL1   H4A 3780   5.079   3.651   7.171  2.7639  2.8545  1.4824
   52CHL1   H4B 3781   5.131   3.487   7.113 -1.5401  0.6826  0.9362
   52CHL1    C5 3782   5.180   3.523   7.311  0.2708 -0.1913  0.1690
   52CHL1    C6 3783   5.166   3.396   7.357 -0.4620  0.1298 -0.7664
   52CHL1    H6 3784   5.124   3.318   7.292  2.7136 -0.4084 -2.2705
   52CHL1    C7 3785   5.153   3.355   7.502 -0.2537  0.2072 -0.0462
   52CHL1   H7A 3786   5.057   3.300   7.508 -0.6030  0.7213 -0.8142
   52CHL1   H7B 3787   5.242   3.305   7.545  0.8827  1.6562 -0.6354
   52CHL1    C8 3788   5.140   3.483   7.591 -0.0391  0.4922 -0.2020
   52CHL1    H8 3789   5.035   3.517   7.585 -0.5895 -1.3201 -1.2213
   52CHL1   C14 3790   5.160   3.435   7.735  0.0950 -0.0487 -0.3778
   52CHL1   H14 3791   5.262   3.391   7.745 -0.1279 -0.3889  0.4773
   52CHL1   C15 3792   5.063   3.321   7.780 -0.1912 -0.0668 -0.2546
   52CHL1  H15A 3793   4.961   3.344   7.744  0.1444  3.1918  0.7390
   52CHL1  H15B 3794   5.077   3.216   7.746 -0.8723  0.1321 -1.1725
   52CHL1   C16 3795   5.070   3.326   7.932 -0.3993 -0.5755  0.0582
   52CHL1  H16A 3796   4.964   3.342   7.961 -0.6426 -1.1816 -0.4952
   52CHL1  H16B 3797   5.117   3.235   7.976  1.5093  0.0110 -0.6862
   52CHL1   C17 3798   5.154   3.456   7.965 -0.5202 -0.2472 -0.0744
   52CHL1   H17 3799   5.257   3.420   7.986 -1.3139 -0.4105  3.9393
   52CHL1   C13 3800   5.150   3.543   7.840 -0.2233  0.5652  0.3999
   52CHL1   C18 3801   5.017   3.618   7.846  0.6631  0.7332  0.3037
   52CHL1  H18A 3802   4.994   3.674   7.753  3.1341  0.0640 -0.7444
   52CHL1  H18B 3803   4.933   3.548   7.866  1.1567  0.1775  0.4458
   52CHL1  H18C 3804   5.017   3.692   7.929  2.1181  0.8844  0.1824
   52CHL1   C12 3805   5.268   3.639   7.812 -0.7282 -0.0926 -0.0424
   52CHL1  H12A 3806   5.268   3.730   7.875 -1.3078 -0.1219  0.0014
   52CHL1  H12B 3807   5.363   3.586   7.834 -1.3584 -1.3885 -0.3683
   52CHL1   C11 3808   5.257   3.692   7.672  0.4084 -0.6597  0.1894
   52CHL1  H11A 3809   5.171   3.763   7.668  1.3529  0.6198  2.1328
   52CHL1  H11B 3810   5.353   3.743   7.651  0.9234 -0.6444  2.5431
   52CHL1    C9 3811   5.240   3.583   7.553  0.4704 -0.3437  0.4454
   52CHL1    H9 3812   5.340   3.535   7.550  0.0835 -1.1746  0.8302
   52CHL1   C10 3813   5.219   3.639   7.411  0.7833  0.3192 -0.1805
   52CHL1   C19 3814   5.099   3.743   7.414 -0.0401 -0.2629 -0.8109
   52CHL1  H19A 3815   5.121   3.828   7.482  0.9492 -0.6926 -0.5938
   52CHL1  H19B 3816   5.086   3.792   7.316 -1.9779 -1.8559 -1.3929
   52CHL1  H19C 3817   5.010   3.684   7.447  0.2181  0.2723  0.9061
   52CHL1    C1 3818   5.345   3.707   7.364  0.3067 -0.4299  0.4590
   52CHL1   H1A 3819   5.362   3.795   7.430  1.1915 -1.2371  1.3203
   52CHL1   H1B 3820   5.437   3.649   7.385  0.7961  1.1664  2.9440
   52CHL1    C2 3821   5.337   3.749   7.206  0.2028  0.5052  0.1681
   52CHL1   H2A 3822   5.435   3.777   7.163 -0.5527 -0.2930 -2.1652
   52CHL1   H2B 3823   5.272   3.840   7.201 -1.3893 -0.6498 -0.6130
   52CHL1   C20 3824   5.117   3.521   8.100  0.2931 -0.1236 -0.7859
   52CHL1   H20 3825   5.014   3.562   8.105 -0.9482 -3.0668 -1.6812
   52CHL1   C21 3826   5.207   3.641   8.131  0.1553  0.1163  0.1662
   52CHL1  H21A 3827   5.316   3.625   8.115 -0.4716 -3.0314 -1.2347
   52CHL1  H21B 3828   5.198   3.646   8.242 -1.2929 -2.0000  0.1633
   52CHL1  H21C 3829   5.178   3.735   8.080  0.4153 -1.7161 -3.5280
   52CHL1   C22 3830   5.116   3.411   8.210  0.1527 -0.3729  0.0144
   52CHL1  H22A 3831   5.047   3.332   8.173 -0.2361  0.7608 -1.7259
   52CHL1  H22B 3832   5.215   3.363   8.225  1.6082  2.9193  1.3676
   52CHL1   C23 3833   5.057   3.448   8.348 -0.0551 -0.5394  0.3661
   52CHL1  H23A 3834   5.140   3.505   8.395  0.4877 -0.8740 -0.1738
   52CHL1  H23B 3835   4.967   3.512   8.337  0.5909  0.4146  0.5948
   52CHL1   C24 3836   5.026   3.334   8.450  0.4022  0.2202 -0.6143
   52CHL1  H24A 3837   5.121   3.287   8.483  0.2484  0.6488  0.4511
   52CHL1  H24B 3838   4.992   3.390   8.539  0.2556 -3.2790  1.6528
   52CHL1   C25 3839   4.904   3.240   8.423  0.1715 -0.7724  0.0991
   52CHL1   H25 3840   4.890   3.250   8.313 -0.0630  0.8927  0.2698
   52CHL1   C26 3841   4.945   3.096   8.457  0.0540 -0.2004 -0.0461
   52CHL1  H26A 3842   5.002   3.045   8.376  0.4683 -1.8672  1.2680
   52CHL1  H26B 3843   5.006   3.090   8.550 -1.3375  0.5983  0.9257
   52CHL1  H26C 3844   4.852   3.039   8.473  0.5974 -0.8544  0.8692
   52CHL1   C27 3845   4.775   3.280   8.494 -0.3326  0.2615 -0.3550
   52CHL1  H27A 3846   4.784   3.313   8.600  0.1347  1.1811 -0.6748
   52CHL1  H27B 3847   4.747   3.379   8.452  3.0952  2.9605  3.2043
   52CHL1  H27C 3848   4.691   3.211   8.473 -1.1228  0.7553  1.0755
   53CHL1    C3 3849   1.731   6.528   6.922 -0.3560  0.6184 -0.1999
   53CHL1    H3 3850   1.797   6.601   6.974  0.0761  0.5987 -0.7191
   53CHL1    O3 3851   1.711   6.568   6.789 -0.7745 -0.5496  0.2411
   53CHL1   H3' 3852   1.746   6.499   6.732 -2.8359 -1.3073 -0.1630
   53CHL1    C4 3853   1.810   6.389   6.929 -0.3137  0.1910  0.6554
   53CHL1   H4A 3854   1.768   6.312   6.861  0.4985 -0.9667  1.4507
   53CHL1   H4B 3855   1.910   6.405   6.885 -0.1867 -0.1033  0.8355
   53CHL1    C5 3856   1.828   6.350   7.077 -0.3835 -0.7589  0.0777
   53CHL1    C6 3857   1.949   6.318   7.131  0.1700 -0.0976 -0.1068
   53CHL1    H6 3858   2.042   6.307   7.073  0.1044  1.2851 -0.5033
   53CHL1    C7 3859   1.965   6.282   7.273  0.2059 -0.6313 -0.1351
   53CHL1   H7A 3860   2.038   6.200   7.291 -1.1988 -2.1608 -1.3250
   53CHL1   H7B 3861   2.015   6.373   7.314  0.0825 -0.3998 -0.4942
   53CHL1    C8 3862   1.841   6.259   7.358  0.0659 -0.2030  0.2151
   53CHL1    H8 3863   1.800   6.157   7.341 -0.8688  0.2979 -0.5873
   53CHL1   C14 3864   1.872   6.293   7.504  0.6428  0.2718  0.1506
   53CHL1   H14 3865   1.893   6.402   7.512  2.7456 -0.1591  0.8175
   53CHL1   C15 3866   1.989   6.229   7.575  0.2114 -0.1552 -0.0660
   53CHL1  H15A 3867   1.999   6.131   7.524  0.1089 -1.0007  1.4968
   53CHL1  H15B 3868   2.083   6.289   7.581  1.9946 -2.7350 -1.1029
   53CHL1   C16 3869   1.953   6.210   7.720 -0.0888  0.8207 -0.2965
   53CHL1  H16A 3870   1.954   6.099   7.724  0.9862  0.7774 -1.6243
   53CHL1  H16B 3871   2.020   6.244   7.802  2.5368 -2.3771 -1.0637
   53CHL1   C17 3872   1.814   6.279   7.727  0.5705  0.1510 -0.1126
   53CHL1   H17 3873   1.847   6.385   7.724 -0.3787  0.4257 -1.5962
   53CHL1   C13 3874   1.747   6.259   7.586  0.4101  0.4234 -0.5790
   53CHL1   C18 3875   1.712   6.115   7.569  0.7432  0.0261  0.3239
   53CHL1  H18A 3876   1.792   6.040   7.588 -0.6046 -1.4172  0.4983
   53CHL1  H18B 3877   1.624   6.086   7.631 -0.4977  0.2396 -1.2934
   53CHL1  H18C 3878   1.659   6.097   7.473 -1.3795  1.5956  1.1533
   53CHL1   C12 3879   1.630   6.347   7.545  0.2109 -0.2816  0.2552
   53CHL1  H12A 3880   1.547   6.309   7.609 -0.1510  1.8495  1.0611
   53CHL1  H12B 3881   1.644   6.455   7.564  0.0361 -0.2269  0.0805
   53CHL1   C11 3882   1.600   6.338   7.396 -0.6297  0.2915 -0.1748
   53CHL1  H11A 3883   1.538   6.247   7.382  0.0543 -0.2514  0.2730
   53CHL1  H11B 3884   1.535   6.423   7.366 -0.8880 -0.8049 -2.8585
   53CHL1    C9 3885   1.731   6.353   7.314 -0.8223 -0.7793  0.8923
   53CHL1    H9 3886   1.766   6.454   7.342  0.1106 -0.1489 -2.2520
   53CHL1   C10 3887   1.698   6.352   7.159 -0.0134 -0.4551 -0.1999
   53CHL1   C19 3888   1.606   6.234   7.135  0.5313 -0.1368 -0.4365
   53CHL1  H19A 3889   1.644   6.145   7.190  0.9171  0.3812  0.1388
   53CHL1  H19B 3890   1.498   6.260   7.143  0.1253 -2.0098  0.5250
   53CHL1  H19C 3891   1.610   6.215   7.026 -1.3237  1.4337 -0.7986
   53CHL1    C1 3892   1.613   6.486   7.130  0.1849 -0.5798  0.1701
   53CHL1   H1A 3893   1.514   6.502   7.178  1.0950  0.0193  1.8781
   53CHL1   H1B 3894   1.685   6.563   7.164 -0.3251 -0.5179  1.1150
   53CHL1    C2 3895   1.588   6.521   6.985  0.1643  0.0422  1.1975
   53CHL1   H2A 3896   1.536   6.619   6.971  2.5625  1.2433  0.4842
   53CHL1   H2B 3897   1.531   6.442   6.933 -1.5349  1.1146  1.3858
   53CHL1   C20 3898   1.737   6.259   7.861  0.9263  0.5394 -0.5070
   53CHL1   H20 3899   1.635   6.295   7.839  0.1601 -0.5460  1.1682
   53CHL1   C21 3900   1.790   6.362   7.954 -0.4519 -0.5333  0.2583
   53CHL1  H21A 3901   1.739   6.361   8.053 -0.0980  0.0183  0.4476
   53CHL1  H21B 3902   1.786   6.466   7.916  0.5548  0.0345  1.6724
   53CHL1  H21C 3903   1.896   6.338   7.977 -0.4964  0.1699  1.2139
   53CHL1   C22 3904   1.733   6.116   7.918 -0.4961  0.4027 -0.7747
   53CHL1  H22A 3905   1.692   6.048   7.841 -0.5173  0.4272 -0.7851
   53CHL1  H22B 3906   1.836   6.082   7.943 -0.9568 -0.1523  0.3988
   53CHL1   C23 3907   1.648   6.111   8.050 -0.2811  0.2323 -0.0327
   53CHL1  H23A 3908   1.698   6.157   8.138 -0.8239 -0.1761  0.4975
   53CHL1  H23B 3909   1.554   6.168   8.031  0.3614  1.3109  0.0207
   53CHL1   C24 3910   1.608   5.964   8.091 -0.1227  0.1441  0.0537
   53CHL1  H24A 3911   1.542   5.916   8.017  0.9394 -1.6263  0.2316
   53CHL1  H24B 3912   1.702   5.904   8.094 -0.9476 -1.4051 -3.2019
   53CHL1   C25 3913   1.528   5.955   8.230  0.2994 -0.3519 -0.3432
   53CHL1   H25 3914   1.437   6.018   8.218 -1.0136 -2.2191 -0.4729
   53CHL1   C26 3915   1.467   5.814   8.250 -0.2209  0.3139  0.5652
   53CHL1  H26A 3916   1.540   5.734   8.226 -1.3511 -0.9818  1.3874
   53CHL1  H26B 3917   1.440   5.790   8.355  0.6616 -1.9330  0.3185
   53CHL1  H26C 3918   1.372   5.792   8.198 -0.8551  2.0661  0.9394
   53CHL1   C27 3919   1.615   5.993   8.350  0.0885  0.6025  0.2898
   53CHL1  H27A 3920   1.657   6.095   8.338 -1.0634  1.1547  0.9769
   53CHL1  H27B 3921   1.565   6.002   8.448  1.3551  1.7064  0.8591
   53CHL1  H27C 3922   1.708   5.934   8.367 -2.1191 -3.4535 -0.9804
   54CHL1    C3 3923   2.098   1.333   6.962  0.5688  0.7950  0.2873
   54CHL1    H3 3924   2.000   1.382   6.982 -1.2798 -1.9122 -1.8391
   54CHL1    O3 3925   2.093   1.305   6.827 -0.2052 -0.5181  0.7041
   54CHL1   H3' 3926   2.177   1.265   6.804 -1.5650 -2.4349 -1.0844
   54CHL1    C4 3927   2.207   1.435   7.010 -0.9060  0.0349  0.3233
   54CHL1   H4A 3928   2.306   1.400   6.974 -0.7528  1.0824 -0.2947
   54CHL1   H4B 3929   2.197   1.529   6.951 -2.4904 -0.4960 -0.3019
   54CHL1    C5 3930   2.213   1.446   7.168 -0.6768  0.2512 -0.5729
   54CHL1    C6 3931   2.204   1.563   7.230  0.2736 -0.8250 -0.0925
   54CHL1    H6 3932   2.195   1.659   7.177 -1.2138  0.5233  2.4705
   54CHL1    C7 3933   2.209   1.582   7.374 -0.5429  0.9575  0.4346
   54CHL1   H7A 3934   2.276   1.663   7.410 -0.7486  0.7243  1.3577
   54CHL1   H7B 3935   2.108   1.605   7.415 -0.6234  1.5434 -0.0744
   54CHL1    C8 3936   2.265   1.459   7.452 -0.0992  0.3548  0.1036
   54CHL1    H8 3937   2.375   1.458   7.438 -0.2888 -1.7441 -1.5494
   54CHL1   C14 3938   2.238   1.472   7.601  0.0858 -0.0683 -0.2562
   54CHL1   H14 3939   2.127   1.483   7.600 -0.0477 -1.1287  1.0071
   54CHL1   C15 3940   2.282   1.607   7.666  0.6538 -0.1812  0.1055
   54CHL1  H15A 3941   2.387   1.642   7.653 -0.2606  1.8988 -2.1152
   54CHL1  H15B 3942   2.217   1.691   7.633  0.4257  0.2397  1.5722
   54CHL1   C16 3943   2.249   1.590   7.816  0.3671 -0.3849 -1.1374
   54CHL1  H16A 3944   2.325   1.638   7.882 -0.9806 -1.7447  1.4825
   54CHL1  H16B 3945   2.154   1.640   7.844  0.5490 -1.0065  0.6380
   54CHL1   C17 3946   2.229   1.439   7.828 -0.0027  0.0313  0.2827
   54CHL1   H17 3947   2.120   1.423   7.838 -0.0328  1.0662  1.6949
   54CHL1   C13 3948   2.277   1.365   7.695  0.2084  0.1779 -0.3145
   54CHL1   C18 3949   2.436   1.348   7.695  0.5367  0.8115 -0.0142
   54CHL1  H18A 3950   2.473   1.253   7.739  0.2761 -0.7145 -2.9323
   54CHL1  H18B 3951   2.477   1.365   7.593  1.3777  1.2701  0.3961
   54CHL1  H18C 3952   2.473   1.426   7.765  0.2034 -0.0877  1.1787
   54CHL1   C12 3953   2.209   1.238   7.640  0.4439  0.0653 -0.4387
   54CHL1  H12A 3954   2.246   1.151   7.699  0.4707  1.8925  2.3321
   54CHL1  H12B 3955   2.099   1.240   7.652  0.1023 -1.3835 -2.9192
   54CHL1   C11 3956   2.246   1.212   7.485  0.3831  1.1121  0.9120
   54CHL1  H11A 3957   2.356   1.197   7.482 -0.1393 -2.9760 -0.9608
   54CHL1  H11B 3958   2.191   1.123   7.447  0.9656  1.0446  0.2141
   54CHL1    C9 3959   2.207   1.331   7.394 -0.3676 -0.0986 -0.0737
   54CHL1    H9 3960   2.097   1.336   7.405 -0.3561  2.3486 -0.6809
   54CHL1   C10 3961   2.225   1.314   7.249 -0.5202  0.2414 -0.5178
   54CHL1   C19 3962   2.364   1.255   7.227 -0.1269 -0.4116  0.2104
   54CHL1  H19A 3963   2.373   1.155   7.273  1.7908 -0.8152 -0.9795
   54CHL1  H19B 3964   2.390   1.239   7.120  1.5686 -1.5358  0.7768
   54CHL1  H19C 3965   2.448   1.311   7.274  0.3513  0.0661 -1.1722
   54CHL1    C1 3966   2.120   1.214   7.188  0.1332  0.5358  0.3923
   54CHL1   H1A 3967   2.139   1.114   7.233 -1.1968  0.6346  1.1857
   54CHL1   H1B 3968   2.017   1.250   7.211  0.2618  3.2520 -2.7599
   54CHL1    C2 3969   2.118   1.200   7.035  0.3379 -0.1477  0.1342
   54CHL1   H2A 3970   2.028   1.145   7.001  0.0586  0.7080 -0.5207
   54CHL1   H2B 3971   2.215   1.156   7.004  0.2541 -0.1225 -0.1576
   54CHL1   C20 3972   2.281   1.376   7.955 -0.3114 -0.4727  0.0698
   54CHL1   H20 3973   2.392   1.372   7.948 -0.4107 -0.6302 -1.6220
   54CHL1   C21 3974   2.243   1.232   7.973  0.2103 -0.5701 -0.3850
   54CHL1  H21A 3975   2.259   1.191   8.075  1.4962  2.1746  0.5834
   54CHL1  H21B 3976   2.299   1.164   7.906  2.2024  1.1398 -0.5217
   54CHL1  H21C 3977   2.133   1.229   7.956  0.1958 -2.6617 -0.0157
   54CHL1   C22 3978   2.234   1.455   8.085 -0.5206 -0.4006 -0.4200
   54CHL1  H22A 3979   2.293   1.410   8.168 -1.7594 -0.5499  0.3914
   54CHL1  H22B 3980   2.269   1.560   8.083  0.2755 -0.5622  2.4178
   54CHL1   C23 3981   2.084   1.456   8.120 -0.2785 -0.6014  0.4031
   54CHL1  H23A 3982   2.026   1.515   8.045  1.0622 -0.7041 -0.7388
   54CHL1  H23B 3983   2.049   1.351   8.128  0.2829 -0.8879 -0.8303
   54CHL1   C24 3984   2.060   1.528   8.257 -0.1002  0.1794 -0.7744
   54CHL1  H24A 3985   2.097   1.471   8.345 -1.5788 -0.3257 -0.4504
   54CHL1  H24B 3986   2.121   1.620   8.251 -0.8723  0.6218 -2.1095
   54CHL1   C25 3987   1.910   1.547   8.280  0.0889 -0.1269 -0.3516
   54CHL1   H25 3988   1.864   1.585   8.186  0.3134  0.2586 -0.3058
   54CHL1   C26 3989   1.832   1.416   8.308 -0.4857  0.1090  0.0314
   54CHL1  H26A 3990   1.844   1.359   8.213  0.1283  2.1632 -1.1436
   54CHL1  H26B 3991   1.898   1.364   8.381 -1.5977 -0.7018  0.4625
   54CHL1  H26C 3992   1.725   1.438   8.324 -0.5712  0.5776 -1.1225
   54CHL1   C27 3993   1.888   1.642   8.400  0.3047 -0.1372  0.6893
   54CHL1  H27A 3994   1.924   1.590   8.492  1.5533 -2.5232 -1.0961
   54CHL1  H27B 3995   1.953   1.730   8.382 -2.1051  1.2930 -1.5203
   54CHL1  H27C 3996   1.781   1.672   8.401  0.3960  0.4519 -2.2029
   55CHL1    C3 3997   2.074   3.508   7.045 -0.4030  0.0232  0.4148
   55CHL1    H3 3998   2.170   3.462   7.013  0.0821  0.1479  1.6394
   55CHL1    O3 3999   2.021   3.592   6.940  0.2962 -0.5390 -0.1980
   55CHL1   H3' 4000   1.925   3.587   6.938  0.1487  1.2389  0.9779
   55CHL1    C4 4001   1.968   3.388   7.055  0.0862 -0.4823 -0.3782
   55CHL1   H4A 4002   1.868   3.436   7.067  0.9511  1.3048 -0.0374
   55CHL1   H4B 4003   1.977   3.323   6.966  1.6514 -1.4195  0.4450
   55CHL1    C5 4004   2.001   3.309   7.175  0.6593  0.1491 -0.3367
   55CHL1    C6 4005   2.012   3.174   7.163 -0.0569  0.2011  0.9577
   55CHL1    H6 4006   2.010   3.125   7.064  3.5125  0.7126  0.5741
   55CHL1    C7 4007   2.032   3.078   7.282 -0.0451  0.3335  0.7886
   55CHL1   H7A 4008   1.960   2.993   7.291 -0.4089  0.6157  0.5549
   55CHL1   H7B 4009   2.132   3.029   7.280 -0.6543 -0.9741  1.2594
   55CHL1    C8 4010   2.018   3.145   7.419  0.1884  0.1646 -0.0757
   55CHL1    H8 4011   1.912   3.139   7.451 -0.1733 -1.5906 -1.5531
   55CHL1   C14 4012   2.073   3.065   7.528 -0.4506  0.3534 -0.6749
   55CHL1   H14 4013   2.179   3.070   7.495 -0.7195 -1.8916 -1.9561
   55CHL1   C15 4014   2.059   2.911   7.542 -0.0100 -0.2932 -0.8218
   55CHL1  H15A 4015   1.953   2.882   7.527 -0.7705  1.5794  0.8126
   55CHL1  H15B 4016   2.129   2.855   7.475  1.3830 -0.6861  0.9295
   55CHL1   C16 4017   2.094   2.880   7.688  0.7240  0.5197 -0.0189
   55CHL1  H16A 4018   2.007   2.849   7.750  1.1891 -2.6448 -0.8241
   55CHL1  H16B 4019   2.167   2.796   7.692 -0.9238 -0.9915 -0.6633
   55CHL1   C17 4020   2.154   3.011   7.748  0.6046  0.9811 -0.0663
   55CHL1   H17 4021   2.259   3.013   7.712 -0.0574  2.3927 -1.9879
   55CHL1   C13 4022   2.087   3.126   7.673  0.4930  0.1399 -0.7331
   55CHL1   C18 4023   1.947   3.156   7.728  0.2761 -0.3842 -0.1307
   55CHL1  H18A 4024   1.901   3.242   7.674 -1.5507  0.2471  2.3534
   55CHL1  H18B 4025   1.885   3.069   7.698 -2.7057  1.5800  0.1146
   55CHL1  H18C 4026   1.936   3.175   7.837  1.0815  0.3109 -0.1728
   55CHL1   C12 4027   2.164   3.257   7.671 -0.4050  0.6907  0.0883
   55CHL1  H12A 4028   2.177   3.302   7.772  2.6128 -1.7425  0.8729
   55CHL1  H12B 4029   2.271   3.239   7.651 -0.6104  0.3372 -0.6994
   55CHL1   C11 4030   2.115   3.354   7.564 -0.4071 -0.3947  0.2254
   55CHL1  H11A 4031   2.029   3.411   7.605 -0.0826  0.7484 -0.6353
   55CHL1  H11B 4032   2.193   3.434   7.561 -0.0788 -0.7264 -0.1589
   55CHL1    C9 4033   2.085   3.282   7.420  0.3976 -0.7813  0.0134
   55CHL1    H9 4034   2.187   3.264   7.379 -0.2630 -1.1321 -1.4917
   55CHL1   C10 4035   2.014   3.370   7.316  0.3775 -0.4335  0.1495
   55CHL1   C19 4036   1.876   3.412   7.364  0.2116  0.5228 -1.1094
   55CHL1  H19A 4037   1.839   3.493   7.298  0.4510  0.7142 -1.0113
   55CHL1  H19B 4038   1.802   3.330   7.381  1.7794 -0.9577 -1.3521
   55CHL1  H19C 4039   1.887   3.444   7.470  0.3661  1.2589 -1.3479
   55CHL1    C1 4040   2.107   3.499   7.300  0.4031 -0.2563 -0.4008
   55CHL1   H1A 4041   2.109   3.559   7.393  0.2780 -0.9367  0.0508
   55CHL1   H1B 4042   2.211   3.465   7.279  0.4810 -0.6389  0.6089
   55CHL1    C2 4043   2.073   3.592   7.178  0.0358 -0.1216 -1.2034
   55CHL1   H2A 4044   2.147   3.674   7.173  0.7541 -0.7305 -0.6317
   55CHL1   H2B 4045   1.977   3.647   7.196  0.7370  0.5746  0.4818
   55CHL1   C20 4046   2.167   3.020   7.899 -0.3429 -0.2666  0.1930
   55CHL1   H20 4047   2.150   3.123   7.935 -0.4004 -0.5616  1.0227
   55CHL1   C21 4048   2.321   2.988   7.927 -0.8344 -0.0346  0.1959
   55CHL1  H21A 4049   2.360   2.893   7.883  0.5545  0.2971  0.7014
   55CHL1  H21B 4050   2.335   2.970   8.035 -2.4228 -1.6560  0.1586
   55CHL1  H21C 4051   2.387   3.073   7.900  0.7505 -0.7365  1.7352
   55CHL1   C22 4052   2.065   2.935   7.977 -0.2243 -0.0217  1.2193
   55CHL1  H22A 4053   1.967   2.959   7.931  0.7743  0.3173 -0.8348
   55CHL1  H22B 4054   2.081   2.825   7.970  0.5066  0.2081 -1.3834
   55CHL1   C23 4055   2.063   2.968   8.132 -0.0045  0.0624  0.2148
   55CHL1  H23A 4056   2.168   2.960   8.167  1.0237  4.9096 -1.4176
   55CHL1  H23B 4057   2.034   3.074   8.144 -1.9342 -0.6108  1.6303
   55CHL1   C24 4058   1.977   2.873   8.216  0.7722 -0.6123 -0.2788
   55CHL1  H24A 4059   1.892   2.849   8.150  1.7470  3.9382 -3.4035
   55CHL1  H24B 4060   2.039   2.785   8.246  1.4861  0.4649  1.5026
   55CHL1   C25 4061   1.923   2.945   8.338  1.1618 -0.7412 -0.3024
   55CHL1   H25 4062   1.885   3.044   8.307  2.1999 -1.0487 -2.6501
   55CHL1   C26 4063   1.803   2.868   8.405 -0.4781 -0.3447 -0.0444
   55CHL1  H26A 4064   1.764   2.917   8.497 -0.4808 -0.4577  0.0134
   55CHL1  H26B 4065   1.714   2.852   8.340 -0.9171  1.4596  0.0629
   55CHL1  H26C 4066   1.832   2.769   8.445 -1.2026  0.4732  2.5690
   55CHL1   C27 4067   2.033   2.957   8.450 -0.7640 -0.0258 -0.5770
   55CHL1  H27A 4068   1.986   2.990   8.545 -0.3679 -0.3108 -0.2800
   55CHL1  H27B 4069   2.067   2.852   8.463 -0.2511  0.2519  0.3537
   55CHL1  H27C 4070   2.121   3.018   8.419  1.1540 -0.9385  2.8058
   56CHL1    C3 4071   1.218   1.073   6.940 -0.1240 -0.4990  0.0726
   56CHL1    H3 4072   1.275   1.161   6.977 -3.3132  0.7099  2.2875
   56CHL1    O3 4073   1.212   1.080   6.800  0.2991  0.4830  0.1218
   56CHL1   H3' 4074   1.180   1.169   6.784 -0.3100  0.1373 -0.6179
   56CHL1    C4 4075   1.289   0.942   6.979  0.3339  0.6326 -0.1515
   56CHL1   H4A 4076   1.240   0.856   6.930  0.7655  0.4761 -0.3071
   56CHL1   H4B 4077   1.391   0.934   6.936  0.4441 -0.9652  0.3969
   56CHL1    C5 4078   1.291   0.927   7.129 -0.0928  0.5640  0.1172
   56CHL1    C6 4079   1.414   0.918   7.186  0.7999  0.7723  0.1963
   56CHL1    H6 4080   1.502   0.915   7.120 -0.2897  0.1144 -1.2329
   56CHL1    C7 4081   1.431   0.917   7.332 -0.1720  0.1995 -0.0383
   56CHL1   H7A 4082   1.518   0.854   7.362 -0.7908  0.4559  2.3475
   56CHL1   H7B 4083   1.446   1.018   7.375  0.9295  0.2514 -0.5209
   56CHL1    C8 4084   1.302   0.866   7.405 -0.3889  0.3267 -0.9619
   56CHL1    H8 4085   1.304   0.759   7.376  0.4478  0.0684  0.0245
   56CHL1   C14 4086   1.312   0.892   7.556  0.2638  0.0893 -0.5621
   56CHL1   H14 4087   1.301   1.002   7.568 -1.2490 -0.0960 -0.0837
   56CHL1   C15 4088   1.433   0.825   7.633 -0.6129 -0.1295 -0.0004
   56CHL1  H15A 4089   1.440   0.719   7.602  4.4218  0.5164 -1.5922
   56CHL1  H15B 4090   1.534   0.867   7.613 -1.1228  0.5024 -1.3354
   56CHL1   C16 4091   1.394   0.833   7.780  0.2100 -0.4037 -0.3575
   56CHL1  H16A 4092   1.420   0.735   7.824  0.1112 -0.5293 -0.5780
   56CHL1  H16B 4093   1.443   0.907   7.846 -1.6560  2.3831 -1.9552
   56CHL1   C17 4094   1.240   0.864   7.774  0.2054 -0.7587  0.3222
   56CHL1   H17 4095   1.229   0.973   7.793 -0.3613 -0.1542 -3.0812
   56CHL1   C13 4096   1.186   0.844   7.632  0.4516 -0.3205 -0.4909
   56CHL1   C18 4097   1.171   0.688   7.609 -0.2141  0.0976 -0.1599
   56CHL1  H18A 4098   1.131   0.654   7.511 -0.5800 -4.2219  1.3992
   56CHL1  H18B 4099   1.258   0.624   7.636  0.0091  0.1565 -0.7351
   56CHL1  H18C 4100   1.087   0.656   7.674 -0.0275  0.5623  0.3146
   56CHL1   C12 4101   1.063   0.921   7.583  0.0389 -0.6167  0.0295
   56CHL1  H12A 4102   0.973   0.884   7.637  0.2025  0.2960  0.9658
   56CHL1  H12B 4103   1.063   1.026   7.619  0.2705 -0.8580  0.7555
   56CHL1   C11 4104   1.051   0.917   7.433 -1.0907 -0.4335  0.1111
   56CHL1  H11A 4105   1.004   0.822   7.402  0.2893 -0.2368 -2.7926
   56CHL1  H11B 4106   0.977   0.998   7.417  0.0522  0.6633  0.2495
   56CHL1    C9 4107   1.185   0.944   7.350 -0.4815 -0.5202 -0.3164
   56CHL1    H9 4108   1.199   1.050   7.379 -1.1249 -0.3495 -0.6068
   56CHL1   C10 4109   1.158   0.931   7.196  0.1196  0.4792  0.2867
   56CHL1   C19 4110   1.080   0.805   7.154  0.2251 -0.4301 -0.0778
   56CHL1  H19A 4111   1.139   0.716   7.181  2.0411 -0.4389 -3.7760
   56CHL1  H19B 4112   0.979   0.808   7.200  0.0321  0.9500 -0.5466
   56CHL1  H19C 4113   1.058   0.802   7.045 -0.9497 -1.0399  0.1670
   56CHL1    C1 4114   1.081   1.054   7.151 -0.4096 -0.3430 -1.4454
   56CHL1   H1A 4115   0.977   1.070   7.185 -0.2428 -0.7412 -0.7546
   56CHL1   H1B 4116   1.141   1.139   7.191 -1.2619  0.2448 -1.3976
   56CHL1    C2 4117   1.079   1.076   6.998  0.5103  0.5305  0.0836
   56CHL1   H2A 4118   1.026   1.172   6.981 -1.3060  0.0241  2.6782
   56CHL1   H2B 4119   1.013   0.999   6.953  0.9779 -1.2874  2.4246
   56CHL1   C20 4120   1.165   0.802   7.900 -0.8172 -0.6000  0.0881
   56CHL1   H20 4121   1.177   0.691   7.901  0.4428 -0.4808 -0.2156
   56CHL1   C21 4122   1.017   0.830   7.902 -0.5535 -0.2383  0.2821
   56CHL1  H21A 4123   0.986   0.930   7.864  0.1482  0.5117  1.6731
   56CHL1  H21B 4124   0.971   0.830   8.003 -0.5912  2.3289  0.2928
   56CHL1  H21C 4125   0.962   0.759   7.836 -1.5872 -0.5935  1.5160
   56CHL1   C22 4126   1.218   0.848   8.036  0.5951  0.0284 -0.1647
   56CHL1  H22A 4127   1.306   0.914   8.022 -0.9650  2.2233  0.3077
   56CHL1  H22B 4128   1.142   0.912   8.086  0.1590 -1.1203  0.6828
   56CHL1   C23 4129   1.244   0.727   8.128  0.4035  0.1532  0.4835
   56CHL1  H23A 4130   1.145   0.676   8.132 -0.6568  1.9366 -1.6602
   56CHL1  H23B 4131   1.309   0.650   8.080  0.2342  0.0867  0.3600
   56CHL1   C24 4132   1.291   0.763   8.267 -0.1986 -0.0491 -0.6503
   56CHL1  H24A 4133   1.210   0.828   8.308 -1.3003  0.7244 -3.9236
   56CHL1  H24B 4134   1.299   0.676   8.335 -1.9062 -1.2893 -2.0041
   56CHL1   C25 4135   1.427   0.835   8.263 -0.5491  0.8370 -0.7263
   56CHL1   H25 4136   1.411   0.922   8.195 -2.1266  1.0902 -0.0555
   56CHL1   C26 4137   1.453   0.895   8.405 -0.2131  0.4722 -0.3815
   56CHL1  H26A 4138   1.374   0.965   8.440  0.3356  1.2579 -0.7081
   56CHL1  H26B 4139   1.549   0.946   8.381 -0.7398  1.0718 -1.2403
   56CHL1  H26C 4140   1.482   0.824   8.486 -0.3925  0.0738 -0.6668
   56CHL1   C27 4141   1.544   0.761   8.203  0.4800 -0.5728 -0.7473
   56CHL1  H27A 4142   1.539   0.752   8.092  0.7961  0.1885 -0.8311
   56CHL1  H27B 4143   1.636   0.822   8.215  0.1606 -0.2526  0.1487
   56CHL1  H27C 4144   1.564   0.671   8.264  1.3191  0.4492  0.5168
   57SAPC     N 4145   1.015   3.868  10.887  0.3069 -0.3876 -0.6475
   57SAPC   C12 4146   1.014   4.005  10.940 -0.0273  0.2740 -0.6277
   57SAPC  H12A 4147   1.065   4.069  10.870 -0.0235 -1.0496 -1.8578
   57SAPC  H12B 4148   1.072   4.011  11.031 -2.9667  0.4437  1.3146
   57SAPC   C13 4149   0.933   3.849  10.770  0.0035  0.7145  0.5456
   57SAPC  H13A 4150   0.932   3.747  10.734  0.0583  1.0747 -0.4817
   57SAPC  H13B 4151   0.833   3.876  10.798 -0.9868 -2.9261  0.8188
   57SAPC  H13C 4152   0.956   3.909  10.683 -0.0403  0.0602  0.0807
   57SAPC   C14 4153   1.148   3.815  10.857  0.2126  0.6155  0.3456
   57SAPC  H14A 4154   1.198   3.892  10.799  1.9253  0.2141  1.2548
   57SAPC  H14B 4155   1.201   3.800  10.950 -0.9375 -0.9776  0.7519
   57SAPC  H14C 4156   1.145   3.721  10.804 -1.5268 -0.0387  1.5635
   57SAPC   C15 4157   0.966   3.778  11.003 -0.1207  0.2122 -0.1708
   57SAPC  H15A 4158   0.862   3.805  11.007 -0.2122  0.0271 -1.1451
   57SAPC  H15B 4159   0.975   3.674  10.976  0.2567  0.2540 -0.2030
   57SAPC  H15C 4160   1.015   3.798  11.097  0.2360  0.3594 -0.3842
   57SAPC   C11 4161   0.873   4.067  10.963 -0.1975 -0.3378  0.7273
   57SAPC  H11A 4162   0.898   4.163  11.014 -1.2880  0.3697 -0.0470
   57SAPC  H11B 4163   0.817   4.010  11.039  0.3937 -1.9556 -0.0415
   57SAPC     P 4164   0.650   4.148  10.848  0.0601  0.5480 -0.0258
   57SAPC   O13 4165   0.565   4.030  10.866 -0.0219 -0.1681 -0.0508
   57SAPC   O14 4166   0.635   4.257  10.943 -0.4037  0.1355  0.2936
   57SAPC   O12 4167   0.798   4.100  10.840  0.1060 -0.7314  0.1292
   57SAPC   O11 4168   0.619   4.203  10.709 -0.0928 -0.2346 -0.0927
   57SAPC    C1 4169   0.678   4.145  10.585 -0.1148 -0.2694 -0.5244
   57SAPC    HA 4170   0.789   4.150  10.588 -0.1476  0.3621 -0.3704
   57SAPC    HB 4171   0.651   4.037  10.577 -0.4584 -0.2919  0.8221
   57SAPC    C2 4172   0.620   4.206  10.455 -0.4725 -0.4789  0.0363
   57SAPC    HS 4173   0.615   4.131  10.373  0.8866 -0.3143 -0.2071
   57SAPC   O21 4174   0.704   4.319  10.411 -0.1539  0.4268 -0.5317
   57SAPC   C21 4175   0.814   4.278  10.347 -0.1910 -0.2028 -0.1701
   57SAPC   O22 4176   0.844   4.158  10.334  0.7211  0.2889  0.5641
   57SAPC   C22 4177   0.886   4.395  10.282  0.3507 -0.2412  1.0353
   57SAPC   H2R 4178   0.817   4.473  10.243 -0.3356 -0.9588  0.8251
   57SAPC   H2S 4179   0.939   4.443  10.367 -0.6814  0.6441  1.1909
   57SAPC    C3 4180   0.479   4.253  10.479 -0.1206  0.0438  0.3647
   57SAPC    HX 4181   0.471   4.349  10.536  1.8513 -1.1624  2.7528
   57SAPC    HY 4182   0.444   4.168  10.541 -2.1878  0.4078 -0.2431
   57SAPC   O31 4183   0.408   4.259  10.355  0.0368  0.3964  0.1464
   57SAPC   C31 4184   0.273   4.269  10.374  0.7711  0.2958 -0.4232
   57SAPC   O32 4185   0.219   4.305  10.478  0.0429  0.4305  0.0222
   57SAPC   C32 4186   0.202   4.252  10.234  0.1930  0.3614  0.1195
   57SAPC   H2X 4187   0.201   4.143  10.213 -0.5501  0.0819  1.5451
   57SAPC   H2Y 4188   0.275   4.294  10.161  0.8145  1.7475  1.4974
   57SAPC   C23 4189   0.982   4.358  10.166  0.5511  0.2258  0.0879
   57SAPC   H3R 4190   1.054   4.276  10.186  2.6698  1.0661 -3.6517
   57SAPC   H3S 4191   1.032   4.456  10.151  0.9905 -0.0909 -0.5437
   57SAPC   C24 4192   0.911   4.328  10.028  0.5498  0.1498  0.7230
   57SAPC   H4R 4193   0.864   4.423   9.994 -1.0550 -0.8959 -0.0933
   57SAPC   H4S 4194   0.823   4.270  10.062 -0.9330 -0.0451 -3.2091
   57SAPC   C25 4195   0.988   4.249   9.934  0.2236 -0.3672  0.5111
   57SAPC   H5R 4196   1.036   4.161   9.979 -0.2280  0.0168  1.7671
   57SAPC   C26 4197   0.988   4.270   9.802  0.4046  0.3972 -0.8211
   57SAPC   H6R 4198   1.040   4.199   9.736 -1.6234  0.5498 -2.6325
   57SAPC   C27 4199   0.911   4.375   9.727  0.0113  0.5070  0.6770
   57SAPC   H7R 4200   0.843   4.444   9.782  1.7255  2.2396  0.6849
   57SAPC   H7S 4201   0.839   4.319   9.665  0.5477  1.6618 -1.0161
   57SAPC   C28 4202   0.994   4.472   9.645  0.3147 -0.3351  0.2334
   57SAPC   H8R 4203   1.038   4.548   9.711  0.3702 -0.1172 -0.0544
   57SAPC   C29 4204   1.023   4.467   9.514  0.0740  0.1406  0.0935
   57SAPC   H9R 4205   1.104   4.527   9.471  0.5201 -1.5907 -1.5547
   57SAPC  C210 4206   0.965   4.356   9.423  0.3930 -0.5146 -0.4096
   57SAPC  H10R 4207   0.855   4.357   9.431  0.4088  2.2175  0.1122
   57SAPC  H10S 4208   1.010   4.259   9.452 -2.0921 -1.6796 -0.4013
   57SAPC  C211 4209   1.001   4.376   9.275  0.2626  0.1639  0.5179
   57SAPC  H11R 4210   1.079   4.446   9.244  0.0104 -0.6057 -1.9532
   57SAPC  C212 4211   0.946   4.315   9.167  0.4606 -0.0644 -0.0367
   57SAPC  H12R 4212   1.000   4.312   9.072  2.3808 -1.2958  1.0557
   57SAPC  C213 4213   0.838   4.214   9.172 -0.4326 -0.5550  0.3945
   57SAPC  H13R 4214   0.779   4.220   9.266 -0.6345  1.4948  0.1650
   57SAPC  H13S 4215   0.889   4.117   9.189 -1.5629 -1.1650  0.3569
   57SAPC  C214 4216   0.764   4.195   9.041 -0.1865 -0.1965  0.4254
   57SAPC  H14R 4217   0.696   4.280   9.022 -2.3069 -1.2827  2.8507
   57SAPC  C215 4218   0.753   4.087   8.958 -0.5346  0.2600  0.4517
   57SAPC  H15R 4219   0.681   4.091   8.875  0.0463 -2.0778 -0.1871
   57SAPC  C216 4220   0.824   3.956   8.974 -0.0729 -0.1326 -0.2494
   57SAPC  H16R 4221   0.743   3.883   8.993  1.5768 -1.5532  1.4619
   57SAPC  H16S 4222   0.890   3.951   9.063  2.2149 -1.8655 -2.0115
   57SAPC  C217 4223   0.901   3.921   8.845 -0.6908 -0.0615  0.9476
   57SAPC  H17R 4224   0.975   3.840   8.862  0.4025  0.3962 -1.4188
   57SAPC  H17S 4225   0.954   4.015   8.818 -1.9888  1.1842  2.6092
   57SAPC  C218 4226   0.812   3.876   8.729  0.3897  0.5136 -0.2089
   57SAPC  H18R 4227   0.744   3.962   8.711 -1.4761 -0.5604  1.5914
   57SAPC  H18S 4228   0.756   3.785   8.759  1.8052 -0.9218 -1.7518
   57SAPC  C219 4229   0.899   3.850   8.601  0.1637  0.1412 -0.1917
   57SAPC  H19R 4230   0.979   3.926   8.592  1.0515 -0.8561 -0.9517
   57SAPC  H19S 4231   0.830   3.858   8.514 -0.2951  1.1463  0.2618
   57SAPC  C220 4232   0.965   3.708   8.598  0.2817 -0.3009  0.5689
   57SAPC  H20R 4233   1.018   3.679   8.691  0.0389 -1.1114  0.4556
   57SAPC  H20S 4234   1.033   3.692   8.511  1.9826 -0.4100  1.9013
   57SAPC  H20T 4235   0.884   3.633   8.595  0.6366 -0.6718  0.2977
   57SAPC   C33 4236   0.063   4.319  10.238 -0.3956 -0.1908  0.5534
   57SAPC   H3X 4237   0.078   4.426  10.263 -2.1407  0.6024 -1.5605
   57SAPC   H3Y 4238   0.007   4.261  10.314 -1.5859  0.8308  0.4778
   57SAPC   C34 4239  -0.012   4.305  10.102  0.0400  0.3337  0.5547
   57SAPC   H4X 4240  -0.110   4.357  10.099 -0.5095 -0.5952  1.8333
   57SAPC   H4Y 4241  -0.041   4.198  10.093  0.1954  0.0547  2.9565
   57SAPC   C35 4242   0.062   4.369   9.988  0.4016  0.2901  0.3835
   57SAPC   H5X 4243   0.161   4.320   9.974  0.4329 -0.0161  1.5920
   57SAPC   H5Y 4244   0.070   4.477  10.012 -0.6834 -0.2287  3.2355
   57SAPC   C36 4245  -0.019   4.351   9.855  0.5457 -0.2336  0.2894
   57SAPC   H6X 4246  -0.127   4.371   9.866  0.7065 -0.0862  1.6331
   57SAPC   H6Y 4247  -0.004   4.245   9.828  0.4736 -0.6146  1.7391
   57SAPC   C37 4248   0.025   4.433   9.732 -0.4696 -0.6314  0.4981
   57SAPC   H7X 4249   0.136   4.437   9.733 -0.5050  2.9727 -0.7197
   57SAPC   H7Y 4250  -0.001   4.541   9.738  1.7285 -0.0249 -0.1645
   57SAPC   C38 4251  -0.024   4.369   9.602  0.3633  0.0241 -0.2424
   57SAPC   H8X 4252  -0.130   4.337   9.606 -0.4673  2.4659 -1.5054
   57SAPC   H8Y 4253   0.038   4.278   9.587 -1.2571 -0.8835 -1.7081
   57SAPC   C39 4254  -0.023   4.462   9.477 -0.4269 -0.1715 -0.0074
   57SAPC   H9X 4255   0.083   4.479   9.449  0.6457 -1.1626  3.2257
   57SAPC   H9Y 4256  -0.064   4.564   9.492  1.9766  0.9373 -0.9128
   57SAPC  C310 4257  -0.084   4.399   9.354  0.4624  0.5341  0.4128
   57SAPC  H10X 4258  -0.072   4.453   9.257  0.0723  1.1990  0.7289
   57SAPC  H10Y 4259  -0.194   4.403   9.370  0.2159 -1.2425 -0.7181
   57SAPC  C311 4260  -0.049   4.252   9.330 -0.3159  0.9547 -0.1053
   57SAPC  H11X 4261  -0.117   4.195   9.398 -0.4220  1.0593 -0.1250
   57SAPC  H11Y 4262   0.057   4.238   9.359 -0.9097  0.1785  1.7701
   57SAPC  C312 4263  -0.079   4.216   9.184  0.0875 -0.3075 -0.3805
   57SAPC  H12X 4264  -0.002   4.264   9.120  1.2001 -0.4832  0.8062
   57SAPC  H12Y 4265  -0.182   4.248   9.159 -0.7488 -1.7157  1.1404
   57SAPC  C313 4266  -0.069   4.067   9.144 -0.0544 -0.1217  0.2031
   57SAPC  H13X 4267  -0.118   4.008   9.224  2.0464 -1.2547  0.6975
   57SAPC  H13Y 4268   0.041   4.049   9.143 -0.1879 -0.9745  1.1432
   57SAPC  C314 4269  -0.119   4.044   8.996 -0.0265  0.1560  0.0732
   57SAPC  H14X 4270  -0.230   4.048   8.996  0.0223  2.7380 -1.3964
   57SAPC  H14Y 4271  -0.086   3.946   8.956 -0.2600 -0.2329  0.8423
   57SAPC  C315 4272  -0.065   4.147   8.888 -0.1318 -0.2588  0.0285
   57SAPC  H15X 4273   0.045   4.152   8.897 -0.2221  2.8683  0.0173
   57SAPC  H15Y 4274  -0.103   4.246   8.921 -1.3272 -1.4354  2.2913
   57SAPC  C316 4275  -0.100   4.110   8.744  0.4378  0.2464 -0.5216
   57SAPC  H16X 4276  -0.059   4.007   8.733 -0.8871 -0.1519 -1.8030
   57SAPC  H16Y 4277  -0.049   4.184   8.678  1.7435 -0.1040  0.0650
   57SAPC  C317 4278  -0.249   4.114   8.703 -0.3753  0.3347  0.3962
   57SAPC  H17X 4279  -0.282   4.217   8.674  0.9414  0.4112 -0.8817
   57SAPC  H17Y 4280  -0.315   4.076   8.784 -3.0061  1.2153 -1.2836
   57SAPC  C318 4281  -0.283   4.024   8.585 -0.3563 -0.2748  0.3664
   57SAPC  H18X 4282  -0.291   3.918   8.617 -1.0291  0.3155  2.2023
   57SAPC  H18Y 4283  -0.219   4.041   8.496 -0.5360  3.1915  0.8437
   57SAPC  H18Z 4284  -0.375   4.047   8.526  1.5914  1.6461 -2.0432
   58SAPC     N 4285   3.240   1.815  11.132 -0.2156 -0.3451  0.2324
   58SAPC   C12 4286   3.288   1.933  11.059  0.1283  0.0075  0.4378
   58SAPC  H12A 4287   3.362   1.894  10.990 -0.6252 -1.9661  0.7197
   58SAPC  H12B 4288   3.336   2.001  11.127 -0.9872  0.6419  0.6056
   58SAPC   C13 4289   3.178   1.709  11.039  0.0593  0.6442 -0.5075
   58SAPC  H13A 4290   3.108   1.755  10.971 -2.2136 -0.2963  1.1424
   58SAPC  H13B 4291   3.253   1.669  10.973  0.0530  0.8653 -0.6485
   58SAPC  H13C 4292   3.132   1.630  11.098 -1.6858  1.3782 -0.8382
   58SAPC   C14 4293   3.359   1.753  11.198  0.4132  0.4132 -0.5083
   58SAPC  H14A 4294   3.395   1.827  11.268 -0.4785 -1.2331  1.7861
   58SAPC  H14B 4295   3.334   1.672  11.266  2.6280 -0.7957 -1.0833
   58SAPC  H14C 4296   3.438   1.708  11.139 -2.0780 -3.6028 -0.9969
   58SAPC   C15 4297   3.128   1.851  11.230  0.2690 -0.0707 -0.2018
   58SAPC  H15A 4298   3.165   1.893  11.322  0.3308 -0.4559 -0.0532
   58SAPC  H15B 4299   3.056   1.920  11.186  0.4689 -0.0919 -0.5649
   58SAPC  H15C 4300   3.073   1.759  11.248  0.1502 -0.1613 -1.0041
   58SAPC   C11 4301   3.188   2.021  10.970  0.3568  0.3018  0.3386
   58SAPC  H11A 4302   3.242   2.116  10.951 -0.2146  0.7751  1.0466
   58SAPC  H11B 4303   3.093   2.042  11.023  0.0454  1.0368 -0.4931
   58SAPC     P 4304   3.277   1.932  10.738 -0.1433  0.2571 -0.1989
   58SAPC   O13 4305   3.412   1.966  10.793 -0.3615 -0.5879  0.4449
   58SAPC   O14 4306   3.265   1.803  10.679 -0.1407  0.2494  0.2206
   58SAPC   O12 4307   3.163   1.943  10.857  0.4820  0.2028  0.0350
   58SAPC   O11 4308   3.239   2.045  10.642  0.4011 -0.0662  0.1546
   58SAPC    C1 4309   3.098   2.052  10.601 -0.5350 -0.6158 -1.0571
   58SAPC    HA 4310   3.032   1.985  10.661  0.3145 -1.3703 -0.9437
   58SAPC    HB 4311   3.065   2.158  10.600  0.1338 -0.3978 -0.3750
   58SAPC    C2 4312   3.075   2.008  10.456  0.8049  1.0911  0.1073
   58SAPC    HS 4313   3.110   1.903  10.453  0.6340  1.0412 -0.2734
   58SAPC   O21 4314   3.158   2.094  10.368 -0.5363 -0.5251 -0.1732
   58SAPC   C21 4315   3.223   2.023  10.270  0.1233  0.2669  0.0057
   58SAPC   O22 4316   3.206   1.906  10.245  0.1579  0.2059  0.2710
   58SAPC   C22 4317   3.319   2.116  10.197 -0.2409 -0.0439 -0.2249
   58SAPC   H2R 4318   3.365   2.064  10.110 -2.5515 -1.0542 -0.8839
   58SAPC   H2S 4319   3.261   2.203  10.158 -1.0926 -0.5266 -0.0232
   58SAPC    C3 4320   2.918   1.999  10.422 -0.0862  0.5052  1.0158
   58SAPC    HX 4321   2.871   2.099  10.437 -1.9334  0.1551 -1.9098
   58SAPC    HY 4322   2.862   1.923  10.481 -1.3122  0.1176 -0.6129
   58SAPC   O31 4323   2.892   1.973  10.282 -0.7154 -0.2983  1.0268
   58SAPC   C31 4324   2.878   1.839  10.242 -0.3232 -0.1019  0.4145
   58SAPC   O32 4325   2.888   1.745  10.321  0.3372 -0.1796  0.6920
   58SAPC   C32 4326   2.848   1.821  10.094  0.3830  0.8258  0.3666
   58SAPC   H2X 4327   2.745   1.858  10.074  0.2553 -0.1353 -0.7836
   58SAPC   H2Y 4328   2.852   1.711  10.080  2.5233  0.8902  0.3627
   58SAPC   C23 4329   3.424   2.174  10.297  0.5236 -0.4437  0.1792
   58SAPC   H3R 4330   3.470   2.094  10.359  0.4831 -0.4172  0.2447
   58SAPC   H3S 4331   3.371   2.248  10.362  3.1193  1.4344  0.2231
   58SAPC   C24 4332   3.535   2.266  10.228 -0.6248  0.1391 -0.0773
   58SAPC   H4R 4333   3.604   2.291  10.311  1.6035 -0.4862 -1.6981
   58SAPC   H4S 4334   3.486   2.358  10.191 -2.2736 -0.6806  0.0251
   58SAPC   C25 4335   3.596   2.186  10.118 -0.1288 -0.3659  0.1826
   58SAPC   H5R 4336   3.664   2.104  10.147  0.6749  0.2896  0.1431
   58SAPC   C26 4337   3.575   2.207   9.985  0.1838 -0.3352 -0.5036
   58SAPC   H6R 4338   3.619   2.145   9.907 -0.9161 -0.1629 -1.2794
   58SAPC   C27 4339   3.483   2.313   9.925  0.2516  0.1868 -0.4860
   58SAPC   H7R 4340   3.476   2.407   9.985  0.4857  0.4269 -0.8285
   58SAPC   H7S 4341   3.382   2.270   9.912  0.2777  0.8349 -2.9674
   58SAPC   C28 4342   3.529   2.373   9.793 -0.9821 -0.3575 -0.2696
   58SAPC   H8R 4343   3.614   2.441   9.801 -0.7533 -0.5963 -0.6668
   58SAPC   C29 4344   3.477   2.338   9.674 -0.8887 -0.0365 -0.0651
   58SAPC   H9R 4345   3.508   2.398   9.587 -0.7709 -1.3601 -0.9516
   58SAPC  C210 4346   3.362   2.248   9.643  0.4699 -1.0433  0.2187
   58SAPC  H10R 4347   3.293   2.240   9.730 -2.2679 -0.9945 -1.8989
   58SAPC  H10S 4348   3.401   2.145   9.633 -1.1449 -1.5767 -0.7225
   58SAPC  C211 4349   3.272   2.281   9.520 -0.3108 -0.0249 -0.3452
   58SAPC  H11R 4350   3.170   2.297   9.557 -0.3251 -0.9612  0.0515
   58SAPC  C212 4351   3.298   2.287   9.393  0.4877 -0.6400 -0.0450
   58SAPC  H12R 4352   3.215   2.313   9.325  0.5140 -4.1851 -1.5197
   58SAPC  C213 4353   3.437   2.266   9.335  0.8821 -0.0743  0.7468
   58SAPC  H13R 4354   3.418   2.200   9.248  2.3683 -0.8412  0.9783
   58SAPC  H13S 4355   3.506   2.215   9.406 -0.0538 -0.8607  1.0952
   58SAPC  C214 4356   3.511   2.387   9.288  0.0376 -0.3616 -0.0459
   58SAPC  H14R 4357   3.583   2.435   9.356 -2.3418 -1.4466  3.3590
   58SAPC  C215 4358   3.492   2.446   9.170 -0.1094 -0.0932  0.8375
   58SAPC  H15R 4359   3.554   2.534   9.149 -1.1144 -0.0317 -2.1681
   58SAPC  C216 4360   3.401   2.411   9.052 -0.1525  0.1017  0.7136
   58SAPC  H16R 4361   3.318   2.483   9.035 -1.0436 -1.6023 -2.5657
   58SAPC  H16S 4362   3.348   2.318   9.081  1.5456 -1.6359 -1.5929
   58SAPC  C217 4363   3.459   2.409   8.909  0.0593  0.1822  0.1079
   58SAPC  H17R 4364   3.545   2.339   8.897  0.5360  0.4115  1.9852
   58SAPC  H17S 4365   3.506   2.508   8.892 -1.3007  0.4621 -2.0625
   58SAPC  C218 4366   3.356   2.394   8.798 -0.1251  0.4202  0.2544
   58SAPC  H18R 4367   3.266   2.454   8.821  0.0275  0.8877 -0.3663
   58SAPC  H18S 4368   3.328   2.287   8.810  0.2149  0.5172  2.1871
   58SAPC  C219 4369   3.414   2.402   8.657  0.4672  0.3536  0.2447
   58SAPC  H19R 4370   3.481   2.313   8.651 -0.9196 -0.8475  2.0899
   58SAPC  H19S 4371   3.481   2.490   8.653  2.6157 -1.2211  0.2649
   58SAPC  C220 4372   3.306   2.401   8.543  0.2971 -0.2974 -0.6688
   58SAPC  H20R 4373   3.233   2.485   8.543  0.4580 -0.1491  0.4332
   58SAPC  H20S 4374   3.247   2.307   8.542 -0.5643  0.2176  0.2898
   58SAPC  H20T 4375   3.348   2.400   8.440  0.2028 -1.5898 -0.6993
   58SAPC   C33 4376   2.958   1.886   9.997 -0.3362  0.3069 -0.0663
   58SAPC   H3X 4377   3.057   1.835   9.995 -0.3544  0.3381 -2.5944
   58SAPC   H3Y 4378   2.979   1.993  10.022  0.0165  1.0384 -3.2955
   58SAPC   C34 4379   2.913   1.865   9.854  0.4048  0.6530  0.0563
   58SAPC   H4X 4380   2.825   1.932   9.842  0.5968  0.9192  0.1323
   58SAPC   H4Y 4381   2.882   1.758   9.850  1.1354  0.3280  2.3908
   58SAPC   C35 4382   3.011   1.885   9.740 -0.9895 -0.2917  0.8750
   58SAPC   H5X 4383   3.088   1.805   9.743  0.3782  1.0298  1.5185
   58SAPC   H5Y 4384   3.066   1.981   9.740  1.0290 -1.3995 -0.6173
   58SAPC   C36 4385   2.944   1.861   9.603 -0.2633  0.4712  0.7275
   58SAPC   H6X 4386   2.895   1.762   9.602 -0.8290  0.7233 -2.5223
   58SAPC   H6Y 4387   3.012   1.877   9.516 -1.4548  1.0176 -0.1241
   58SAPC   C37 4388   2.833   1.969   9.574  0.0916  0.0527 -0.4988
   58SAPC   H7X 4389   2.886   2.064   9.595 -0.5520 -0.1519  2.1470
   58SAPC   H7Y 4390   2.748   1.962   9.644 -0.7674 -1.1634 -1.6314
   58SAPC   C38 4391   2.799   1.978   9.423  0.2656  0.2757 -0.1783
   58SAPC   H8X 4392   2.703   2.034   9.415 -0.1153 -0.3066  0.2780
   58SAPC   H8Y 4393   2.795   1.876   9.379  1.0107  0.0650  0.2323
   58SAPC   C39 4394   2.886   2.057   9.328  0.1899 -0.1071 -0.8376
   58SAPC   H9X 4395   2.945   2.122   9.397  0.5607  0.6042 -1.8126
   58SAPC   H9Y 4396   2.820   2.129   9.276 -0.0905  0.7173  0.6077
   58SAPC  C310 4397   2.971   1.983   9.227  0.1733  0.2272 -0.3864
   58SAPC  H10X 4398   2.903   1.931   9.156 -0.8911  1.6899 -0.4658
   58SAPC  H10Y 4399   3.029   1.907   9.283  1.2229  2.5416  1.7533
   58SAPC  C311 4400   3.071   2.065   9.148  0.3049  0.2846 -0.9300
   58SAPC  H11X 4401   3.141   2.117   9.217  0.3633 -0.6473 -0.2794
   58SAPC  H11Y 4402   3.018   2.145   9.091 -2.1823 -0.5302  0.1499
   58SAPC  C312 4403   3.145   1.977   9.051 -0.3176 -0.3894  0.1497
   58SAPC  H12X 4404   3.069   1.912   9.001  0.4143 -0.7217 -0.5395
   58SAPC  H12Y 4405   3.212   1.906   9.104  0.4927 -0.2414 -0.6577
   58SAPC  C313 4406   3.235   2.053   8.951  0.5643  0.6796 -0.1170
   58SAPC  H13X 4407   3.297   2.126   9.007 -0.9812  1.0101  1.1972
   58SAPC  H13Y 4408   3.159   2.111   8.895 -0.4102  1.2374  1.7437
   58SAPC  C314 4409   3.312   1.983   8.849 -0.2118 -0.2116  0.1264
   58SAPC  H14X 4410   3.349   2.065   8.783  0.1377 -0.4902 -0.0229
   58SAPC  H14Y 4411   3.256   1.904   8.795 -2.0227  1.0955  0.0592
   58SAPC  C315 4412   3.432   1.914   8.918  0.0008 -0.0589  0.6916
   58SAPC  H15X 4413   3.440   1.819   8.861  1.1010  1.2990 -1.4729
   58SAPC  H15Y 4414   3.410   1.882   9.022 -2.6348 -3.0691 -0.7107
   58SAPC  C316 4415   3.570   1.995   8.918  0.2817 -0.5300 -1.1248
   58SAPC  H16X 4416   3.646   1.927   8.963  1.6420  1.0371 -1.0000
   58SAPC  H16Y 4417   3.563   2.085   8.984 -0.3346 -1.9055  0.7401
   58SAPC  C317 4418   3.608   2.011   8.768  0.0792  0.2819 -0.0890
   58SAPC  H17X 4419   3.563   2.103   8.724 -0.8164  0.5839  1.4046
   58SAPC  H17Y 4420   3.590   1.921   8.706 -1.0181 -0.7734  1.7248
   58SAPC  C318 4421   3.762   2.020   8.755  0.6306  0.2925 -0.1645
   58SAPC  H18X 4422   3.809   1.992   8.658 -0.8656 -0.7010 -0.6077
   58SAPC  H18Y 4423   3.812   1.959   8.833  0.4230 -0.5233 -0.6629
   58SAPC  H18Z 4424   3.789   2.125   8.780 -1.7631  1.3676 -1.9244
   59SAPC     N 4425   4.491   2.226  11.447 -0.1926 -0.3019  0.4430
   59SAPC   C12 4426   4.632   2.272  11.399  0.3462  0.3691  0.5378
   59SAPC  H12A 4427   4.681   2.190  11.347  0.9179  1.4306 -0.6153
   59SAPC  H12B 4428   4.682   2.293  11.493  0.1162 -0.9167  0.9578
   59SAPC   C13 4429   4.501   2.121  11.556  0.5446  0.2414 -0.2758
   59SAPC  H13A 4430   4.551   2.029  11.527 -0.9108 -0.1222 -1.6952
   59SAPC  H13B 4431   4.556   2.160  11.641  0.4281 -1.6006  0.6692
   59SAPC  H13C 4432   4.411   2.084  11.602  0.6220 -2.7802 -2.4468
   59SAPC   C14 4433   4.395   2.335  11.479 -0.1158 -0.4351  1.0686
   59SAPC  H14A 4434   4.378   2.394  11.390  2.9406 -0.9809  0.0705
   59SAPC  H14B 4435   4.301   2.290  11.507  0.3457 -1.5812  0.8289
   59SAPC  H14C 4436   4.414   2.391  11.569 -3.1134  3.0762 -0.3681
   59SAPC   C15 4437   4.421   2.154  11.329 -0.0322  1.3535  0.5090
   59SAPC  H15A 4438   4.323   2.123  11.362  0.2700  0.0060  0.1739
   59SAPC  H15B 4439   4.416   2.216  11.241  0.6397  0.0608 -0.4532
   59SAPC  H15C 4440   4.471   2.063  11.301 -0.6660  1.1316  0.0589
   59SAPC   C11 4441   4.630   2.393  11.305 -0.4594 -0.7232  0.1256
   59SAPC  H11A 4442   4.734   2.430  11.299 -1.0416  0.8374 -0.5267
   59SAPC  H11B 4443   4.574   2.478  11.349 -0.3036  0.4909 -2.0056
   59SAPC     P 4444   4.657   2.267  11.081  0.0596  0.1468 -0.0886
   59SAPC   O13 4445   4.706   2.150  11.148 -0.4121 -0.2152 -0.3322
   59SAPC   O14 4446   4.579   2.249  10.954  0.8107 -0.1574 -1.1643
   59SAPC   O12 4447   4.576   2.359  11.176  0.0707  0.0940  0.1393
   59SAPC   O11 4448   4.781   2.352  11.040 -0.3575 -0.5323  0.0727
   59SAPC    C1 4449   4.778   2.498  11.011 -0.4242  0.1091  0.2535
   59SAPC    HA 4450   4.712   2.542  11.089 -0.7683 -1.8573  1.0934
   59SAPC    HB 4451   4.881   2.541  11.007 -0.7428  0.7106 -2.1164
   59SAPC    C2 4452   4.738   2.528  10.868 -0.0731  0.0913 -0.7943
   59SAPC    HS 4453   4.653   2.462  10.840  0.6675 -1.4431  0.5121
   59SAPC   O21 4454   4.852   2.498  10.783 -0.7427 -0.0953 -0.7196
   59SAPC   C21 4455   4.820   2.456  10.660  0.2248  0.2181 -0.6814
   59SAPC   O22 4456   4.709   2.437  10.619  0.1296 -0.0033  0.8811
   59SAPC   C22 4457   4.948   2.420  10.581 -0.4854 -0.2695  0.0277
   59SAPC   H2R 4458   5.033   2.416  10.653  0.1599  0.2567 -0.6902
   59SAPC   H2S 4459   4.941   2.312  10.555  1.0536 -0.2796 -0.3904
   59SAPC    C3 4460   4.694   2.675  10.861 -0.0923  0.0827 -0.5450
   59SAPC    HX 4461   4.789   2.731  10.846  0.3011 -0.1593  0.9422
   59SAPC    HY 4462   4.646   2.724  10.948  1.7390  1.6090 -0.3545
   59SAPC   O31 4463   4.607   2.699  10.750 -0.0772 -0.1021 -0.5422
   59SAPC   C31 4464   4.659   2.740  10.637  1.0633 -0.2713  0.5931
   59SAPC   O32 4465   4.775   2.762  10.610  0.1024 -0.5424 -0.0665
   59SAPC   C32 4466   4.545   2.765  10.538 -0.0304  0.0804  0.2236
   59SAPC   H2X 4467   4.464   2.831  10.576  0.4774  0.3267  0.8783
   59SAPC   H2Y 4468   4.497   2.665  10.530 -1.5174  0.5056  2.8897
   59SAPC   C23 4469   4.996   2.515  10.467  0.5975 -0.4639  1.0129
   59SAPC   H3R 4470   5.103   2.515  10.436  0.0884 -0.2465 -0.7861
   59SAPC   H3S 4471   4.977   2.616  10.510  0.1902  0.4026 -1.1463
   59SAPC   C24 4472   4.910   2.508  10.338 -0.3876 -0.0158 -0.0477
   59SAPC   H4R 4473   4.903   2.608  10.289  0.5756 -0.5250 -1.2271
   59SAPC   H4S 4474   4.804   2.489  10.365 -0.2204  0.5934  1.0809
   59SAPC   C25 4475   4.967   2.409  10.238 -0.1174 -0.2515 -0.2834
   59SAPC   H5R 4476   4.951   2.306  10.273 -0.9698 -0.0376 -0.0145
   59SAPC   C26 4477   5.016   2.432  10.119  0.6999 -0.0227 -0.3453
   59SAPC   H6R 4478   5.041   2.344  10.058  0.5250  0.0371 -0.5026
   59SAPC   C27 4479   5.021   2.566  10.052 -0.5377  0.0671  0.1940
   59SAPC   H7R 4480   5.009   2.639  10.134  0.8530 -1.8580  2.1617
   59SAPC   H7S 4481   4.927   2.583   9.996  0.1329  1.5609 -0.5016
   59SAPC   C28 4482   5.141   2.584   9.969 -0.1277  0.0531  0.4816
   59SAPC   H8R 4483   5.228   2.623  10.025 -1.6179  1.4288  1.8828
   59SAPC   C29 4484   5.156   2.547   9.839 -0.9170  0.2673 -0.0327
   59SAPC   H9R 4485   5.257   2.548   9.793 -0.3619  0.1067  1.1743
   59SAPC  C210 4486   5.055   2.475   9.746  0.5198 -0.3481 -0.0239
   59SAPC  H10R 4487   4.974   2.431   9.806  1.3357 -0.9995  0.6020
   59SAPC  H10S 4488   5.096   2.385   9.697 -0.0048 -0.0133 -1.0961
   59SAPC  C211 4489   5.009   2.570   9.640  0.4150 -0.7293  0.1416
   59SAPC  H11R 4490   4.937   2.645   9.677 -0.5727 -2.2128  1.3012
   59SAPC  C212 4491   5.035   2.569   9.502 -0.5196  0.0888 -0.5822
   59SAPC  H12R 4492   4.995   2.648   9.437 -1.5228 -0.4271 -0.6066
   59SAPC  C213 4493   5.120   2.463   9.428  0.1726 -0.1976 -0.1938
   59SAPC  H13R 4494   5.122   2.366   9.483 -2.8401 -0.2609 -0.1277
   59SAPC  H13S 4495   5.222   2.506   9.414 -0.9778  2.1539 -1.6566
   59SAPC  C214 4496   5.078   2.453   9.282  0.4243  0.7661  0.3048
   59SAPC  H14R 4497   5.031   2.357   9.260  0.5490  0.6918  0.3612
   59SAPC  C215 4498   5.099   2.539   9.177 -0.1248  0.1352 -0.2009
   59SAPC  H15R 4499   5.063   2.506   9.079 -2.0973  1.3323  0.1096
   59SAPC  C216 4500   5.183   2.663   9.178 -0.5084  0.0966 -0.0415
   59SAPC  H16R 4501   5.244   2.683   9.269  0.2129  0.4754 -0.6042
   59SAPC  H16S 4502   5.120   2.754   9.171  2.0938  1.8057 -2.0177
   59SAPC  C217 4503   5.282   2.666   9.064 -0.0402  0.1176 -0.7093
   59SAPC  H17R 4504   5.354   2.582   9.064 -1.8487 -1.5033 -4.5503
   59SAPC  H17S 4505   5.351   2.754   9.064 -2.2282  1.8765 -1.4408
   59SAPC  C218 4506   5.220   2.678   8.929  0.3751  0.2693 -0.5902
   59SAPC  H18R 4507   5.171   2.777   8.912 -1.4301 -0.0754  2.3099
   59SAPC  H18S 4508   5.139   2.603   8.914  1.8810 -1.4405 -0.3386
   59SAPC  C219 4509   5.320   2.649   8.812  0.3244 -0.4823  0.4377
   59SAPC  H19R 4510   5.357   2.545   8.820  2.4051  0.3298  1.7677
   59SAPC  H19S 4511   5.403   2.722   8.825  0.8699 -1.0960  0.3932
   59SAPC  C220 4512   5.257   2.668   8.675  0.3389  0.3790  0.3023
   59SAPC  H20R 4513   5.229   2.775   8.659  1.0436  0.4565 -0.4257
   59SAPC  H20S 4514   5.162   2.612   8.669 -1.0336  2.6073  0.4267
   59SAPC  H20T 4515   5.328   2.634   8.597 -1.4783  0.5787 -1.4630
   59SAPC   C33 4516   4.594   2.803  10.398  0.4226 -0.1258  0.3409
   59SAPC   H3X 4517   4.672   2.731  10.363 -1.1943 -0.7113 -2.2041
   59SAPC   H3Y 4518   4.639   2.904  10.388  2.2788 -1.0189 -0.6610
   59SAPC   C34 4519   4.483   2.797  10.288 -0.2399  0.4329  0.1351
   59SAPC   H4X 4520   4.404   2.866  10.326  0.2781  0.3412  1.3985
   59SAPC   H4Y 4521   4.450   2.691  10.286 -0.5166  0.5109  0.3637
   59SAPC   C35 4522   4.517   2.834  10.145  0.1906 -0.2248 -0.8680
   59SAPC   H5X 4523   4.607   2.775  10.119  0.4419 -0.0081 -0.4966
   59SAPC   H5Y 4524   4.542   2.942  10.151 -2.1272  0.3688 -1.2784
   59SAPC   C36 4525   4.400   2.805  10.050  0.3614 -0.3753  0.6581
   59SAPC   H6X 4526   4.310   2.855  10.091 -0.9438 -0.6082 -1.8759
   59SAPC   H6Y 4527   4.389   2.697  10.070  0.1051 -0.3281  0.7756
   59SAPC   C37 4528   4.430   2.827   9.899 -0.0959 -0.8622  0.5291
   59SAPC   H7X 4529   4.520   2.763   9.885  1.0623  0.7331  0.6486
   59SAPC   H7Y 4530   4.461   2.933   9.888  0.0266 -1.0120 -0.6177
   59SAPC   C38 4531   4.328   2.776   9.799  0.4034  0.1854  0.2189
   59SAPC   H8X 4532   4.224   2.806   9.824  1.4607  2.2607  2.3074
   59SAPC   H8Y 4533   4.317   2.665   9.801  0.1492  0.1946 -0.4540
   59SAPC   C39 4534   4.346   2.822   9.658  0.0912 -0.5336  0.4524
   59SAPC   H9X 4535   4.439   2.781   9.613  1.0086 -1.1257  2.8421
   59SAPC   H9Y 4536   4.354   2.932   9.645 -0.9282 -0.5793 -0.6452
   59SAPC  C310 4537   4.224   2.773   9.565 -0.5959 -0.5242 -0.8618
   59SAPC  H10X 4538   4.142   2.838   9.604 -0.9921 -0.8164 -1.1993
   59SAPC  H10Y 4539   4.197   2.665   9.572  0.3035 -0.7078 -0.2234
   59SAPC  C311 4540   4.247   2.806   9.419 -0.1022 -0.7703  0.2620
   59SAPC  H11X 4541   4.290   2.909   9.414 -0.2685 -0.6669  0.9000
   59SAPC  H11Y 4542   4.153   2.799   9.361  0.6724  3.8469 -1.8410
   59SAPC  C312 4543   4.328   2.710   9.335 -0.7972 -0.0707  0.2101
   59SAPC  H12X 4544   4.278   2.611   9.331 -0.9512  0.0305 -0.3837
   59SAPC  H12Y 4545   4.431   2.702   9.377 -0.7796 -0.7418  0.0451
   59SAPC  C313 4546   4.346   2.756   9.188 -0.4890  0.0060 -0.1219
   59SAPC  H13X 4547   4.415   2.842   9.177  0.0783 -0.1153  2.3797
   59SAPC  H13Y 4548   4.247   2.779   9.142 -0.5886  1.0560  0.6084
   59SAPC  C314 4549   4.400   2.643   9.097 -0.5022 -0.2314 -0.5954
   59SAPC  H14X 4550   4.335   2.554   9.112 -2.8276  1.1919 -1.7188
   59SAPC  H14Y 4551   4.502   2.612   9.127 -1.0544  0.3500  1.9887
   59SAPC  C315 4552   4.380   2.670   8.941  0.0866  0.0866 -0.2473
   59SAPC  H15X 4553   4.434   2.765   8.918  0.7888 -0.1027  0.6235
   59SAPC  H15Y 4554   4.271   2.692   8.937 -0.5911 -2.9297  0.8425
   59SAPC  C316 4555   4.407   2.552   8.843 -0.0862  0.3747 -0.0271
   59SAPC  H16X 4556   4.356   2.456   8.867  1.0274 -0.2539 -0.1435
   59SAPC  H16Y 4557   4.515   2.527   8.850 -0.6417 -1.5012  2.5959
   59SAPC  C317 4558   4.383   2.581   8.695 -0.1913 -0.2551 -0.5680
   59SAPC  H17X 4559   4.469   2.635   8.649 -0.4431  1.0551  0.4857
   59SAPC  H17Y 4560   4.304   2.658   8.681 -0.8155 -0.7905 -0.0193
   59SAPC  C318 4561   4.353   2.459   8.605  0.1246  0.0995 -0.2469
   59SAPC  H18X 4562   4.245   2.440   8.587 -0.0197  1.0115 -0.3697
   59SAPC  H18Y 4563   4.412   2.373   8.644  1.5718  0.2293 -2.0420
   59SAPC  H18Z 4564   4.397   2.482   8.505  0.0220 -2.1396 -0.8424
   60SAPC     N 4565   5.897   1.043  10.922  0.4303  0.0847  0.1542
   60SAPC   C12 4566   5.916   1.112  10.781  0.4874  0.9042 -0.0491
   60SAPC  H12A 4567   5.867   1.048  10.709  0.7311  1.7924 -1.0119
   60SAPC  H12B 4568   6.016   1.092  10.748 -0.1990 -0.6881 -1.2110
   60SAPC   C13 4569   5.952   1.129  11.038  0.2096  0.0414  0.0922
   60SAPC  H13A 4570   5.959   1.067  11.126 -1.1517 -0.1854  0.0563
   60SAPC  H13B 4571   6.054   1.143  11.006  0.3766  0.3411  0.7767
   60SAPC  H13C 4572   5.888   1.213  11.059 -0.8763 -0.6511 -0.3734
   60SAPC   C14 4573   5.745   1.021  10.932  0.0988  0.2753 -0.0900
   60SAPC  H14A 4574   5.701   1.120  10.930  2.5114  1.4246  0.6298
   60SAPC  H14B 4575   5.705   0.959  10.854 -0.8152  1.4000 -0.5378
   60SAPC  H14C 4576   5.719   0.982  11.029 -2.2521 -0.3015 -0.9298
   60SAPC   C15 4577   5.975   0.909  10.931 -0.6259  0.2976 -0.4284
   60SAPC  H15A 4578   5.954   0.839  10.852  0.7176 -0.9709  0.3053
   60SAPC  H15B 4579   6.080   0.935  10.933 -0.6049  0.2002  2.7769
   60SAPC  H15C 4580   5.950   0.857  11.022 -0.0540  3.6413  1.7509
   60SAPC   C11 4581   5.889   1.261  10.777  0.2985  0.0480  0.5269
   60SAPC  H11A 4582   5.792   1.285  10.825 -0.0991  1.1968 -0.8078
   60SAPC  H11B 4583   5.885   1.283  10.668  1.4018 -0.7772  0.3100
   60SAPC     P 4584   6.133   1.357  10.790 -0.0722 -0.1735  0.2161
   60SAPC   O13 4585   6.188   1.476  10.846  0.1458  0.4242 -0.4446
   60SAPC   O14 4586   6.207   1.230  10.810  0.3599  0.5997 -0.7041
   60SAPC   O12 4587   5.989   1.337  10.849  0.2595 -0.1883  0.6092
   60SAPC   O11 4588   6.116   1.378  10.629  0.2233  0.1463 -0.0106
   60SAPC    C1 4589   6.046   1.501  10.599 -0.1535  0.6153 -0.0069
   60SAPC    HA 4590   5.937   1.482  10.596  0.2225 -1.6489 -0.6064
   60SAPC    HB 4591   6.079   1.578  10.672 -0.9503  1.0681 -0.1217
   60SAPC    C2 4592   6.102   1.564  10.461  0.1236  0.5247 -0.6792
   60SAPC    HS 4593   6.056   1.664  10.444  0.9195  0.8808 -0.7144
   60SAPC   O21 4594   6.068   1.468  10.358  0.0739  0.1036 -0.2992
   60SAPC   C21 4595   5.943   1.471  10.333 -0.0163  1.1042 -0.5270
   60SAPC   O22 4596   5.857   1.546  10.373 -0.3235  0.4424 -0.3212
   60SAPC   C22 4597   5.910   1.376  10.210 -1.1103  0.6761  0.6401
   60SAPC   H2R 4598   6.004   1.334  10.171 -0.1993  2.1219  1.2396
   60SAPC   H2S 4599   5.867   1.289  10.264  1.2961  0.0572  1.6141
   60SAPC    C3 4600   6.254   1.578  10.471 -0.1041 -1.0098  0.1740
   60SAPC    HX 4601   6.306   1.486  10.505  0.8837 -0.7712 -0.6627
   60SAPC    HY 4602   6.282   1.640  10.559  0.3514  1.6797 -1.7605
   60SAPC   O31 4603   6.305   1.635  10.348  0.0865  0.0587  0.0642
   60SAPC   C31 4604   6.362   1.555  10.260  0.2644  0.4895 -0.1254
   60SAPC   O32 4605   6.394   1.438  10.289  0.3772 -0.4415 -0.1069
   60SAPC   C32 4606   6.400   1.632  10.132 -0.2123 -0.3288  0.5817
   60SAPC   H2X 4607   6.484   1.702  10.154 -0.2214  0.6151 -2.1406
   60SAPC   H2Y 4608   6.311   1.693  10.103 -0.1499 -0.1849  0.6938
   60SAPC   C23 4609   5.822   1.440  10.100  0.2811 -0.1968  0.0232
   60SAPC   H3R 4610   5.750   1.506  10.153 -1.6543 -1.9932 -0.2638
   60SAPC   H3S 4611   5.757   1.365  10.049  0.9895 -0.0792 -1.0659
   60SAPC   C24 4612   5.897   1.521   9.995  0.4957 -0.2574 -0.2019
   60SAPC   H4R 4613   5.936   1.608  10.052 -0.2185  0.2002 -0.4079
   60SAPC   H4S 4614   5.818   1.563   9.929 -0.5446  0.5726  1.5501
   60SAPC   C25 4615   5.999   1.441   9.915  0.0732 -0.0055  0.1274
   60SAPC   H5R 4616   6.059   1.371   9.974  1.0806  1.9425  1.4619
   60SAPC   C26 4617   6.035   1.456   9.784  0.3105 -1.0040 -0.0298
   60SAPC   H6R 4618   6.121   1.400   9.744  0.4465 -0.2588 -0.7827
   60SAPC   C27 4619   5.965   1.539   9.681 -0.1413  0.1919  1.0496
   60SAPC   H7R 4620   6.031   1.552   9.592 -1.7288  0.5453 -0.1138
   60SAPC   H7S 4621   5.931   1.640   9.714 -1.4169 -0.6858  2.4471
   60SAPC   C28 4622   5.840   1.464   9.649  0.1038  0.2754 -0.5290
   60SAPC   H8R 4623   5.778   1.445   9.738  3.4189 -0.6231  1.6948
   60SAPC   C29 4624   5.799   1.420   9.526 -0.4936  0.0364 -0.2220
   60SAPC   H9R 4625   5.707   1.361   9.518  0.1415 -0.9198 -0.5301
   60SAPC  C210 4626   5.875   1.442   9.397  0.3756 -0.1852  0.0117
   60SAPC  H10R 4627   5.957   1.367   9.397  0.5793  0.0336  0.4981
   60SAPC  H10S 4628   5.916   1.545   9.398  1.7076 -0.7114 -0.1269
   60SAPC  C211 4629   5.794   1.421   9.268  0.0608  0.6183 -0.8510
   60SAPC  H11R 4630   5.691   1.382   9.277 -0.7760  3.3553  2.3295
   60SAPC  C212 4631   5.838   1.453   9.145 -0.1685 -0.1584  0.4003
   60SAPC  H12R 4632   5.765   1.454   9.062 -0.1581 -0.2693  0.3882
   60SAPC  C213 4633   5.981   1.504   9.120  0.0733 -0.1238  0.2672
   60SAPC  H13R 4634   6.053   1.420   9.127 -0.3784 -0.5624 -0.2777
   60SAPC  H13S 4635   6.022   1.581   9.189  1.6944 -1.0134  0.3057
   60SAPC  C214 4636   5.995   1.575   8.985  0.1209 -0.2809  1.3106
   60SAPC  H14R 4637   5.941   1.671   8.978 -1.6960 -1.3060  0.7282
   60SAPC  C215 4638   6.075   1.540   8.877  0.1028  0.7811  0.7885
   60SAPC  H15R 4639   6.069   1.586   8.777 -0.8997 -0.6882  0.1577
   60SAPC  C216 4640   6.158   1.404   8.870 -0.4218  0.9208  0.1993
   60SAPC  H16R 4641   6.096   1.319   8.906  0.4174  0.3371  0.2955
   60SAPC  H16S 4642   6.240   1.416   8.945 -0.7665 -1.0088  0.9146
   60SAPC  C217 4643   6.193   1.374   8.731  0.5431  0.2931  0.9463
   60SAPC  H17R 4644   6.263   1.288   8.737  0.6410  0.1763 -1.3612
   60SAPC  H17S 4645   6.248   1.460   8.688  3.9054 -2.2061  0.0560
   60SAPC  C218 4646   6.072   1.335   8.641 -0.0861  0.7897 -0.7798
   60SAPC  H18R 4647   5.986   1.397   8.675  0.0395  0.8300 -0.5383
   60SAPC  H18S 4648   6.047   1.230   8.668  2.6635 -0.3222 -2.3848
   60SAPC  C219 4649   6.092   1.358   8.489  0.0200  0.5293 -0.4986
   60SAPC  H19R 4650   6.073   1.259   8.443  0.3570  0.7389 -1.0877
   60SAPC  H19S 4651   6.197   1.393   8.479  0.0774  0.9258  1.3718
   60SAPC  C220 4652   5.999   1.475   8.429  0.8493 -0.0173 -0.7178
   60SAPC  H20R 4653   5.921   1.434   8.361  0.3084 -1.4399  0.7246
   60SAPC  H20S 4654   6.057   1.559   8.385 -0.1875 -0.5608 -3.2242
   60SAPC  H20T 4655   5.935   1.526   8.504  0.3224  0.4400 -1.4723
   60SAPC   C33 4656   6.446   1.541  10.022 -0.3991  0.2514  0.0001
   60SAPC   H3X 4657   6.389   1.446  10.021 -0.1562  0.1069 -2.9698
   60SAPC   H3Y 4658   6.552   1.509  10.029  0.0817  1.8402  0.2696
   60SAPC   C34 4659   6.437   1.601   9.883  0.5301 -0.3115 -0.3914
   60SAPC   H4X 4660   6.497   1.693   9.867 -2.0894  1.3812 -0.8114
   60SAPC   H4Y 4661   6.335   1.640   9.866 -0.0804 -1.7841 -0.1880
   60SAPC   C35 4662   6.453   1.492   9.773  0.1872  0.0715  0.1687
   60SAPC   H5X 4663   6.363   1.427   9.774 -1.0917  1.7898 -0.8861
   60SAPC   H5Y 4664   6.544   1.433   9.793 -0.4022 -0.7197  0.5663
   60SAPC   C36 4665   6.461   1.548   9.634  0.2609  0.0918 -0.2266
   60SAPC   H6X 4666   6.569   1.573   9.630 -0.3053  2.7349  0.1292
   60SAPC   H6Y 4667   6.406   1.644   9.628  2.9589  1.6147 -1.0123
   60SAPC   C37 4668   6.421   1.455   9.516 -0.4234  0.2784 -0.6400
   60SAPC   H7X 4669   6.321   1.414   9.539  0.0378 -0.0615  0.8717
   60SAPC   H7Y 4670   6.494   1.372   9.507  1.7039  2.0761 -0.5466
   60SAPC   C38 4671   6.430   1.518   9.379  0.0468  0.1512 -0.1948
   60SAPC   H8X 4672   6.491   1.610   9.378 -0.0911  0.2447  0.0086
   60SAPC   H8Y 4673   6.330   1.554   9.347  0.7696  1.1531 -1.3123
   60SAPC   C39 4674   6.485   1.435   9.254  0.3474  0.2083 -0.4203
   60SAPC   H9X 4675   6.416   1.348   9.249 -0.7096  0.8739  1.7067
   60SAPC   H9Y 4676   6.588   1.400   9.277 -0.1767 -0.0446  1.6514
   60SAPC  C310 4677   6.488   1.525   9.124  0.6739  0.4684  0.0756
   60SAPC  H10X 4678   6.556   1.611   9.142 -0.6482  0.9617  3.1157
   60SAPC  H10Y 4679   6.393   1.571   9.091  0.8033 -0.0540 -1.0337
   60SAPC  C311 4680   6.546   1.450   9.010 -0.1917 -0.4205 -0.3149
   60SAPC  H11X 4681   6.491   1.355   8.996 -1.1932 -0.0146  0.8158
   60SAPC  H11Y 4682   6.649   1.421   9.043 -0.0543  0.6999  0.2540
   60SAPC  C312 4683   6.539   1.532   8.876  0.1360 -0.1974 -0.2955
   60SAPC  H12X 4684   6.606   1.620   8.887 -0.1169 -0.0721  0.2229
   60SAPC  H12Y 4685   6.437   1.562   8.845  0.1767  0.0294 -0.2103
   60SAPC  C313 4686   6.591   1.447   8.760  0.1022  0.6734  0.0015
   60SAPC  H13X 4687   6.562   1.496   8.665 -0.4714  0.4207  0.0446
   60SAPC  H13Y 4688   6.544   1.346   8.756 -1.3123  1.3768 -1.9914
   60SAPC  C314 4689   6.745   1.438   8.753 -0.6781 -0.4160  0.4878
   60SAPC  H14X 4690   6.780   1.366   8.677 -0.3972 -1.0014  1.1681
   60SAPC  H14Y 4691   6.791   1.391   8.843 -1.7056 -0.0449  1.2250
   60SAPC  C315 4692   6.800   1.580   8.732 -0.3417 -0.1761 -0.3339
   60SAPC  H15X 4693   6.808   1.618   8.836  2.3745 -1.1552 -0.1498
   60SAPC  H15Y 4694   6.729   1.634   8.665  0.0176 -0.0997 -0.6531
   60SAPC  C316 4695   6.943   1.592   8.682  0.6197 -0.4568 -0.4892
   60SAPC  H16X 4696   6.970   1.698   8.661  1.5612 -0.3254  1.3072
   60SAPC  H16Y 4697   6.952   1.546   8.581 -2.1672  2.9283 -2.3967
   60SAPC  C317 4698   7.045   1.517   8.768  0.2472 -0.2395 -0.8437
   60SAPC  H17X 4699   7.022   1.409   8.774  0.7940 -0.3198 -0.1777
   60SAPC  H17Y 4700   7.039   1.562   8.869  0.4791  0.0086 -0.9390
   60SAPC  C318 4701   7.190   1.551   8.724  0.0533  0.7406 -0.4893
   60SAPC  H18X 4702   7.210   1.660   8.718  2.0601  0.3851 -0.4617
   60SAPC  H18Y 4703   7.217   1.500   8.629  0.3758 -0.5861  0.3135
   60SAPC  H18Z 4704   7.260   1.515   8.802 -0.4224  0.5499 -0.1503
   61SAPC     N 4705   0.444   1.040  11.173 -0.0543 -0.1310  0.2646
   61SAPC   C12 4706   0.401   1.043  11.030  0.2759 -0.4332 -0.3332
   61SAPC  H12A 4707   0.419   1.134  10.975  0.8377 -0.6997 -0.5951
   61SAPC  H12B 4708   0.293   1.056  11.032  0.3308  0.1545 -0.9943
   61SAPC   C13 4709   0.586   0.983  11.185  0.7522 -0.1857  0.5715
   61SAPC  H13A 4710   0.654   1.039  11.122 -1.1810 -0.2106 -1.6447
   61SAPC  H13B 4711   0.635   0.973  11.280  0.1153  0.9548  1.0302
   61SAPC  H13C 4712   0.584   0.885  11.139 -1.8391 -0.1733  0.5709
   61SAPC   C14 4713   0.450   1.179  11.226  0.1344 -0.2397 -0.7181
   61SAPC  H14A 4714   0.353   1.227  11.226  1.4546  2.5015 -1.2850
   61SAPC  H14B 4715   0.485   1.175  11.329  1.7278 -0.2226 -1.2516
   61SAPC  H14C 4716   0.523   1.246  11.186  0.2814 -0.0980 -0.2195
   61SAPC   C15 4717   0.357   0.948  11.252 -0.0376  0.1270  0.3893
   61SAPC  H15A 4718   0.397   0.947  11.352  3.1496  0.4018 -0.8102
   61SAPC  H15B 4719   0.254   0.979  11.249  0.4590  1.7228 -1.2169
   61SAPC  H15C 4720   0.366   0.847  11.215  0.8401 -0.1291  1.2675
   61SAPC   C11 4721   0.420   0.919  10.937 -0.8730 -0.3614 -0.9538
   61SAPC  H11A 4722   0.531   0.915  10.929 -0.5649  4.1106 -0.0152
   61SAPC  H11B 4723   0.390   0.958  10.837  0.0174  3.6445  0.2727
   61SAPC     P 4724   0.427   0.655  10.974  0.0244 -0.2571  0.0364
   61SAPC   O13 4725   0.526   0.642  11.083  0.4684  0.0920  0.3025
   61SAPC   O14 4726   0.320   0.553  10.980 -0.8270  0.3145 -0.3390
   61SAPC   O12 4727   0.353   0.800  10.981 -0.5244  0.4786  0.4276
   61SAPC   O11 4728   0.492   0.665  10.836 -0.0185  0.5228  0.0160
   61SAPC    C1 4729   0.464   0.583  10.725  0.3191  0.1512 -0.1623
   61SAPC    HA 4730   0.542   0.607  10.650 -0.9474  2.3586 -0.8291
   61SAPC    HB 4731   0.470   0.475  10.750 -0.6032 -0.2062 -1.4602
   61SAPC    C2 4732   0.314   0.600  10.664  0.3640 -0.2755 -0.3232
   61SAPC    HS 4733   0.241   0.579  10.745  0.5816 -0.4153 -0.1616
   61SAPC   O21 4734   0.303   0.517  10.549  0.2095  0.2802 -0.4375
   61SAPC   C21 4735   0.177   0.488  10.515  0.2611 -0.3687  0.3103
   61SAPC   O22 4736   0.080   0.529  10.580 -0.1220  0.0667  0.1032
   61SAPC   C22 4737   0.178   0.401  10.391 -0.0942  0.0094 -0.3505
   61SAPC   H2R 4738   0.237   0.459  10.316  0.6555 -1.2167 -0.7154
   61SAPC   H2S 4739   0.230   0.306  10.414  2.5836  0.9434 -2.2563
   61SAPC    C3 4740   0.286   0.749  10.621  0.7447  0.1756 -0.2910
   61SAPC    HX 4741   0.279   0.807  10.715 -4.1148  1.5361 -1.3938
   61SAPC    HY 4742   0.191   0.758  10.565  0.8146 -0.3821 -0.5046
   61SAPC   O31 4743   0.401   0.796  10.545  0.5554  0.3579 -0.6565
   61SAPC   C31 4744   0.386   0.922  10.507 -0.3570 -0.2301  0.2029
   61SAPC   O32 4745   0.292   0.999  10.518 -0.4653 -0.2637  0.4823
   61SAPC   C32 4746   0.531   0.969  10.455  0.1204 -0.4716  0.8629
   61SAPC   H2X 4747   0.578   0.885  10.400  0.2356  1.2431 -1.7359
   61SAPC   H2Y 4748   0.586   0.997  10.548  1.3621 -2.5191  0.7722
   61SAPC   C23 4749   0.038   0.372  10.333  0.0828 -0.3665 -0.4433
   61SAPC   H3R 4750  -0.014   0.462  10.294  1.0383  0.7032  0.7227
   61SAPC   H3S 4751  -0.033   0.325  10.404 -1.4516 -0.7304 -2.1817
   61SAPC   C24 4752   0.051   0.274  10.214  0.1324 -0.6136  0.0086
   61SAPC   H4R 4753   0.127   0.324  10.151 -0.8599  1.1450  0.1787
   61SAPC   H4S 4754  -0.034   0.274  10.141 -2.0586  0.5535  2.4824
   61SAPC   C25 4755   0.107   0.143  10.260 -0.3866 -0.3502 -0.2559
   61SAPC   H5R 4756   0.111   0.128  10.369  2.8690  0.6811 -0.1579
   61SAPC   C26 4757   0.126   0.038  10.180 -0.5827  0.0375  0.0481
   61SAPC   H6R 4758   0.165  -0.059  10.215  0.3427  0.3641 -0.0636
   61SAPC   C27 4759   0.110   0.056  10.031  0.4718 -0.2898 -0.3444
   61SAPC   H7R 4760   0.143   0.157   9.997  1.0605 -0.7222 -1.0499
   61SAPC   H7S 4761   0.002   0.060  10.005  0.2928 -1.3913  0.2081
   61SAPC   C28 4762   0.195  -0.037   9.946  1.1293 -0.4941  0.2691
   61SAPC   H8R 4763   0.260  -0.106  10.001  0.3936 -0.4795  1.1683
   61SAPC   C29 4764   0.197  -0.039   9.813  0.0301  0.5415  0.4054
   61SAPC   H9R 4765   0.248  -0.123   9.763  0.4841  0.4554  1.0008
   61SAPC  C210 4766   0.114   0.052   9.722  0.1563 -0.1184  0.1693
   61SAPC  H10R 4767   0.181   0.075   9.637 -0.5723 -1.9928 -0.9505
   61SAPC  H10S 4768   0.098   0.152   9.768 -0.5005  0.4985 -1.3846
   61SAPC  C211 4769  -0.006  -0.022   9.673  0.9072  0.2425  0.6237
   61SAPC  H11R 4770  -0.084  -0.045   9.747  0.4963  0.6974  0.3361
   61SAPC  C212 4771  -0.034  -0.056   9.542  0.3969 -0.0950  0.3992
   61SAPC  H12R 4772  -0.129  -0.105   9.515 -1.2308  1.2064  3.4806
   61SAPC  C213 4773   0.037  -0.027   9.416 -0.2687  0.3703  0.1145
   61SAPC  H13R 4774   0.056  -0.120   9.358  0.3078  0.5943 -0.0610
   61SAPC  H13S 4775   0.133   0.026   9.436 -0.0310  0.1559 -0.4452
   61SAPC  C214 4776  -0.034   0.076   9.335  0.2667 -0.2036  0.2575
   61SAPC  H14R 4777  -0.062   0.159   9.401  0.0704 -1.6376  2.0162
   61SAPC  C215 4778  -0.054   0.079   9.202 -0.6246  1.0371 -0.0386
   61SAPC  H15R 4779  -0.124   0.148   9.153  0.2234 -0.1450 -2.9971
   61SAPC  C216 4780  -0.004  -0.030   9.114 -0.3158 -0.1871  0.7315
   61SAPC  H16R 4781  -0.075  -0.063   9.035  1.0933 -0.5255 -0.4221
   61SAPC  H16S 4782   0.013  -0.125   9.169 -0.2390 -1.2452 -1.0661
   61SAPC  C217 4783   0.130   0.004   9.039 -0.4666  0.4964 -0.5734
   61SAPC  H17R 4784   0.148   0.111   9.015 -4.0372  1.1994 -0.3923
   61SAPC  H17S 4785   0.126  -0.054   8.944  1.2670 -2.7705  1.2774
   61SAPC  C218 4786   0.252  -0.051   9.124  0.0095  0.4221  0.6361
   61SAPC  H18R 4787   0.239  -0.161   9.131  0.2972  0.4453  1.7422
   61SAPC  H18S 4788   0.229  -0.011   9.225  0.3537  0.5796  0.6519
   61SAPC  C219 4789   0.399  -0.030   9.074  0.8521 -0.3014 -0.0165
   61SAPC  H19R 4790   0.472  -0.076   9.144  1.3633  0.2774 -0.1697
   61SAPC  H19S 4791   0.424   0.078   9.068 -2.0082  0.4315  0.4744
   61SAPC  C220 4792   0.418  -0.087   8.933  0.1603 -0.4287 -0.6070
   61SAPC  H20R 4793   0.345  -0.032   8.869 -1.0233 -0.9039  0.3130
   61SAPC  H20S 4794   0.397  -0.196   8.928  1.0528 -0.5824 -1.1039
   61SAPC  H20T 4795   0.518  -0.067   8.889  1.0277 -1.9773  0.6332
   61SAPC   C33 4796   0.533   1.077  10.337 -0.6894 -0.6287 -0.3070
   61SAPC   H3X 4797   0.623   1.138  10.357 -2.1595  1.3947  0.2575
   61SAPC   H3Y 4798   0.446   1.146  10.345  0.8480  1.3490 -0.3769
   61SAPC   C34 4799   0.540   1.011  10.196  0.3525 -0.3840  0.0104
   61SAPC   H4X 4800   0.450   0.948  10.178 -0.2599  0.0919  1.3287
   61SAPC   H4Y 4801   0.631   0.947  10.198 -0.6994 -1.9553 -0.7638
   61SAPC   C35 4802   0.539   1.110  10.088 -0.1618 -0.1931  0.5945
   61SAPC   H5X 4803   0.611   1.193  10.098 -0.9239  0.3822  1.3735
   61SAPC   H5Y 4804   0.436   1.151  10.081  0.1317  0.5460  0.6076
   61SAPC   C36 4805   0.551   1.049   9.950 -0.4077  0.0015  0.2866
   61SAPC   H6X 4806   0.453   0.999   9.939 -0.0989 -0.4774 -0.3902
   61SAPC   H6Y 4807   0.641   0.983   9.954 -2.8056 -3.2765  2.1880
   61SAPC   C37 4808   0.565   1.146   9.838 -0.0344 -0.0613  0.2159
   61SAPC   H7X 4809   0.673   1.167   9.824 -0.2401  0.6395 -0.2871
   61SAPC   H7Y 4810   0.503   1.237   9.852  0.9968  0.6933 -0.0752
   61SAPC   C38 4811   0.526   1.081   9.707 -0.2148  0.5484 -0.2544
   61SAPC   H8X 4812   0.416   1.074   9.713 -0.1333 -1.9678 -1.0483
   61SAPC   H8Y 4813   0.557   0.975   9.695 -0.8470  0.4841 -1.3902
   61SAPC   C39 4814   0.579   1.151   9.582 -0.7069 -0.2203  1.0358
   61SAPC   H9X 4815   0.689   1.146   9.597 -0.7441 -1.2669  0.9919
   61SAPC   H9Y 4816   0.538   1.254   9.599 -1.9184 -0.3773 -0.7759
   61SAPC  C310 4817   0.527   1.099   9.446 -0.2679  0.5790  0.8884
   61SAPC  H10X 4818   0.523   1.175   9.365 -0.5075  0.7569  1.0658
   61SAPC  H10Y 4819   0.427   1.051   9.449  0.5026 -1.2472 -1.0714
   61SAPC  C311 4820   0.626   0.993   9.399 -0.4681  0.0803 -0.2357
   61SAPC  H11X 4821   0.620   0.905   9.467 -0.6155 -0.1830 -0.5865
   61SAPC  H11Y 4822   0.728   1.031   9.422 -0.2214 -0.0516 -1.0712
   61SAPC  C312 4823   0.605   0.975   9.251  0.5027  0.0121 -0.4465
   61SAPC  H12X 4824   0.642   1.067   9.201  1.9298  0.3092  1.1282
   61SAPC  H12Y 4825   0.499   0.959   9.222  0.1384 -0.2702  0.9958
   61SAPC  C313 4826   0.687   0.859   9.198  0.0501  0.6296  0.0830
   61SAPC  H13X 4827   0.666   0.766   9.256  0.0641  0.1925 -0.5974
   61SAPC  H13Y 4828   0.796   0.875   9.208  0.0353  1.3096 -0.7346
   61SAPC  C314 4829   0.649   0.844   9.050  0.0451 -0.0395 -0.1258
   61SAPC  H14X 4830   0.644   0.947   9.008  0.8251  0.5509  1.1906
   61SAPC  H14Y 4831   0.544   0.812   9.038  0.3042 -1.3060  0.9642
   61SAPC  C315 4832   0.739   0.743   8.975 -1.1358  0.0018  0.0096
   61SAPC  H15X 4833   0.732   0.637   9.009  4.1403 -1.1421 -1.8542
   61SAPC  H15Y 4834   0.845   0.778   8.974 -0.5060 -1.7197  1.6442
   61SAPC  C316 4835   0.710   0.743   8.830  0.0820  0.7318  0.6510
   61SAPC  H16X 4836   0.784   0.677   8.779  0.4790  0.8820  1.0250
   61SAPC  H16Y 4837   0.731   0.847   8.798  0.0509  0.6307  0.3017
   61SAPC  C317 4838   0.570   0.688   8.796 -0.0486 -0.0007 -0.0600
   61SAPC  H17X 4839   0.494   0.752   8.845  0.0303 -0.1771  0.2937
   61SAPC  H17Y 4840   0.569   0.595   8.857  1.3494 -0.0159 -0.0495
   61SAPC  C318 4841   0.533   0.682   8.650 -1.0421  0.6884  0.2551
   61SAPC  H18X 4842   0.620   0.661   8.584 -1.0074  0.9153  0.2256
   61SAPC  H18Y 4843   0.518   0.783   8.606 -1.9221 -0.1018 -1.2882
   61SAPC  H18Z 4844   0.448   0.615   8.628 -0.8192 -0.2257  2.0708
   62SAPC     N 4845   6.195   0.213  10.870 -0.8728 -0.6587  0.6151
   62SAPC   C12 4846   6.164   0.157  10.735 -0.5226 -0.6568 -0.0681
   62SAPC  H12A 4847   6.099   0.235  10.698 -0.0024 -1.0050 -1.7489
   62SAPC  H12B 4848   6.106   0.067  10.746  1.7513 -2.2015 -0.3285
   62SAPC   C13 4849   6.279   0.122  10.958 -0.1144 -0.1410 -0.4380
   62SAPC  H13A 4850   6.379   0.132  10.918 -0.9191 -0.2268 -2.5353
   62SAPC  H13B 4851   6.283   0.169  11.055  0.2526 -0.0490 -0.4980
   62SAPC  H13C 4852   6.242   0.021  10.956  0.4647 -0.3646  0.2383
   62SAPC   C14 4853   6.270   0.338  10.872 -0.9492  0.2048  0.1928
   62SAPC  H14A 4854   6.374   0.335  10.843 -1.1996  0.7271 -0.7833
   62SAPC  H14B 4855   6.222   0.408  10.805 -1.7346 -0.5516 -0.0485
   62SAPC  H14C 4856   6.276   0.394  10.964  1.6299  0.2510  0.0124
   62SAPC   C15 4857   6.059   0.231  10.939  0.2122  0.2291  0.1431
   62SAPC  H15A 4858   6.058   0.275  11.038  1.4448  0.3571  0.1037
   62SAPC  H15B 4859   6.010   0.310  10.885  0.2222 -0.9644 -1.6334
   62SAPC  H15C 4860   5.990   0.148  10.946 -0.5702  0.7525 -1.2176
   62SAPC   C11 4861   6.278   0.124  10.648  0.1724 -1.0930 -0.1575
   62SAPC  H11A 4862   6.349   0.207  10.631 -0.8817 -0.6638 -2.7187
   62SAPC  H11B 4863   6.245   0.100  10.545 -2.2068 -2.9301  0.9844
   62SAPC     P 4864   6.309  -0.128  10.706 -0.1668  0.0141 -0.2561
   62SAPC   O13 4865   6.371  -0.182  10.832  0.3068  0.1759  0.2961
   62SAPC   O14 4866   6.158  -0.131  10.697  0.4693  0.2436 -0.2638
   62SAPC   O12 4867   6.359   0.019  10.701 -0.1961  0.4230 -0.4762
   62SAPC   O11 4868   6.380  -0.186  10.572  0.2076 -0.7715  0.4169
   62SAPC    C1 4869   6.522  -0.218  10.583  0.0170 -0.3481  0.5319
   62SAPC    HA 4870   6.572  -0.131  10.631 -0.2373 -1.1005  2.2099
   62SAPC    HB 4871   6.548  -0.302  10.651 -1.8546 -0.5243  1.0654
   62SAPC    C2 4872   6.598  -0.232  10.447  0.0721  0.3313  0.1049
   62SAPC    HS 4873   6.708  -0.219  10.463  0.2175  1.7372 -1.8445
   62SAPC   O21 4874   6.544  -0.131  10.359 -0.2061 -0.4271 -0.2094
   62SAPC   C21 4875   6.570  -0.002  10.386 -0.6369  0.2000 -0.1347
   62SAPC   O22 4876   6.645   0.033  10.473 -0.0594 -0.1508 -0.2245
   62SAPC   C22 4877   6.500   0.085  10.282  0.0681 -0.5860  0.0319
   62SAPC   H2R 4878   6.476   0.185  10.324  1.8643 -0.5106  0.9424
   62SAPC   H2S 4879   6.571   0.093  10.197 -1.0454  1.5885 -0.7344
   62SAPC    C3 4880   6.573  -0.364  10.372  0.0069 -0.0260 -0.0051
   62SAPC    HX 4881   6.465  -0.377  10.349  0.7608 -3.9159 -1.7716
   62SAPC    HY 4882   6.596  -0.447  10.442 -0.9815  0.3934  0.8397
   62SAPC   O31 4883   6.654  -0.367  10.256 -0.2615  0.9010 -0.3683
   62SAPC   C31 4884   6.602  -0.335  10.146  0.7827  0.6423  0.1238
   62SAPC   O32 4885   6.488  -0.299  10.124  0.0022 -0.0018  0.2642
   62SAPC   C32 4886   6.705  -0.345  10.046 -0.9442 -0.4404  0.2286
   62SAPC   H2X 4887   6.735  -0.452  10.046 -2.6037 -0.9298  0.7547
   62SAPC   H2Y 4888   6.791  -0.281  10.076 -1.4809  0.1295  0.5705
   62SAPC   C23 4889   6.367   0.032  10.224  0.8214 -0.1650  0.4214
   62SAPC   H3R 4890   6.283   0.032  10.298 -0.4648 -2.5272 -0.9756
   62SAPC   H3S 4891   6.382  -0.067  10.176 -1.4028 -0.9130  1.1999
   62SAPC   C24 4892   6.326   0.135  10.116  0.5874  0.7135  0.0660
   62SAPC   H4R 4893   6.412   0.167  10.054  1.0442 -1.2873 -0.3709
   62SAPC   H4S 4894   6.274   0.223  10.159  0.2068  0.8227 -0.6054
   62SAPC   C25 4895   6.225   0.065  10.030 -0.3767 -0.4167  0.1202
   62SAPC   H5R 4896   6.121   0.052  10.064 -0.3934  0.2348  0.3203
   62SAPC   C26 4897   6.248   0.010   9.908  0.1992 -0.3219 -0.2151
   62SAPC   H6R 4898   6.166  -0.040   9.854 -0.9820  0.7701  0.5618
   62SAPC   C27 4899   6.383   0.015   9.833 -0.3959  0.1568  0.1405
   62SAPC   H7R 4900   6.395  -0.082   9.781  0.2657  0.6581 -0.6618
   62SAPC   H7S 4901   6.470   0.022   9.901 -1.8738 -1.1844  2.2378
   62SAPC   C28 4902   6.378   0.143   9.750  0.2218  0.4401  0.8273
   62SAPC   H8R 4903   6.390   0.235   9.808  1.2006 -0.1530  1.5784
   62SAPC   C29 4904   6.362   0.154   9.613 -0.2908  0.0488  0.0235
   62SAPC   H9R 4905   6.358   0.254   9.568 -2.3062  0.9648  2.1185
   62SAPC  C210 4906   6.342   0.036   9.521 -1.2055  0.1261  0.0760
   62SAPC  H10R 4907   6.330  -0.053   9.586 -1.5150  0.3367  0.3128
   62SAPC  H10S 4908   6.435   0.022   9.461 -2.0455 -0.2049 -1.1607
   62SAPC  C211 4909   6.211   0.047   9.441  0.4038  0.4884 -0.0231
   62SAPC  H11R 4910   6.116   0.060   9.495 -0.9462 -1.8110 -1.7139
   62SAPC  C212 4911   6.207   0.050   9.307  0.0929  0.6607  0.0417
   62SAPC  H12R 4912   6.105   0.046   9.267 -0.2456  3.1288  0.5585
   62SAPC  C213 4913   6.323   0.031   9.207 -0.1000 -0.6116 -0.1025
   62SAPC  H13R 4914   6.299  -0.063   9.154 -1.7587 -1.3289  1.8556
   62SAPC  H13S 4915   6.422   0.012   9.253  0.3425  0.1891 -0.7125
   62SAPC  C214 4916   6.337   0.156   9.114  0.2642  0.0197  0.7570
   62SAPC  H14R 4917   6.367   0.252   9.159 -1.8219  0.6822  0.7891
   62SAPC  C215 4918   6.330   0.155   8.978  0.6168  0.0721 -1.1967
   62SAPC  H15R 4919   6.345   0.250   8.925  0.5385  0.4833 -0.4946
   62SAPC  C216 4920   6.287   0.038   8.887  0.4445 -0.1002 -0.6908
   62SAPC  H16R 4921   6.284  -0.060   8.940  0.8323 -0.9945 -2.3035
   62SAPC  H16S 4922   6.373   0.035   8.818  1.3896  2.9645  0.3082
   62SAPC  C217 4923   6.161   0.061   8.805  0.9784  0.6436 -0.1839
   62SAPC  H17R 4924   6.166   0.158   8.752 -0.4205  0.1827 -1.1805
   62SAPC  H17S 4925   6.082   0.072   8.882  0.7075  0.3823 -0.4236
   62SAPC  C218 4926   6.132  -0.056   8.704 -0.0195 -0.4740  0.1198
   62SAPC  H18R 4927   6.138  -0.148   8.765  0.5885  0.5983  1.7241
   62SAPC  H18S 4928   6.199  -0.056   8.616  0.4479 -2.3278  0.4650
   62SAPC  C219 4929   5.996  -0.062   8.650  0.1156  0.8905 -0.5144
   62SAPC  H19R 4930   5.926  -0.091   8.731  0.7003 -0.2740 -0.4081
   62SAPC  H19S 4931   5.992  -0.143   8.574  0.8236  1.6741 -1.4049
   62SAPC  C220 4932   5.949   0.061   8.571 -0.2518  0.1023 -0.7006
   62SAPC  H20R 4933   6.018   0.072   8.484  0.5407  0.8649  0.0168
   62SAPC  H20S 4934   5.952   0.150   8.636  2.2548 -1.4063  1.3299
   62SAPC  H20T 4935   5.846   0.049   8.532 -0.7335  0.5484  0.4325
   62SAPC   C33 4936   6.667  -0.313   9.905  0.1488  0.0292 -0.0534
   62SAPC   H3X 4937   6.759  -0.309   9.842 -0.6489  1.4175 -1.1691
   62SAPC   H3Y 4938   6.625  -0.210   9.901 -0.6118 -0.3099 -1.4115
   62SAPC   C34 4939   6.564  -0.404   9.842  0.6709 -0.3205  0.0905
   62SAPC   H4X 4940   6.476  -0.407   9.909  1.6082  0.4661  1.3680
   62SAPC   H4Y 4941   6.612  -0.505   9.836 -0.6438 -0.8349 -2.1466
   62SAPC   C35 4942   6.513  -0.360   9.698 -0.0100 -0.3365 -0.7780
   62SAPC   H5X 4943   6.497  -0.251   9.703 -0.7043 -0.5008  1.4917
   62SAPC   H5Y 4944   6.414  -0.407   9.676  0.0588  0.7032 -3.3861
   62SAPC   C36 4945   6.603  -0.395   9.579  0.6034 -0.1039  0.0231
   62SAPC   H6X 4946   6.630  -0.502   9.589  0.7267 -0.1897 -1.1191
   62SAPC   H6Y 4947   6.694  -0.330   9.579 -0.3473  1.2500 -0.1442
   62SAPC   C37 4948   6.532  -0.364   9.450 -0.3217 -0.0903 -0.0108
   62SAPC   H7X 4949   6.484  -0.264   9.457  0.4285  0.1969  1.2044
   62SAPC   H7Y 4950   6.450  -0.438   9.433 -0.5176 -0.8449  3.6770
   62SAPC   C38 4951   6.635  -0.363   9.334 -0.7777  0.5098 -0.2696
   62SAPC   H8X 4952   6.664  -0.469   9.319 -0.2217  0.8171 -1.4219
   62SAPC   H8Y 4953   6.727  -0.318   9.377 -1.4747  0.9159  0.8584
   62SAPC   C39 4954   6.588  -0.306   9.196 -0.1649 -0.0354 -0.0496
   62SAPC   H9X 4955   6.681  -0.310   9.135  0.8298 -0.1313  1.4527
   62SAPC   H9Y 4956   6.560  -0.198   9.198 -2.6138 -0.6427 -0.9073
   62SAPC  C310 4957   6.477  -0.387   9.128 -0.4546 -0.1736 -0.1781
   62SAPC  H10X 4958   6.387  -0.387   9.193 -0.6304 -1.8505 -0.4051
   62SAPC  H10Y 4959   6.503  -0.495   9.123 -0.1554 -0.1848  1.3338
   62SAPC  C311 4960   6.454  -0.342   8.986  0.0383 -0.0109 -0.0474
   62SAPC  H11X 4961   6.553  -0.335   8.936 -0.4462  1.4649 -0.8451
   62SAPC  H11Y 4962   6.418  -0.237   8.990 -1.9316 -0.5809 -1.8778
   62SAPC  C312 4963   6.346  -0.425   8.917  0.6180  0.3605 -1.1574
   62SAPC  H12X 4964   6.250  -0.404   8.969  1.0006 -0.8318  0.0840
   62SAPC  H12Y 4965   6.368  -0.533   8.935 -1.1088  0.2784  0.7366
   62SAPC  C313 4966   6.318  -0.389   8.771 -0.0198 -0.2337 -0.2153
   62SAPC  H13X 4967   6.410  -0.411   8.713  1.0425  2.1088  0.5242
   62SAPC  H13Y 4968   6.312  -0.278   8.771 -0.7961 -0.2740  0.6808
   62SAPC  C314 4969   6.196  -0.457   8.704  0.1427 -0.3710  0.0468
   62SAPC  H14X 4970   6.101  -0.435   8.757  0.1613 -0.8784  0.2942
   62SAPC  H14Y 4971   6.221  -0.566   8.706  0.1692 -0.3492  1.0573
   62SAPC  C315 4972   6.184  -0.418   8.556 -0.0606 -0.1274 -0.1277
   62SAPC  H15X 4973   6.279  -0.458   8.513 -0.6142 -1.2315 -0.3308
   62SAPC  H15Y 4974   6.179  -0.307   8.555 -0.9321 -0.1559  0.8905
   62SAPC  C316 4975   6.061  -0.486   8.495 -0.1677  0.0351 -0.1313
   62SAPC  H16X 4976   5.967  -0.443   8.536 -0.0198  0.5775 -0.3636
   62SAPC  H16Y 4977   6.068  -0.596   8.511  2.6299  0.0976 -0.7253
   62SAPC  C317 4978   6.060  -0.452   8.352 -0.5446 -0.1919  0.2655
   62SAPC  H17X 4979   6.162  -0.465   8.311 -0.3267  5.3204 -1.3613
   62SAPC  H17Y 4980   6.034  -0.345   8.336  0.4488 -0.0630 -0.4965
   62SAPC  C318 4981   5.955  -0.539   8.281  0.0317 -0.6141 -0.1631
   62SAPC  H18X 4982   5.859  -0.544   8.337  0.6249 -0.7300  0.8552
   62SAPC  H18Y 4983   6.000  -0.637   8.255  1.2575  0.2885 -1.5483
   62SAPC  H18Z 4984   5.928  -0.496   8.182  1.9355 -2.2944 -1.4646
   63SAPC     N 4985   3.744   0.340   6.216  0.7288  0.4216  0.7860
   63SAPC   C12 4986   3.814   0.202   6.217 -0.9852  0.4444  0.2002
   63SAPC  H12A 4987   3.894   0.209   6.145 -1.0913  0.1245  0.0524
   63SAPC  H12B 4988   3.752   0.125   6.175  1.7476 -0.1783 -2.9275
   63SAPC   C13 4989   3.825   0.454   6.250  0.0202  0.0729 -0.6965
   63SAPC  H13A 4990   3.777   0.549   6.264 -2.3189 -1.4750  2.4703
   63SAPC  H13B 4991   3.878   0.441   6.343 -1.2340  2.0243  0.3237
   63SAPC  H13C 4992   3.905   0.461   6.178  1.2113 -2.9591  0.2584
   63SAPC   C14 4993   3.687   0.364   6.072  0.1880 -0.5258  0.2192
   63SAPC  H14A 4994   3.618   0.289   6.037  1.4892 -0.8211 -1.7465
   63SAPC  H14B 4995   3.635   0.459   6.076  0.0420 -0.6129  0.4332
   63SAPC  H14C 4996   3.778   0.376   6.015  1.8514  0.4330  2.9796
   63SAPC   C15 4997   3.627   0.323   6.305  1.0046 -0.3346  0.3234
   63SAPC  H15A 4998   3.571   0.415   6.306 -1.3771 -1.7093  2.6333
   63SAPC  H15B 4999   3.563   0.247   6.262  2.9151 -1.3596 -0.7852
   63SAPC  H15C 5000   3.647   0.311   6.411  0.4017  0.1883  0.4970
   63SAPC   C11 5001   3.864   0.153   6.357  0.6996  0.3181  0.2684
   63SAPC  H11A 5002   3.919   0.231   6.413  0.3710 -1.2571  2.8749
   63SAPC  H11B 5003   3.940   0.073   6.343  0.0104 -0.0279 -1.6061
   63SAPC     P 5004   3.673  -0.029   6.404  0.1769  0.1876 -0.6512
   63SAPC   O13 5005   3.533  -0.001   6.364  0.3951 -0.7881  0.7883
   63SAPC   O14 5006   3.754  -0.107   6.306  0.2206  0.3454  0.1202
   63SAPC   O12 5007   3.746   0.103   6.433 -0.4737 -0.1374  0.0571
   63SAPC   O11 5008   3.665  -0.114   6.540  0.3694  0.4471  0.0537
   63SAPC    C1 5009   3.777  -0.137   6.625  0.7001 -0.9210 -0.7634
   63SAPC    HA 5010   3.860  -0.078   6.583 -1.5996  2.1599 -1.1537
   63SAPC    HB 5011   3.760  -0.107   6.731  0.1087 -0.6837 -0.9187
   63SAPC    C2 5012   3.814  -0.287   6.621  0.1371  0.2365  0.7774
   63SAPC    HS 5013   3.804  -0.311   6.513  0.5716 -4.1855  1.6170
   63SAPC   O21 5014   3.717  -0.353   6.696  0.0367  0.3362  0.0833
   63SAPC   C21 5015   3.698  -0.484   6.684 -0.3747  0.3665 -0.7793
   63SAPC   O22 5016   3.764  -0.562   6.618  0.2006 -0.0835  0.4066
   63SAPC   C22 5017   3.588  -0.521   6.786 -0.0089  0.0879 -0.6195
   63SAPC   H2R 5018   3.645  -0.520   6.882  0.7372  1.0890 -1.0583
   63SAPC   H2S 5019   3.507  -0.445   6.789  0.6826  0.8703 -1.2608
   63SAPC    C3 5020   3.960  -0.306   6.663  0.8163  0.3771 -0.3299
   63SAPC    HX 5021   4.023  -0.246   6.594 -0.2252  0.9594 -0.7794
   63SAPC    HY 5022   3.989  -0.413   6.653  0.4783  0.0648  1.9065
   63SAPC   O31 5023   3.972  -0.253   6.795  0.0598  0.1362 -0.4429
   63SAPC   C31 5024   4.100  -0.275   6.847  0.2523  0.6569 -0.3832
   63SAPC   O32 5025   4.185  -0.336   6.784  0.1601 -0.9462 -0.4814
   63SAPC   C32 5026   4.113  -0.216   6.985  0.7354  0.0188  0.1248
   63SAPC   H2X 5027   4.014  -0.172   7.012  1.7219  1.4393  1.5008
   63SAPC   H2Y 5028   4.180  -0.128   6.976  0.2800  0.1124 -2.7812
   63SAPC   C23 5029   3.530  -0.663   6.764  0.2508 -0.8515  0.5532
   63SAPC   H3R 5030   3.613  -0.737   6.771 -1.2743 -2.7087 -0.4787
   63SAPC   H3S 5031   3.482  -0.673   6.664 -1.0702  2.1608  0.8554
   63SAPC   C24 5032   3.415  -0.683   6.864 -0.2287 -0.3002  0.3997
   63SAPC   H4R 5033   3.326  -0.640   6.814  0.5567  0.8006 -0.0775
   63SAPC   H4S 5034   3.427  -0.630   6.961 -3.1578  0.0381  0.6181
   63SAPC   C25 5035   3.402  -0.831   6.889 -0.5162  0.5983  0.1994
   63SAPC   H5R 5036   3.330  -0.889   6.830 -1.9539  0.4443  2.0678
   63SAPC   C26 5037   3.484  -0.889   6.971  0.0810  0.7250 -0.5926
   63SAPC   H6R 5038   3.469  -0.997   6.986 -0.1343  0.8300 -0.0551
   63SAPC   C27 5039   3.598  -0.837   7.058 -0.3444  0.3614  0.1965
   63SAPC   H7R 5040   3.626  -0.732   7.036 -0.9075  0.1780 -1.4271
   63SAPC   H7S 5041   3.689  -0.899   7.044 -2.0819 -2.3162  0.3859
   63SAPC   C28 5042   3.559  -0.845   7.202 -0.4197 -0.3208  0.1672
   63SAPC   H8R 5043   3.519  -0.747   7.232  0.7026  0.9056 -2.2232
   63SAPC   C29 5044   3.571  -0.945   7.289  0.3233 -0.6464 -0.0619
   63SAPC   H9R 5045   3.536  -0.925   7.392  1.8785 -0.1038  0.3713
   63SAPC  C210 5046   3.629  -1.078   7.265  0.2101  0.7794 -0.0487
   63SAPC  H10R 5047   3.692  -1.067   7.174  0.1259  0.9534 -0.0854
   63SAPC  H10S 5048   3.547  -1.150   7.245  0.2404 -0.1129  2.7997
   63SAPC  C211 5049   3.725  -1.131   7.370 -0.2996 -0.1040 -0.3573
   63SAPC  H11R 5050   3.831  -1.120   7.341 -0.7455 -0.4684 -2.2220
   63SAPC  C212 5051   3.698  -1.164   7.499  0.0114  0.1345 -0.0324
   63SAPC  H12R 5052   3.780  -1.194   7.566 -1.6061 -1.1332  1.4226
   63SAPC  C213 5053   3.564  -1.159   7.565 -0.5572 -0.5614 -0.1508
   63SAPC  H13R 5054   3.512  -1.256   7.546  1.9321 -1.5771 -2.0635
   63SAPC  H13S 5055   3.504  -1.083   7.510 -0.3820 -2.3202 -2.8830
   63SAPC  C214 5056   3.571  -1.116   7.709  0.2117  0.2290 -0.6233
   63SAPC  H14R 5057   3.670  -1.092   7.750  1.5253 -4.4718 -0.6991
   63SAPC  C215 5058   3.456  -1.087   7.782  0.5356  0.2475 -0.5602
   63SAPC  H15R 5059   3.468  -1.047   7.884  1.8130  1.9952 -1.3811
   63SAPC  C216 5060   3.316  -1.108   7.743  0.0534 -0.0725  0.2835
   63SAPC  H16R 5061   3.309  -1.120   7.632  2.2071  0.7100  0.0446
   63SAPC  H16S 5062   3.250  -1.025   7.775  1.6992  1.5565 -0.4963
   63SAPC  C217 5063   3.260  -1.235   7.824 -0.0582  0.3488 -1.1404
   63SAPC  H17R 5064   3.329  -1.318   7.801 -3.0209 -2.6698  0.4437
   63SAPC  H17S 5065   3.157  -1.274   7.812 -0.4216  0.8251  0.3400
   63SAPC  C218 5066   3.259  -1.218   7.977 -0.0363  0.5643  0.3728
   63SAPC  H18R 5067   3.347  -1.156   8.003  0.5765 -0.5288  0.9716
   63SAPC  H18S 5068   3.274  -1.314   8.031 -0.4110  0.3347  0.0792
   63SAPC  C219 5069   3.127  -1.142   8.021  0.0272  0.6177 -0.0552
   63SAPC  H19R 5070   3.048  -1.218   8.042  1.0062 -0.3998 -0.0373
   63SAPC  H19S 5071   3.091  -1.085   7.932 -1.1811  0.6218  0.4272
   63SAPC  C220 5072   3.139  -1.049   8.145 -0.3665 -0.1186 -0.2156
   63SAPC  H20R 5073   3.040  -1.008   8.173 -1.2631 -0.6178 -2.5250
   63SAPC  H20S 5074   3.212  -0.970   8.120 -1.4335  1.2902  1.0058
   63SAPC  H20T 5075   3.192  -1.105   8.225 -0.3872  0.1697  0.0001
   63SAPC   C33 5076   4.163  -0.315   7.100 -0.0881  0.3215 -0.2427
   63SAPC   H3X 5077   4.263  -0.359   7.079  0.2901  1.2421 -0.3706
   63SAPC   H3Y 5078   4.083  -0.391   7.085  0.9642 -0.2442 -3.2341
   63SAPC   C34 5079   4.163  -0.253   7.239 -0.7293  0.2299 -0.3005
   63SAPC   H4X 5080   4.068  -0.196   7.249 -0.0446  1.0830  1.6014
   63SAPC   H4Y 5081   4.242  -0.176   7.253 -1.4166  0.7228  0.9465
   63SAPC   C35 5082   4.183  -0.340   7.364 -0.0533 -0.5739  1.5271
   63SAPC   H5X 5083   4.231  -0.432   7.326 -0.8510 -0.8376  1.1441
   63SAPC   H5Y 5084   4.086  -0.374   7.407 -0.9163 -1.1543 -0.8208
   63SAPC   C36 5085   4.274  -0.271   7.468 -1.0261 -0.4374  0.8410
   63SAPC   H6X 5086   4.252  -0.163   7.479 -0.4961 -0.1345 -0.9268
   63SAPC   H6Y 5087   4.374  -0.286   7.422 -1.6446 -2.9337  0.2207
   63SAPC   C37 5088   4.275  -0.333   7.604  0.1425 -0.4105 -0.1441
   63SAPC   H7X 5089   4.298  -0.442   7.605 -1.0145 -0.6693 -0.0808
   63SAPC   H7Y 5090   4.169  -0.333   7.639 -0.2779  0.3428 -1.3744
   63SAPC   C38 5091   4.362  -0.276   7.715 -0.3013  0.0048 -0.4202
   63SAPC   H8X 5092   4.446  -0.216   7.673  1.2419 -2.4044 -0.8501
   63SAPC   H8Y 5093   4.409  -0.359   7.772  0.5188  0.0049 -1.0759
   63SAPC   C39 5094   4.279  -0.189   7.811  0.4488  0.6338  0.0459
   63SAPC   H9X 5095   4.210  -0.253   7.870  1.8329  0.9040  2.0334
   63SAPC   H9Y 5096   4.213  -0.120   7.754 -0.7900 -0.2751  0.3499
   63SAPC  C310 5097   4.360  -0.114   7.910  0.2654 -1.1304  0.8300
   63SAPC  H10X 5098   4.291  -0.080   7.990 -1.4450 -1.9244 -0.2846
   63SAPC  H10Y 5099   4.403  -0.025   7.859  1.7502 -2.3893 -0.1458
   63SAPC  C311 5100   4.482  -0.189   7.975  0.2184  0.4541  0.0024
   63SAPC  H11X 5101   4.542  -0.257   7.910  0.0579  0.6733 -0.3756
   63SAPC  H11Y 5102   4.432  -0.262   8.042  0.7965  1.1128  1.1589
   63SAPC  C312 5103   4.567  -0.107   8.069  0.2934  0.3640 -0.6020
   63SAPC  H12X 5104   4.510  -0.041   8.138  2.8029  1.5512  0.4237
   63SAPC  H12Y 5105   4.626  -0.041   8.002 -0.9571  1.1765 -0.9009
   63SAPC  C313 5106   4.659  -0.202   8.155 -0.6573  0.4775  0.4291
   63SAPC  H13X 5107   4.684  -0.301   8.112  1.4485  1.4903 -0.7871
   63SAPC  H13Y 5108   4.607  -0.225   8.251 -1.5433  2.6545  0.4949
   63SAPC  C314 5109   4.790  -0.140   8.205  0.2949  0.7053 -0.6335
   63SAPC  H14X 5110   4.870  -0.157   8.131  1.6355  0.6042  0.8131
   63SAPC  H14Y 5111   4.816  -0.206   8.291 -1.9306  1.2239  0.5009
   63SAPC  C315 5112   4.784   0.003   8.250 -0.0158 -0.0553  0.2858
   63SAPC  H15X 5113   4.713   0.004   8.335  1.5523 -5.9248  1.8537
   63SAPC  H15Y 5114   4.750   0.067   8.166  1.1922 -0.1165 -0.2554
   63SAPC  C316 5115   4.911   0.059   8.313 -0.0155 -1.0930  0.4305
   63SAPC  H16X 5116   4.957  -0.001   8.394  1.7714 -2.1896 -1.3613
   63SAPC  H16Y 5117   4.877   0.156   8.354 -0.6549 -0.9599 -0.3921
   63SAPC  C317 5118   5.027   0.085   8.210 -0.3885  0.3860  0.4270
   63SAPC  H17X 5119   4.983   0.140   8.124  3.0071 -0.7344 -2.1604
   63SAPC  H17Y 5120   5.086  -0.001   8.173  0.6441  0.7678  1.1539
   63SAPC  C318 5121   5.152   0.166   8.271 -0.0004  0.7780  0.6387
   63SAPC  H18X 5122   5.244   0.173   8.210 -0.8405  1.5830 -0.5654
   63SAPC  H18Y 5123   5.165   0.122   8.372 -0.5563  2.9334  1.6885
   63SAPC  H18Z 5124   5.112   0.268   8.291  1.3391  1.2406  0.9682
   64SAPC     N 5125   0.034   6.513   6.154  0.4807 -0.4374  0.2650
   64SAPC   C12 5126  -0.002   6.561   6.011  0.3616  0.3506  0.0300
   64SAPC  H12A 5127   0.063   6.520   5.935 -1.3995 -2.9921  0.2159
   64SAPC  H12B 5128   0.015   6.667   6.010 -1.8318  0.7557  1.4575
   64SAPC   C13 5129  -0.034   6.609   6.241  0.1243 -0.1511 -0.5952
   64SAPC  H13A 5130  -0.135   6.625   6.206 -0.7190 -1.0710  1.2973
   64SAPC  H13B 5131  -0.039   6.579   6.345 -0.5185  0.7850 -0.3509
   64SAPC  H13C 5132   0.020   6.702   6.228 -0.7881  0.0673 -3.1314
   64SAPC   C14 5133  -0.020   6.375   6.171 -0.4539 -0.3709  0.0522
   64SAPC  H14A 5134   0.015   6.346   6.269  0.6778  2.2243  0.4542
   64SAPC  H14B 5135  -0.128   6.381   6.166 -0.4751 -1.4351 -0.7025
   64SAPC  H14C 5136   0.013   6.306   6.096 -0.9915  1.3155 -1.7723
   64SAPC   C15 5137   0.182   6.517   6.175  0.3486 -0.4732  0.1449
   64SAPC  H15A 5138   0.229   6.459   6.098 -2.6966 -2.5058 -0.2595
   64SAPC  H15B 5139   0.221   6.617   6.158  1.9035 -1.5378 -2.7697
   64SAPC  H15C 5140   0.215   6.479   6.271  0.8485 -0.3283  0.0342
   64SAPC   C11 5141  -0.152   6.528   5.968 -0.3253  0.2128 -0.2728
   64SAPC  H11A 5142  -0.174   6.419   5.959  1.6189 -0.0646 -1.8665
   64SAPC  H11B 5143  -0.172   6.569   5.867  0.0675  2.5195  0.5630
   64SAPC     P 5144  -0.402   6.580   6.028 -0.0781 -0.1655 -0.1789
   64SAPC   O13 5145  -0.443   6.663   5.909 -0.2003  0.4953 -0.3180
   64SAPC   O14 5146  -0.443   6.439   6.023 -0.2180 -0.1742  0.6707
   64SAPC   O12 5147  -0.244   6.589   6.054  0.3218  0.4035 -0.3086
   64SAPC   O11 5148  -0.461   6.649   6.157 -0.0261  0.5746 -0.3227
   64SAPC    C1 5149  -0.402   6.762   6.216 -0.0529 -0.3052 -0.1857
   64SAPC    HA 5150  -0.293   6.747   6.235 -0.5436 -2.1425  1.2984
   64SAPC    HB 5151  -0.430   6.847   6.150 -0.4801 -0.7894 -0.6356
   64SAPC    C2 5152  -0.477   6.787   6.350 -0.3195  0.7785 -0.2458
   64SAPC    HS 5153  -0.413   6.857   6.407 -1.5927 -0.0128  2.1948
   64SAPC   O21 5154  -0.493   6.664   6.424  0.2381  0.2279  0.7113
   64SAPC   C21 5155  -0.379   6.620   6.474 -0.5169  0.2615 -0.1646
   64SAPC   O22 5156  -0.273   6.677   6.471  0.4151  0.4508 -0.4926
   64SAPC   C22 5157  -0.394   6.479   6.524 -0.0353  0.0473  0.2992
   64SAPC   H2R 5158  -0.440   6.481   6.625 -1.5114 -0.1763 -0.3586
   64SAPC   H2S 5159  -0.469   6.440   6.452  0.9675 -0.8724 -0.2611
   64SAPC    C3 5160  -0.618   6.850   6.333 -0.1098  0.1134 -0.2892
   64SAPC    HX 5161  -0.687   6.801   6.262 -1.2506 -0.3969  1.1369
   64SAPC    HY 5162  -0.608   6.952   6.291 -0.1259 -0.0446 -0.6771
   64SAPC   O31 5163  -0.677   6.862   6.465 -0.2529  0.9151  0.5961
   64SAPC   C31 5164  -0.757   6.763   6.505 -0.2429 -0.3704 -0.4852
   64SAPC   O32 5165  -0.776   6.658   6.451 -0.0002 -0.3788 -0.0799
   64SAPC   C32 5166  -0.822   6.809   6.634  0.0928 -0.3364  0.0598
   64SAPC   H2X 5167  -0.930   6.827   6.613  0.7993  0.8591 -2.7890
   64SAPC   H2Y 5168  -0.772   6.902   6.668 -0.0189  0.2433 -1.3173
   64SAPC   C23 5169  -0.275   6.382   6.511 -0.0799 -0.4112  0.2482
   64SAPC   H3R 5170  -0.208   6.411   6.427  0.3601 -0.8281  0.4473
   64SAPC   H3S 5171  -0.316   6.280   6.497  0.6529 -0.9421  1.7779
   64SAPC   C24 5172  -0.209   6.371   6.647 -0.6973  0.6934  0.2919
   64SAPC   H4R 5173  -0.188   6.472   6.689  2.8913  0.0368  0.2972
   64SAPC   H4S 5174  -0.110   6.326   6.623  1.1633  4.8018 -0.3080
   64SAPC   C25 5175  -0.268   6.273   6.748 -0.2765 -0.4653  0.6431
   64SAPC   H5R 5176  -0.260   6.168   6.716  1.1098 -0.5652  1.2503
   64SAPC   C26 5177  -0.326   6.308   6.864  0.0607  0.1076 -0.0781
   64SAPC   H6R 5178  -0.360   6.228   6.932  0.9365 -0.0924  0.1393
   64SAPC   C27 5179  -0.334   6.446   6.921  0.4513 -0.4279 -0.4148
   64SAPC   H7R 5180  -0.419   6.453   6.992  0.4066 -0.3726 -0.4745
   64SAPC   H7S 5181  -0.349   6.524   6.844  1.2421 -1.0182 -1.1790
   64SAPC   C28 5182  -0.216   6.479   6.999  0.3055 -0.3850  0.8429
   64SAPC   H8R 5183  -0.128   6.507   6.939  0.4844 -0.9842  0.8283
   64SAPC   C29 5184  -0.222   6.500   7.132  0.2384 -0.7565  0.4827
   64SAPC   H9R 5185  -0.126   6.511   7.185  0.2755  0.5325  0.1603
   64SAPC  C210 5186  -0.339   6.488   7.229 -0.4342 -0.4116  0.1637
   64SAPC  H10R 5187  -0.424   6.550   7.193 -0.2935 -0.8881 -0.9976
   64SAPC  H10S 5188  -0.313   6.551   7.316 -0.3289 -1.4397  0.8824
   64SAPC  C211 5189  -0.386   6.344   7.264 -0.2569 -0.9409  0.2143
   64SAPC  H11R 5190  -0.436   6.296   7.179 -1.5792 -1.3616  1.2117
   64SAPC  C212 5191  -0.391   6.291   7.387 -0.5737 -0.1799 -0.0146
   64SAPC  H12R 5192  -0.414   6.183   7.384 -0.6045 -0.2437  1.9997
   64SAPC  C213 5193  -0.351   6.350   7.523  0.3278  0.4197 -0.1499
   64SAPC  H13R 5194  -0.419   6.434   7.548 -0.5152 -0.6237  1.1153
   64SAPC  H13S 5195  -0.261   6.410   7.500  1.0183  0.2145  1.9168
   64SAPC  C214 5196  -0.328   6.247   7.629 -0.6611  0.5187 -0.0570
   64SAPC  H14R 5197  -0.298   6.143   7.605 -2.5743 -0.0620 -0.0429
   64SAPC  C215 5198  -0.339   6.287   7.760  0.0719 -1.0981 -0.4321
   64SAPC  H15R 5199  -0.331   6.210   7.837  1.1921 -1.0449 -0.4824
   64SAPC  C216 5200  -0.364   6.431   7.811 -0.2882  0.1878  0.4595
   64SAPC  H16R 5201  -0.435   6.491   7.750  0.7467  1.3041  0.3304
   64SAPC  H16S 5202  -0.271   6.489   7.825 -0.0468  0.0901 -0.6552
   64SAPC  C217 5203  -0.435   6.423   7.951  0.6519 -0.0073 -0.8279
   64SAPC  H17R 5204  -0.525   6.359   7.951 -0.0176  0.8635  2.6805
   64SAPC  H17S 5205  -0.468   6.526   7.976 -2.1492 -0.8254 -1.0863
   64SAPC  C218 5206  -0.335   6.389   8.064  0.1965 -1.0036  0.3649
   64SAPC  H18R 5207  -0.267   6.306   8.036  0.5856 -0.5155 -0.1412
   64SAPC  H18S 5208  -0.409   6.355   8.139 -0.7413  0.3072  0.0467
   64SAPC  C219 5209  -0.260   6.506   8.118 -0.3223  0.2575  0.3545
   64SAPC  H19R 5210  -0.334   6.587   8.139 -1.4856 -0.9342  0.8941
   64SAPC  H19S 5211  -0.187   6.536   8.040 -0.7701  1.3225  0.3283
   64SAPC  C220 5212  -0.190   6.468   8.250 -0.2972 -0.1265  1.0233
   64SAPC  H20R 5213  -0.125   6.381   8.229 -0.9264  0.0944 -2.1232
   64SAPC  H20S 5214  -0.255   6.452   8.339 -1.8877  4.2123  0.7689
   64SAPC  H20T 5215  -0.110   6.543   8.269 -0.8430  0.1088  2.5013
   64SAPC   C33 5216  -0.824   6.698   6.744 -0.7017  0.4287  0.1921
   64SAPC   H3X 5217  -0.868   6.610   6.692 -3.3055  2.3994 -1.0393
   64SAPC   H3Y 5218  -0.893   6.733   6.824 -0.2794  1.2416  0.2007
   64SAPC   C34 5219  -0.684   6.678   6.790 -0.8202 -0.1297 -0.6374
   64SAPC   H4X 5220  -0.615   6.664   6.704  1.2338  0.0489  0.9472
   64SAPC   H4Y 5221  -0.683   6.587   6.853  1.8229 -0.0945 -0.5585
   64SAPC   C35 5222  -0.618   6.787   6.886 -0.4471 -0.3849  0.1149
   64SAPC   H5X 5223  -0.600   6.885   6.837  2.1925 -0.2776  1.2188
   64SAPC   H5Y 5224  -0.522   6.740   6.917 -0.9005 -0.8223  0.8610
   64SAPC   C36 5225  -0.704   6.816   7.010  0.7279 -0.8375 -0.0554
   64SAPC   H6X 5226  -0.725   6.716   7.052  1.3911 -1.2207 -0.6340
   64SAPC   H6Y 5227  -0.798   6.867   6.979  0.4410  0.3749  2.6635
   64SAPC   C37 5228  -0.623   6.906   7.102  0.3569 -1.0043 -0.6359
   64SAPC   H7X 5229  -0.638   7.012   7.072  2.6963 -0.0859  1.2312
   64SAPC   H7Y 5230  -0.516   6.879   7.096  0.6363 -0.4642  1.3861
   64SAPC   C38 5231  -0.651   6.889   7.250  0.4106 -0.2781 -0.1824
   64SAPC   H8X 5232  -0.646   6.778   7.262 -0.4515 -0.3193 -0.1841
   64SAPC   H8Y 5233  -0.757   6.920   7.259  0.8367  0.3452  3.3644
   64SAPC   C39 5234  -0.563   6.966   7.349  0.5289 -0.8661 -0.0044
   64SAPC   H9X 5235  -0.579   7.068   7.308  2.5542 -0.1533  0.9094
   64SAPC   H9Y 5236  -0.457   6.937   7.333  0.6837 -0.3967  0.1613
   64SAPC  C310 5237  -0.607   6.959   7.493 -0.1196  0.1659  0.3050
   64SAPC  H10X 5238  -0.569   6.862   7.531 -2.1054 -0.9330 -0.4587
   64SAPC  H10Y 5239  -0.718   6.963   7.504 -0.0350  0.1509  1.1744
   64SAPC  C311 5240  -0.544   7.062   7.583 -0.0409  0.5103  0.8240
   64SAPC  H11X 5241  -0.563   7.166   7.551  1.7802  0.5340 -0.2457
   64SAPC  H11Y 5242  -0.437   7.037   7.596 -0.1371 -0.1080  0.4495
   64SAPC  C312 5243  -0.590   7.053   7.729 -0.3275  0.1730 -1.0372
   64SAPC  H12X 5244  -0.518   6.994   7.790 -0.0715 -0.9207 -2.3882
   64SAPC  H12Y 5245  -0.697   7.023   7.734  0.1387 -1.1774  1.9582
   64SAPC  C313 5246  -0.573   7.190   7.805 -0.0557  0.0995 -0.2049
   64SAPC  H13X 5247  -0.663   7.248   7.775 -0.3375  0.4887  1.3330
   64SAPC  H13Y 5248  -0.480   7.242   7.773 -1.0482  2.6996  0.9226
   64SAPC  C314 5249  -0.568   7.182   7.953 -0.0607 -0.5440  0.2026
   64SAPC  H14X 5250  -0.484   7.113   7.977  2.2314  2.0402 -0.2720
   64SAPC  H14Y 5251  -0.665   7.150   7.998  0.8636 -0.9904  1.9179
   64SAPC  C315 5252  -0.530   7.308   8.025  0.2984 -0.0166  0.0558
   64SAPC  H15X 5253  -0.433   7.346   7.986  0.3576  0.7474  0.9538
   64SAPC  H15Y 5254  -0.517   7.299   8.134  2.5567 -0.0934 -0.2062
   64SAPC  C316 5255  -0.628   7.419   8.002  0.0436 -0.8085  0.5614
   64SAPC  H16X 5256  -0.729   7.387   8.035 -0.6786  1.9177  1.1155
   64SAPC  H16Y 5257  -0.631   7.454   7.896  0.3952 -0.4766  0.6584
   64SAPC  C317 5258  -0.595   7.547   8.086  0.1200  0.5058  0.0992
   64SAPC  H17X 5259  -0.670   7.623   8.057 -3.1155 -1.9582  1.6059
   64SAPC  H17Y 5260  -0.488   7.576   8.075  0.0991 -0.5765 -3.3955
   64SAPC  C318 5261  -0.607   7.523   8.232 -0.0699 -0.5689 -0.2125
   64SAPC  H18X 5262  -0.707   7.477   8.249 -0.3193  0.2831  0.7015
   64SAPC  H18Y 5263  -0.587   7.618   8.287  0.4170 -0.2028 -1.0197
   64SAPC  H18Z 5264  -0.546   7.437   8.268 -0.7485 -0.7281  0.5919
   65SAPC     N 5265   5.783   1.867   6.042 -0.5286 -0.1810  0.8463
   65SAPC   C12 5266   5.726   1.765   6.137  0.4249  0.6895 -0.0557
   65SAPC  H12A 5267   5.685   1.684   6.079 -0.8981  2.0945 -1.1334
   65SAPC  H12B 5268   5.630   1.797   6.175 -0.8848 -1.7940 -1.1208
   65SAPC   C13 5269   5.856   1.980   6.116  0.5169 -0.2832  0.2346
   65SAPC  H13A 5270   5.791   2.033   6.183 -1.5792 -1.6014 -0.7210
   65SAPC  H13B 5271   5.940   1.936   6.167 -0.1769 -2.8268 -0.7813
   65SAPC  H13C 5272   5.887   2.046   6.035  0.9394  0.1832  0.7715
   65SAPC   C14 5273   5.889   1.813   5.950 -0.0627 -0.2772  0.3509
   65SAPC  H14A 5274   5.929   1.893   5.890 -0.3160 -0.8480 -0.5961
   65SAPC  H14B 5275   5.967   1.762   6.005  0.6310  0.6575  0.2549
   65SAPC  H14C 5276   5.852   1.735   5.885 -0.0350 -0.4111  0.4951
   65SAPC   C15 5277   5.661   1.927   5.971 -0.7998  0.1985  0.2681
   65SAPC  H15A 5278   5.628   1.869   5.887 -0.4735 -1.0003  0.9608
   65SAPC  H15B 5279   5.578   1.944   6.037 -2.2362  0.4591 -1.5923
   65SAPC  H15C 5280   5.685   2.020   5.922  1.8398 -1.2971 -1.4305
   65SAPC   C11 5281   5.814   1.705   6.241  0.2147  0.3848 -0.1199
   65SAPC  H11A 5282   5.741   1.647   6.302 -0.3521  1.2964  0.0714
   65SAPC  H11B 5283   5.859   1.780   6.309  2.0151 -1.2312  0.5280
   65SAPC     P 5284   5.907   1.481   6.125  0.1914  0.1611  0.0601
   65SAPC   O13 5285   5.773   1.469   6.065 -0.4130  0.1982  0.6197
   65SAPC   O14 5286   6.026   1.451   6.042 -0.5965 -0.4363  0.5008
   65SAPC   O12 5287   5.920   1.628   6.183 -0.3817  0.3462  0.5295
   65SAPC   O11 5288   5.906   1.396   6.255 -0.1161  0.8866  0.1717
   65SAPC    C1 5289   6.012   1.395   6.351  0.5407  0.0942 -0.2769
   65SAPC    HA 5290   6.101   1.336   6.320  0.4659 -1.1113  1.7083
   65SAPC    HB 5291   6.050   1.499   6.361  0.8363 -0.2282  2.2800
   65SAPC    C2 5292   5.974   1.349   6.498  0.3115 -0.4727 -0.3090
   65SAPC    HS 5293   5.946   1.436   6.560  0.2502 -1.2290  0.7376
   65SAPC   O21 5294   6.086   1.287   6.576 -0.1903 -0.0871 -0.1780
   65SAPC   C21 5295   6.190   1.355   6.589 -0.4023 -0.0153  0.3207
   65SAPC   O22 5296   6.219   1.465   6.540 -0.3982  0.4325  0.2061
   65SAPC   C22 5297   6.297   1.271   6.663  0.1194  1.1665  0.1936
   65SAPC   H2R 5298   6.254   1.216   6.749  0.5216  0.9133  0.2326
   65SAPC   H2S 5299   6.338   1.191   6.598  1.6723  1.2590  1.0314
   65SAPC    C3 5300   5.857   1.254   6.510 -1.4224  0.6867  0.6114
   65SAPC    HX 5301   5.882   1.155   6.468 -1.9568  0.9483 -0.3476
   65SAPC    HY 5302   5.777   1.292   6.442 -0.3590  1.3694 -0.2754
   65SAPC   O31 5303   5.816   1.246   6.649 -0.2538  0.1784 -0.2698
   65SAPC   C31 5304   5.867   1.158   6.725 -0.9649 -0.0609 -0.2113
   65SAPC   O32 5305   5.950   1.069   6.693  0.6402 -0.2128 -0.6515
   65SAPC   C32 5306   5.814   1.181   6.868  0.2448 -0.4077  0.2148
   65SAPC   H2X 5307   5.710   1.221   6.865 -0.0005 -1.1576 -1.8307
   65SAPC   H2Y 5308   5.869   1.265   6.915 -2.1305  0.4227  1.6482
   65SAPC   C23 5309   6.408   1.368   6.727 -0.6240 -0.2057 -0.3607
   65SAPC   H3R 5310   6.363   1.428   6.809 -0.7179  0.6560 -1.0313
   65SAPC   H3S 5311   6.460   1.432   6.652 -1.4803 -0.0808 -0.8493
   65SAPC   C24 5312   6.526   1.293   6.797 -0.1848 -0.2372  0.6382
   65SAPC   H4R 5313   6.576   1.226   6.723 -1.8835  2.0777 -2.7225
   65SAPC   H4S 5314   6.482   1.226   6.874 -2.3787 -1.3982 -1.5782
   65SAPC   C25 5315   6.625   1.392   6.856  0.6106 -0.8094 -0.1365
   65SAPC   H5R 5316   6.707   1.434   6.796  1.0547  0.9440  1.6640
   65SAPC   C26 5317   6.626   1.449   6.976  0.1281  0.1550  0.6377
   65SAPC   H6R 5318   6.696   1.530   7.003 -1.1899  1.1434  1.1321
   65SAPC   C27 5319   6.519   1.435   7.087  0.4381  0.1696  0.0757
   65SAPC   H7R 5320   6.565   1.384   7.175 -0.2276 -0.1157  0.2599
   65SAPC   H7S 5321   6.438   1.364   7.060  0.8118 -0.1135 -0.3019
   65SAPC   C28 5322   6.458   1.570   7.126 -0.4566 -0.1588 -0.3632
   65SAPC   H8R 5323   6.353   1.582   7.098 -0.1345  2.0469 -0.6896
   65SAPC   C29 5324   6.516   1.672   7.190  0.3464  0.0601  0.1082
   65SAPC   H9R 5325   6.459   1.765   7.204  0.0557 -0.1519  0.3411
   65SAPC  C210 5326   6.660   1.681   7.236  0.4663 -0.6694  0.6850
   65SAPC  H10R 5327   6.724   1.594   7.209  0.7839 -0.3534  0.4285
   65SAPC  H10S 5328   6.662   1.667   7.347 -2.2275 -0.0600  0.8444
   65SAPC  C211 5329   6.731   1.809   7.190 -0.0544  0.5028 -0.5279
   65SAPC  H11R 5330   6.752   1.815   7.082 -0.4777  3.6953 -0.4899
   65SAPC  C212 5331   6.768   1.920   7.257  0.5534 -0.9139 -0.0302
   65SAPC  H12R 5332   6.806   2.001   7.193 -1.9285  2.2092  2.2456
   65SAPC  C213 5333   6.765   1.952   7.402  0.1742 -0.1161 -0.2904
   65SAPC  H13R 5334   6.861   2.003   7.426  1.1879 -2.9095  1.9161
   65SAPC  H13S 5335   6.763   1.863   7.469 -0.1444  0.1006 -0.0136
   65SAPC  C214 5336   6.647   2.034   7.443 -0.5690 -0.3025  0.7570
   65SAPC  H14R 5337   6.593   2.091   7.365  1.6396  2.6988  1.3201
   65SAPC  C215 5338   6.607   2.044   7.576 -0.2565 -0.2928 -0.0626
   65SAPC  H15R 5339   6.521   2.112   7.586  0.9332  0.9802  1.6674
   65SAPC  C216 5340   6.665   1.996   7.707  0.7778 -0.6269 -0.0170
   65SAPC  H16R 5341   6.724   1.904   7.692 -0.1428 -0.8422 -2.6137
   65SAPC  H16S 5342   6.584   1.959   7.773 -0.1275  1.8022  0.2820
   65SAPC  C217 5343   6.734   2.107   7.787 -0.2388 -0.0453 -0.4465
   65SAPC  H17R 5344   6.669   2.195   7.806  0.9771  0.8143 -0.1890
   65SAPC  H17S 5345   6.820   2.142   7.726  1.1330  0.4314  1.7271
   65SAPC  C218 5346   6.789   2.068   7.922  0.1875  0.1095  0.1820
   65SAPC  H18R 5347   6.865   1.989   7.900 -0.1983 -0.7099  1.7278
   65SAPC  H18S 5348   6.718   2.011   7.986  0.8008 -0.6922  0.1649
   65SAPC  C219 5349   6.840   2.182   8.013  0.1098 -0.2090  0.1888
   65SAPC  H19R 5350   6.904   2.160   8.101 -0.5095  1.1584  1.0024
   65SAPC  H19S 5351   6.747   2.226   8.055 -0.8277 -0.7581 -1.2728
   65SAPC  C220 5352   6.912   2.300   7.937  0.1632 -0.0195  0.5685
   65SAPC  H20R 5353   6.871   2.305   7.834 -0.2514  0.3750  0.7523
   65SAPC  H20S 5354   7.022   2.282   7.934  0.3354  0.9191  0.9686
   65SAPC  H20T 5355   6.899   2.400   7.983 -0.0850 -0.4058  1.3493
   65SAPC   C33 5356   5.817   1.055   6.949  0.9884 -0.3093 -0.2389
   65SAPC   H3X 5357   5.859   1.065   7.051 -0.6736  0.5689  0.3794
   65SAPC   H3Y 5358   5.895   0.988   6.907  2.4795  1.6233 -0.6180
   65SAPC   C34 5359   5.681   0.984   6.957 -0.3267  0.3596 -0.5087
   65SAPC   H4X 5360   5.648   0.955   6.855  0.5626 -0.0116 -0.6970
   65SAPC   H4Y 5361   5.604   1.058   6.989  2.2126  2.6550  0.4515
   65SAPC   C35 5362   5.693   0.863   7.054 -0.2765  0.7713 -0.9032
   65SAPC   H5X 5363   5.778   0.814   7.000  0.9680  2.5582 -0.6100
   65SAPC   H5Y 5364   5.605   0.796   7.060 -0.0764  0.5851  0.0923
   65SAPC   C36 5365   5.743   0.879   7.196  0.5116  0.2563  0.4318
   65SAPC   H6X 5366   5.849   0.915   7.199 -0.3023  2.6808  2.7789
   65SAPC   H6Y 5367   5.750   0.782   7.248 -0.2780  0.5474  1.0830
   65SAPC   C37 5368   5.658   0.973   7.290 -0.4581  0.4138 -0.4406
   65SAPC   H7X 5369   5.561   0.924   7.317  0.7785 -3.0262 -1.9038
   65SAPC   H7Y 5370   5.642   1.073   7.246  1.3466 -0.0524 -2.1849
   65SAPC   C38 5371   5.735   0.998   7.418 -0.2126 -0.2422  0.2487
   65SAPC   H8X 5372   5.836   1.037   7.392  0.0688  0.5562  2.4417
   65SAPC   H8Y 5373   5.754   0.899   7.464 -0.0499 -0.7811 -0.9630
   65SAPC   C39 5374   5.662   1.093   7.514 -0.1464  0.1864  0.2753
   65SAPC   H9X 5375   5.563   1.046   7.534 -0.1351 -0.9536 -2.1157
   65SAPC   H9Y 5376   5.638   1.188   7.461 -2.5872  0.3452  1.6073
   65SAPC  C310 5377   5.735   1.091   7.647  0.9377  0.0364  0.6839
   65SAPC  H10X 5378   5.841   1.120   7.629  0.4563  1.9070  0.7241
   65SAPC  H10Y 5379   5.742   0.987   7.686 -0.6667 -0.0815  0.6932
   65SAPC  C311 5380   5.674   1.168   7.763 -0.4586 -0.3873  0.4373
   65SAPC  H11X 5381   5.588   1.109   7.802 -0.1575 -1.1807 -0.0647
   65SAPC  H11Y 5382   5.632   1.264   7.727  1.1838 -0.0408 -0.6315
   65SAPC  C312 5383   5.790   1.193   7.854  0.5790  0.1887  0.3313
   65SAPC  H12X 5384   5.857   1.264   7.801 -1.6086  0.2432 -2.5066
   65SAPC  H12Y 5385   5.855   1.103   7.866 -1.0553 -1.0560  0.0495
   65SAPC  C313 5386   5.742   1.263   7.979  0.5366  0.3605  0.3044
   65SAPC  H13X 5387   5.834   1.280   8.040 -1.3274 -1.7726  3.9044
   65SAPC  H13Y 5388   5.672   1.193   8.029 -0.7391  0.9636 -0.5873
   65SAPC  C314 5389   5.672   1.396   7.959  0.5128  0.0380 -0.1317
   65SAPC  H14X 5390   5.585   1.382   7.891  0.7619 -0.2156 -0.4062
   65SAPC  H14Y 5391   5.751   1.454   7.907  1.4557 -0.2310  0.9843
   65SAPC  C315 5392   5.645   1.459   8.094  0.1368  0.0623  0.6108
   65SAPC  H15X 5393   5.731   1.439   8.161  0.1321 -2.6079 -0.1529
   65SAPC  H15Y 5394   5.557   1.409   8.141  0.8380 -0.1687  1.6873
   65SAPC  C316 5395   5.610   1.611   8.100  0.3985  0.2557  0.3735
   65SAPC  H16X 5396   5.512   1.633   8.051  0.6247 -0.0042 -0.1949
   65SAPC  H16Y 5397   5.687   1.662   8.039  0.9224 -2.0812 -0.9480
   65SAPC  C317 5398   5.611   1.665   8.245 -0.1831 -0.0987  0.2401
   65SAPC  H17X 5399   5.565   1.586   8.308 -0.6452  0.9799  1.2702
   65SAPC  H17Y 5400   5.553   1.760   8.242 -0.4790 -0.3296 -2.3166
   65SAPC  C318 5401   5.755   1.694   8.293 -0.2472  0.5157 -0.8199
   65SAPC  H18X 5402   5.822   1.609   8.268 -0.4365 -0.2662  1.2235
   65SAPC  H18Y 5403   5.766   1.725   8.399 -1.1773  0.1355 -0.6116
   65SAPC  H18Z 5404   5.801   1.774   8.231 -0.9974  1.4972 -0.1181
   66SAPC     N 5405   4.516   0.413   6.033  0.4122 -0.0276  0.5111
   66SAPC   C12 5406   4.488   0.440   6.178  0.0562  0.1773 -0.0210
   66SAPC  H12A 5407   4.582   0.415   6.226 -0.9656 -0.2662  1.8285
   66SAPC  H12B 5408   4.415   0.372   6.219 -2.1865  1.3466 -1.9926
   66SAPC   C13 5409   4.387   0.391   5.958  0.2978  0.0279  0.7747
   66SAPC  H13A 5410   4.341   0.307   6.009  0.6556  0.4623  1.8384
   66SAPC  H13B 5411   4.325   0.476   5.980 -0.1329  0.1383 -0.8302
   66SAPC  H13C 5412   4.391   0.370   5.852 -0.8345  1.4667  0.4404
   66SAPC   C14 5413   4.594   0.526   5.972 -0.4201  0.6912 -0.3699
   66SAPC  H14A 5414   4.612   0.525   5.866 -0.0994 -0.8736 -0.3078
   66SAPC  H14B 5415   4.539   0.618   5.992 -1.7114  0.0459 -0.8748
   66SAPC  H14C 5416   4.691   0.531   6.019 -0.2680  3.7857 -0.8877
   66SAPC   C15 5417   4.592   0.288   6.011  0.4125  0.4180 -0.1379
   66SAPC  H15A 5418   4.679   0.282   6.075  0.8560 -0.3145 -0.7976
   66SAPC  H15B 5419   4.530   0.201   6.029  1.1456 -0.3377 -1.1977
   66SAPC  H15C 5420   4.625   0.286   5.908  1.3792 -1.0530  0.1807
   66SAPC   C11 5421   4.433   0.585   6.210  0.4795  0.3109  0.6805
   66SAPC  H11A 5422   4.497   0.663   6.164 -1.2393  1.3994  0.0823
   66SAPC  H11B 5423   4.441   0.609   6.319 -0.5300 -0.7734  1.0092
   66SAPC     P 5424   4.226   0.697   6.085  0.6075  0.1839 -0.3082
   66SAPC   O13 5425   4.324   0.736   5.979  0.0370  0.1882  0.0802
   66SAPC   O14 5426   4.085   0.653   6.055 -0.5808 -0.4482  0.4262
   66SAPC   O12 5427   4.289   0.589   6.181  0.6904  0.5911  0.1886
   66SAPC   O11 5428   4.217   0.817   6.188 -0.1294  0.2222 -0.7446
   66SAPC    C1 5429   4.161   0.821   6.320 -0.3387  0.2035  0.4056
   66SAPC    HA 5430   4.078   0.748   6.333 -0.5075  0.3618  0.2104
   66SAPC    HB 5431   4.238   0.806   6.399  0.7400  1.0382 -0.4865
   66SAPC    C2 5432   4.093   0.958   6.338  0.0988  0.1884 -0.5534
   66SAPC    HS 5433   4.014   0.972   6.261  1.8759  1.5901 -2.1609
   66SAPC   O21 5434   4.196   1.061   6.347  0.1937  0.5880  0.2538
   66SAPC   C21 5435   4.167   1.174   6.282 -0.7255  0.1163  0.5044
   66SAPC   O22 5436   4.068   1.190   6.214 -0.8459 -0.6400 -0.8043
   66SAPC   C22 5437   4.272   1.284   6.297 -0.2743  0.3620  0.1261
   66SAPC   H2R 5438   4.361   1.263   6.233 -0.5617 -0.4722 -0.0147
   66SAPC   H2S 5439   4.228   1.375   6.251  0.2719  0.3849 -0.3623
   66SAPC    C3 5440   4.023   0.956   6.483  0.4571 -0.3278 -0.6630
   66SAPC    HX 5441   3.940   0.884   6.465  0.0901 -0.4057  1.3036
   66SAPC    HY 5442   3.983   1.058   6.499 -0.2451 -0.8899  1.3030
   66SAPC   O31 5443   4.108   0.902   6.589  0.0540 -0.4435  0.1523
   66SAPC   C31 5444   4.041   0.922   6.706  0.4002  0.1590 -0.0894
   66SAPC   O32 5445   3.935   0.982   6.716  0.1578  0.1592 -0.3002
   66SAPC   C32 5446   4.131   0.885   6.825 -0.4575  0.2841 -0.2250
   66SAPC   H2X 5447   4.218   0.953   6.839 -0.2493  0.3034 -1.5777
   66SAPC   H2Y 5448   4.191   0.795   6.800 -1.2494 -0.5362  0.7862
   66SAPC   C23 5449   4.306   1.306   6.449 -0.0775 -0.7841 -0.3714
   66SAPC   H3R 5450   4.412   1.337   6.464 -0.0042 -1.6207  0.9234
   66SAPC   H3S 5451   4.313   1.209   6.503  1.3705 -0.5860 -0.1780
   66SAPC   C24 5452   4.202   1.402   6.518 -0.0796  0.2646  0.0490
   66SAPC   H4R 5453   4.189   1.495   6.459 -1.8095 -0.4676 -0.7669
   66SAPC   H4S 5454   4.252   1.430   6.613  0.2709 -2.3569  0.6764
   66SAPC   C25 5455   4.066   1.340   6.541  0.3115 -0.1607 -0.1838
   66SAPC   H5R 5456   4.009   1.313   6.451 -2.5162 -2.1914  2.1234
   66SAPC   C26 5457   4.010   1.329   6.665 -0.4584  0.0716  0.5068
   66SAPC   H6R 5458   3.927   1.259   6.679  0.3051 -1.3277 -1.5779
   66SAPC   C27 5459   4.079   1.379   6.789  0.3228  0.6461 -0.0803
   66SAPC   H7R 5460   3.992   1.393   6.858  2.4473 -1.2422  3.1337
   66SAPC   H7S 5461   4.129   1.477   6.778  0.3629  0.5962 -0.3349
   66SAPC   C28 5462   4.184   1.283   6.843  0.1837  0.2777 -0.2934
   66SAPC   H8R 5463   4.250   1.223   6.777 -0.7811  0.4515 -1.4233
   66SAPC   C29 5464   4.201   1.277   6.975  0.1376  0.2485 -0.0013
   66SAPC   H9R 5465   4.277   1.207   7.014  1.7934  1.9234 -0.1042
   66SAPC  C210 5466   4.127   1.339   7.090 -0.1506 -0.3931  0.6834
   66SAPC  H10R 5467   4.089   1.437   7.053  1.8814 -0.5641 -2.0118
   66SAPC  H10S 5468   4.201   1.353   7.172  0.0992  1.2829  0.1960
   66SAPC  C211 5469   4.006   1.253   7.126 -0.2263 -0.3911  0.2456
   66SAPC  H11R 5470   3.929   1.235   7.050  0.6189  0.6398 -0.8845
   66SAPC  C212 5471   3.988   1.214   7.254  0.4545  0.5942 -0.7192
   66SAPC  H12R 5472   3.890   1.165   7.264  0.2850  0.6903 -1.8070
   66SAPC  C213 5473   4.076   1.236   7.373 -0.4383 -0.3369 -0.3850
   66SAPC  H13R 5474   4.024   1.201   7.465 -0.7296 -1.7987 -1.0947
   66SAPC  H13S 5475   4.096   1.344   7.389 -0.3604 -0.1479 -1.6580
   66SAPC  C214 5476   4.217   1.177   7.366 -0.5911  0.2931  0.8026
   66SAPC  H14R 5477   4.246   1.138   7.267 -3.5176  1.4637 -0.5501
   66SAPC  C215 5478   4.299   1.167   7.466  0.1943 -0.3876 -0.3058
   66SAPC  H15R 5479   4.398   1.122   7.445 -0.3373 -0.9897 -1.6326
   66SAPC  C216 5480   4.280   1.218   7.602  0.3718  0.6697 -0.2244
   66SAPC  H16R 5481   4.203   1.298   7.601  0.0298  0.3456  0.3057
   66SAPC  H16S 5482   4.371   1.260   7.650  2.2912 -1.7559 -1.5935
   66SAPC  C217 5483   4.240   1.110   7.708 -0.2735 -0.9076  1.2257
   66SAPC  H17R 5484   4.329   1.045   7.724 -0.1769 -0.4303  2.6823
   66SAPC  H17S 5485   4.159   1.049   7.663 -2.3534  1.8179  1.1465
   66SAPC  C218 5486   4.213   1.176   7.845  0.2469  0.0309  0.4233
   66SAPC  H18R 5487   4.280   1.265   7.849  2.2759 -1.4875  1.6501
   66SAPC  H18S 5488   4.245   1.116   7.933  1.5592 -0.0544 -0.0959
   66SAPC  C219 5489   4.067   1.221   7.864  0.1954 -0.0661 -0.1122
   66SAPC  H19R 5490   4.035   1.285   7.779  0.4044  3.3822  2.3077
   66SAPC  H19S 5491   4.054   1.280   7.958  1.0519 -0.5827  0.3316
   66SAPC  C220 5492   3.964   1.105   7.879  0.3237 -0.0109 -0.3325
   66SAPC  H20R 5493   3.862   1.144   7.897  0.4283  0.2215 -0.2387
   66SAPC  H20S 5494   3.999   1.050   7.969  0.3945  0.9963  0.2602
   66SAPC  H20T 5495   3.957   1.044   7.786  0.1495  0.8446 -0.8860
   66SAPC   C33 5496   4.053   0.846   6.958  0.3578  0.5179 -0.0999
   66SAPC   H3X 5497   4.017   0.744   6.933 -2.1599  1.1951  0.5293
   66SAPC   H3Y 5498   3.965   0.912   6.974 -0.4415 -0.5950  0.1496
   66SAPC   C34 5499   4.152   0.847   7.085  0.3609 -0.0470  0.2883
   66SAPC   H4X 5500   4.198   0.948   7.083  2.8389 -1.1590 -1.6192
   66SAPC   H4Y 5501   4.238   0.778   7.075  0.6894  0.2151  1.2286
   66SAPC   C35 5502   4.088   0.824   7.225 -0.0693 -0.8629  0.6078
   66SAPC   H5X 5503   4.039   0.918   7.256  1.0679 -0.0961  0.1086
   66SAPC   H5Y 5504   4.165   0.815   7.305  0.9185  0.4870 -0.1845
   66SAPC   C36 5505   4.005   0.698   7.235  0.0116 -0.2197  0.4827
   66SAPC   H6X 5506   4.068   0.608   7.219 -1.0886 -1.1474  1.2617
   66SAPC   H6Y 5507   3.927   0.700   7.155 -0.6094 -0.1403  1.0871
   66SAPC   C37 5508   3.935   0.682   7.370  0.3119 -0.0689  0.3682
   66SAPC   H7X 5509   3.853   0.607   7.366 -0.0428  0.4052 -4.0627
   66SAPC   H7Y 5510   3.889   0.778   7.398 -0.6995 -1.0037  1.9621
   66SAPC   C38 5511   4.037   0.640   7.479  0.4924  0.2610 -0.4610
   66SAPC   H8X 5512   4.119   0.714   7.487  0.0080  0.7608 -0.0481
   66SAPC   H8Y 5513   4.080   0.546   7.438  2.8097  0.4496  1.4354
   66SAPC   C39 5514   3.984   0.611   7.622 -0.1041 -0.8180 -1.1836
   66SAPC   H9X 5515   4.069   0.574   7.683  1.0649  3.2130 -0.1619
   66SAPC   H9Y 5516   3.902   0.537   7.614 -0.4374 -0.4955 -0.8030
   66SAPC  C310 5517   3.924   0.732   7.700 -0.9187 -0.0016  0.6005
   66SAPC  H10X 5518   3.842   0.771   7.636 -2.2260 -2.3113  0.8160
   66SAPC  H10Y 5519   3.995   0.817   7.706 -0.1344 -0.8850  4.9851
   66SAPC  C311 5520   3.865   0.698   7.838 -0.3641  0.3272  0.0003
   66SAPC  H11X 5521   3.780   0.630   7.823  0.0567 -0.3073  0.4677
   66SAPC  H11Y 5522   3.829   0.798   7.871 -1.8205 -0.1808 -0.0359
   66SAPC  C312 5523   3.967   0.635   7.940  0.5569 -0.6154 -0.1155
   66SAPC  H12X 5524   4.032   0.556   7.898  1.5378 -0.0416  0.3155
   66SAPC  H12Y 5525   3.900   0.576   8.007  1.5146 -0.5112  0.9457
   66SAPC  C313 5526   4.069   0.737   7.991 -0.3665  0.0908  0.2131
   66SAPC  H13X 5527   4.016   0.825   8.033 -0.2959 -1.1607  3.0253
   66SAPC  H13Y 5528   4.115   0.778   7.898 -1.8488 -1.1708 -1.1045
   66SAPC  C314 5529   4.173   0.691   8.090 -0.3767  0.1644 -0.1853
   66SAPC  H14X 5530   4.239   0.611   8.050  0.3551  0.1573  0.9958
   66SAPC  H14Y 5531   4.132   0.668   8.191  1.5431  0.4305  0.6950
   66SAPC  C315 5532   4.282   0.799   8.119  0.2185 -0.5090  0.7996
   66SAPC  H15X 5533   4.241   0.892   8.163  1.5208  0.0703  0.8138
   66SAPC  H15Y 5534   4.319   0.826   8.018 -0.2375 -1.8746  0.2561
   66SAPC  C316 5535   4.392   0.737   8.212 -0.2992  0.2377  0.4683
   66SAPC  H16X 5536   4.453   0.661   8.158  1.2988  2.7013 -1.3084
   66SAPC  H16Y 5537   4.331   0.684   8.288 -1.6125  1.2629  0.1579
   66SAPC  C317 5538   4.489   0.845   8.262 -0.4985  0.2128  0.3493
   66SAPC  H17X 5539   4.439   0.944   8.268 -1.4181 -0.3645  2.4127
   66SAPC  H17Y 5540   4.572   0.843   8.187 -0.7050 -3.2938  0.1168
   66SAPC  C318 5541   4.550   0.819   8.405 -0.7137  0.5746 -0.3975
   66SAPC  H18X 5542   4.617   0.898   8.445  2.5273 -3.1853  1.9319
   66SAPC  H18Y 5543   4.617   0.731   8.402 -1.6044 -0.0714 -1.7778
   66SAPC  H18Z 5544   4.464   0.796   8.472  1.1531 -2.7765  0.9261
   67SAPC     N 5545   6.695   1.776   6.213  0.6284  0.6531  0.1350
   67SAPC   C12 5546   6.780   1.804   6.335 -0.4730  0.4152  0.4981
   67SAPC  H12A 5547   6.878   1.826   6.295  0.1219 -2.2580  0.3717
   67SAPC  H12B 5548   6.797   1.708   6.382  1.6887  0.1813 -0.7069
   67SAPC   C13 5549   6.742   1.653   6.152 -0.6513 -0.0732  0.2395
   67SAPC  H13A 5550   6.728   1.566   6.215  3.0469 -0.6742  0.3823
   67SAPC  H13B 5551   6.687   1.635   6.061 -0.3691  1.0438 -0.1616
   67SAPC  H13C 5552   6.842   1.660   6.112  0.1140  0.6925  2.2234
   67SAPC   C14 5553   6.545   1.753   6.237  0.2573  0.3136 -0.6534
   67SAPC  H14A 5554   6.491   1.772   6.146 -1.8908  1.6171  0.8568
   67SAPC  H14B 5555   6.520   1.656   6.277  0.4457 -0.3427 -2.1104
   67SAPC  H14C 5556   6.523   1.836   6.303  0.3041  0.6394 -1.0410
   67SAPC   C15 5557   6.716   1.889   6.120  0.1347  0.8579 -0.6809
   67SAPC  H15A 5558   6.820   1.906   6.096  0.9008 -1.1229  1.0628
   67SAPC  H15B 5559   6.658   1.887   6.029 -0.9197  0.4551 -0.0063
   67SAPC  H15C 5560   6.694   1.981   6.173  1.4535 -0.7021  2.6676
   67SAPC   C11 5561   6.746   1.919   6.430 -0.2138 -0.2702 -0.7408
   67SAPC  H11A 5562   6.818   1.923   6.515  0.5016  0.6793 -1.3867
   67SAPC  H11B 5563   6.643   1.900   6.468  0.8413 -1.4829  1.6424
   67SAPC     P 5564   6.794   2.179   6.409 -0.3316 -0.0678  0.2795
   67SAPC   O13 5565   6.937   2.175   6.447 -0.2474  0.1477  0.1117
   67SAPC   O14 5566   6.754   2.280   6.306 -0.3203  0.1369  0.0624
   67SAPC   O12 5567   6.757   2.033   6.349  0.3303  0.6159  0.1376
   67SAPC   O11 5568   6.713   2.203   6.539 -0.0941  0.6293 -0.2182
   67SAPC    C1 5569   6.583   2.260   6.553  0.4099  0.1284  0.0886
   67SAPC    HA 5570   6.508   2.204   6.492  0.5595  0.6430 -0.5740
   67SAPC    HB 5571   6.550   2.239   6.657 -1.7324 -0.2907 -0.6410
   67SAPC    C2 5572   6.579   2.413   6.537 -1.1931 -0.2981 -0.4850
   67SAPC    HS 5573   6.623   2.445   6.439 -1.1257  2.6805  0.4522
   67SAPC   O21 5574   6.649   2.482   6.651  0.3189  0.0627 -0.3366
   67SAPC   C21 5575   6.680   2.608   6.642 -0.1591  0.1540  0.2221
   67SAPC   O22 5576   6.648   2.680   6.546 -0.7244  0.0335 -0.2295
   67SAPC   C22 5577   6.740   2.660   6.770 -0.8319 -0.8415  0.4312
   67SAPC   H2R 5578   6.699   2.600   6.854 -1.0265 -0.4576  0.6121
   67SAPC   H2S 5579   6.851   2.665   6.763 -0.9914 -0.0657 -1.6189
   67SAPC    C3 5580   6.429   2.460   6.528 -0.1521 -0.6674  0.6323
   67SAPC    HX 5581   6.400   2.443   6.422  0.6920 -1.7642  0.5723
   67SAPC    HY 5582   6.425   2.571   6.539 -0.1810 -0.5861 -0.2210
   67SAPC   O31 5583   6.349   2.386   6.614 -0.1550 -0.1078  0.5512
   67SAPC   C31 5584   6.314   2.436   6.731  0.8628 -0.6498 -0.4761
   67SAPC   O32 5585   6.357   2.540   6.772 -0.2085 -0.3148 -0.8502
   67SAPC   C32 5586   6.196   2.357   6.793 -0.4683 -0.3035  0.2097
   67SAPC   H2X 5587   6.198   2.251   6.759 -0.4387 -0.6790  1.3858
   67SAPC   H2Y 5588   6.104   2.394   6.743  0.4769 -0.8547 -1.9937
   67SAPC   C23 5589   6.692   2.809   6.797 -0.3163  0.3104  0.3114
   67SAPC   H3R 5590   6.585   2.815   6.768  0.0063  1.1418 -0.7388
   67SAPC   H3S 5591   6.755   2.870   6.728  2.0692 -1.7723  0.5691
   67SAPC   C24 5592   6.722   2.852   6.948  0.2001  0.6517  0.4527
   67SAPC   H4R 5593   6.645   2.799   7.009  0.2895  0.1925  0.1677
   67SAPC   H4S 5594   6.707   2.962   6.951  1.8840  0.8977 -0.0987
   67SAPC   C25 5595   6.866   2.816   6.997 -0.1076 -0.0690 -0.4472
   67SAPC   H5R 5596   6.949   2.799   6.927  0.3582 -1.7001  0.4694
   67SAPC   C26 5597   6.914   2.807   7.125  0.1126 -0.6284  0.0067
   67SAPC   H6R 5598   7.012   2.762   7.145 -0.9734 -3.4543 -0.6873
   67SAPC   C27 5599   6.819   2.827   7.245  0.5787 -0.1469 -0.2393
   67SAPC   H7R 5600   6.726   2.776   7.214  0.9214 -1.2455  0.4963
   67SAPC   H7S 5601   6.790   2.934   7.256 -0.0341 -0.4406  1.1134
   67SAPC   C28 5602   6.870   2.770   7.376 -0.2475  0.1608  0.0513
   67SAPC   H8R 5603   6.866   2.661   7.388  1.1267  0.0739 -0.1805
   67SAPC   C29 5604   6.924   2.844   7.469 -0.6112  0.3037 -0.3376
   67SAPC   H9R 5605   6.959   2.785   7.555  1.3945 -1.8708 -2.5920
   67SAPC  C210 5606   6.945   2.989   7.484  0.1500 -1.0414 -0.4309
   67SAPC  H10R 5607   6.880   3.037   7.560  1.4421 -0.1268  0.1228
   67SAPC  H10S 5608   6.907   3.037   7.391 -1.2204 -0.9069  0.1914
   67SAPC  C211 5609   7.084   3.035   7.507 -0.0271 -0.6844 -0.7298
   67SAPC  H11R 5610   7.128   3.083   7.418  1.0196 -2.0244 -0.9663
   67SAPC  C212 5611   7.162   3.027   7.618  0.1163  0.3411 -0.1161
   67SAPC  H12R 5612   7.263   3.070   7.624  0.8807 -1.4590  0.0813
   67SAPC  C213 5613   7.120   2.977   7.754 -0.1452 -0.0688  0.0773
   67SAPC  H13R 5614   7.014   3.004   7.773 -0.5995 -2.3642  0.8593
   67SAPC  H13S 5615   7.182   3.029   7.830 -1.0120 -0.1096  0.8211
   67SAPC  C214 5616   7.126   2.830   7.774 -0.5210 -0.5107  0.0835
   67SAPC  H14R 5617   7.141   2.780   7.677 -0.2635  0.0839 -0.1812
   67SAPC  C215 5618   7.100   2.769   7.890  0.7339  0.2131  0.0406
   67SAPC  H15R 5619   7.105   2.659   7.890  0.8145  0.2159 -0.2032
   67SAPC  C216 5620   7.070   2.837   8.025 -0.0432 -0.5918  0.7448
   67SAPC  H16R 5621   7.053   2.945   8.004 -0.4313 -0.9306 -0.7737
   67SAPC  H16S 5622   7.158   2.819   8.089  0.1318 -0.2471  0.6001
   67SAPC  C217 5623   6.942   2.785   8.092  0.1498  0.1463 -1.1718
   67SAPC  H17R 5624   6.959   2.679   8.120 -0.8285  0.3249  0.1308
   67SAPC  H17S 5625   6.862   2.785   8.015 -1.2384 -0.6433  0.2478
   67SAPC  C218 5626   6.912   2.855   8.233  0.4788  0.3583  0.2704
   67SAPC  H18R 5627   6.859   2.949   8.206 -1.1519 -0.0592  1.8855
   67SAPC  H18S 5628   7.006   2.876   8.288  0.1188  0.7653  0.7391
   67SAPC  C219 5629   6.812   2.780   8.328  0.6142  0.3138  0.7571
   67SAPC  H19R 5630   6.773   2.861   8.393  1.6486  3.1358 -2.0503
   67SAPC  H19S 5631   6.872   2.702   8.379 -0.7627  0.1294  2.1420
   67SAPC  C220 5632   6.700   2.707   8.253  0.2346 -0.1883 -0.8724
   67SAPC  H20R 5633   6.643   2.781   8.192  1.0563  0.3232 -1.0302
   67SAPC  H20S 5634   6.623   2.669   8.323 -0.9327  0.6637 -1.6591
   67SAPC  H20T 5635   6.729   2.631   8.177  2.4241 -1.6607  1.3940
   67SAPC   C33 5636   6.190   2.357   6.945  0.4638  0.0507  0.0820
   67SAPC   H3X 5637   6.147   2.455   6.976 -2.0822 -1.4124  1.3738
   67SAPC   H3Y 5638   6.291   2.339   6.986  0.3870  1.4403  0.9224
   67SAPC   C34 5639   6.097   2.248   6.993 -0.1232  1.1809 -0.3192
   67SAPC   H4X 5640   6.111   2.154   6.935 -0.4015  1.1984 -0.4146
   67SAPC   H4Y 5641   5.991   2.275   6.974 -0.8771 -2.3687 -1.5214
   67SAPC   C35 5642   6.115   2.213   7.145 -0.1260  0.4399 -0.2315
   67SAPC   H5X 5643   6.220   2.179   7.157 -0.2071 -0.1321 -1.0819
   67SAPC   H5Y 5644   6.046   2.125   7.149 -0.8994  0.9828 -1.2993
   67SAPC   C36 5645   6.071   2.319   7.251  0.2977 -0.3253 -0.3964
   67SAPC   H6X 5646   5.961   2.334   7.249  0.2529 -0.7424 -1.8805
   67SAPC   H6Y 5647   6.111   2.414   7.208 -1.7062  1.1356  0.8849
   67SAPC   C37 5648   6.130   2.292   7.392  0.1471 -0.2029 -0.1996
   67SAPC   H7X 5649   6.232   2.333   7.382  0.2863 -0.6135 -0.5095
   67SAPC   H7Y 5650   6.158   2.184   7.396 -0.1013 -0.3031 -1.0763
   67SAPC   C38 5651   6.060   2.346   7.520 -0.2259 -0.5145 -0.1237
   67SAPC   H8X 5652   5.952   2.337   7.497 -0.2008  2.0492 -1.4022
   67SAPC   H8Y 5653   6.062   2.456   7.536 -1.4166 -0.5030  0.0198
   67SAPC   C39 5654   6.095   2.279   7.646  0.2037 -0.0747 -0.3524
   67SAPC   H9X 5655   6.093   2.168   7.631 -1.8590 -0.0933 -0.0387
   67SAPC   H9Y 5656   6.028   2.307   7.730  2.1513 -1.3646  1.6908
   67SAPC  C310 5657   6.239   2.322   7.695  0.5732  0.2157 -0.1878
   67SAPC  H10X 5658   6.236   2.432   7.684  0.5444  0.4766  2.1436
   67SAPC  H10Y 5659   6.306   2.277   7.619  2.2439 -0.1377  1.4532
   67SAPC  C311 5660   6.274   2.283   7.842 -0.2370 -0.2310  0.3968
   67SAPC  H11X 5661   6.195   2.316   7.913 -0.5094 -2.6927  1.3034
   67SAPC  H11Y 5662   6.371   2.328   7.872 -0.5300 -1.1936  2.9765
   67SAPC  C312 5663   6.280   2.130   7.856  0.1301 -0.6471  0.6108
   67SAPC  H12X 5664   6.350   2.094   7.778 -0.8018  0.9836 -0.9926
   67SAPC  H12Y 5665   6.187   2.075   7.833 -0.4049  1.1254 -1.5568
   67SAPC  C313 5666   6.343   2.079   7.988 -0.5675 -0.0824  0.1675
   67SAPC  H13X 5667   6.433   2.137   8.017  0.0889 -0.7441 -0.4835
   67SAPC  H13Y 5668   6.372   1.973   7.970  0.9946  0.0584  1.7604
   67SAPC  C314 5669   6.231   2.063   8.096  0.0161 -0.3745 -0.1990
   67SAPC  H14X 5670   6.144   2.008   8.053  0.2903  1.2163 -2.9555
   67SAPC  H14Y 5671   6.191   2.163   8.123  1.2527 -0.3155  1.4387
   67SAPC  C315 5672   6.281   1.990   8.229  0.5641 -0.2079 -0.3349
   67SAPC  H15X 5673   6.204   1.997   8.308  1.3839 -0.7670  0.5354
   67SAPC  H15Y 5674   6.368   2.048   8.267  1.1174  0.8322 -3.0529
   67SAPC  C316 5675   6.335   1.847   8.202 -0.0997  0.2366  0.9787
   67SAPC  H16X 5676   6.428   1.856   8.142 -0.8486 -1.0660 -0.4266
   67SAPC  H16Y 5677   6.263   1.784   8.145  1.0882  0.2816 -0.5936
   67SAPC  C317 5678   6.373   1.764   8.324 -0.4588 -0.3314  0.1965
   67SAPC  H17X 5679   6.468   1.797   8.372 -0.2189 -1.0540  0.2240
   67SAPC  H17Y 5680   6.386   1.661   8.285  0.5384  0.4566 -1.6254
   67SAPC  C318 5681   6.264   1.754   8.433 -0.3365 -0.2637  0.0238
   67SAPC  H18X 5682   6.228   1.844   8.486 -1.1986 -2.1269  2.6930
   67SAPC  H18Y 5683   6.299   1.680   8.508 -1.3290 -0.1796  0.5682
   67SAPC  H18Z 5684   6.171   1.718   8.385 -0.7968  0.1195  0.6370
   68SAPC     N 5685   4.103   1.639   5.800  0.3132  0.1235  0.3514
   68SAPC   C12 5686   4.231   1.584   5.856  0.1074 -0.1654 -0.2044
   68SAPC  H12A 5687   4.318   1.646   5.842 -0.2440  0.2730 -0.4335
   68SAPC  H12B 5688   4.258   1.491   5.808  0.2631  0.4020 -1.2216
   68SAPC   C13 5689   4.128   1.668   5.651  0.2679  0.2879 -0.4499
   68SAPC  H13A 5690   4.148   1.580   5.592 -0.3913  1.1168 -1.9294
   68SAPC  H13B 5691   4.038   1.712   5.611 -2.3169 -2.6940  1.7582
   68SAPC  H13C 5692   4.200   1.746   5.631 -0.1446  0.3749 -1.6279
   68SAPC   C14 5693   3.994   1.534   5.808 -0.4917 -1.7411 -0.1565
   68SAPC  H14A 5694   3.961   1.511   5.908  1.6568 -1.7282  0.5964
   68SAPC  H14B 5695   3.914   1.571   5.746  0.5507 -0.9505 -1.0729
   68SAPC  H14C 5696   4.034   1.445   5.762 -3.6944 -2.0467 -2.4945
   68SAPC   C15 5697   4.072   1.768   5.869  0.2347 -0.4673  0.4593
   68SAPC  H15A 5698   4.066   1.766   5.977 -0.4130  0.7828  0.4505
   68SAPC  H15B 5699   4.162   1.826   5.858  0.2575 -0.6218 -0.1454
   68SAPC  H15C 5700   3.986   1.818   5.828  2.5301  0.6256 -3.2401
   68SAPC   C11 5701   4.232   1.544   6.008  0.3615  0.2410  0.3880
   68SAPC  H11A 5702   4.315   1.470   6.015 -0.0972 -0.3826 -0.6739
   68SAPC  H11B 5703   4.139   1.487   6.033  2.1266 -2.8238  0.1665
   68SAPC     P 5704   4.389   1.732   6.089  0.2191 -0.0395 -0.1051
   68SAPC   O13 5705   4.485   1.621   6.061 -0.2287  0.4763 -0.1003
   68SAPC   O14 5706   4.395   1.846   5.996 -0.3221 -0.4850  0.2078
   68SAPC   O12 5707   4.246   1.665   6.087  0.2108  0.1869  0.3369
   68SAPC   O11 5708   4.403   1.785   6.234 -0.2420 -0.3011  0.2923
   68SAPC    C1 5709   4.387   1.703   6.342 -0.6314 -0.2860  0.7611
   68SAPC    HA 5710   4.285   1.715   6.385 -1.1770 -0.7598 -0.3600
   68SAPC    HB 5711   4.391   1.595   6.315  1.7126 -0.3111  1.1069
   68SAPC    C2 5712   4.500   1.724   6.455 -0.0373 -0.2400 -0.2287
   68SAPC    HS 5713   4.598   1.697   6.411  1.1176  2.4202  0.6018
   68SAPC   O21 5714   4.469   1.636   6.568 -0.1303 -0.2961 -0.0176
   68SAPC   C21 5715   4.565   1.561   6.608  0.2647  0.4187  0.1438
   68SAPC   O22 5716   4.664   1.530   6.546 -0.6200  0.2865 -0.2131
   68SAPC   C22 5717   4.532   1.487   6.737  0.2032 -0.9753 -0.2153
   68SAPC   H2R 5718   4.456   1.410   6.709  0.7802 -0.5639 -2.9693
   68SAPC   H2S 5719   4.630   1.442   6.761  1.7406  2.1193 -0.4263
   68SAPC    C3 5720   4.519   1.872   6.499 -0.4351  0.6673 -0.4605
   68SAPC    HX 5721   4.415   1.904   6.517 -0.6112 -0.2012  0.0753
   68SAPC    HY 5722   4.555   1.924   6.407  0.8219  2.1475  0.8332
   68SAPC   O31 5723   4.613   1.894   6.605  0.6257 -0.1627 -0.1069
   68SAPC   C31 5724   4.608   2.025   6.634  0.8973  0.3294 -0.1236
   68SAPC   O32 5725   4.519   2.095   6.589 -0.3067  0.1919 -0.0829
   68SAPC   C32 5726   4.719   2.060   6.734 -0.0512  0.4404  0.1058
   68SAPC   H2X 5727   4.813   2.050   6.675  1.1593 -2.6063  2.4452
   68SAPC   H2Y 5728   4.714   1.980   6.811 -0.4576 -2.0212 -2.3921
   68SAPC   C23 5729   4.478   1.574   6.856  0.1512  0.0896  0.0903
   68SAPC   H3R 5730   4.434   1.503   6.930  0.1809 -1.0569 -0.9758
   68SAPC   H3S 5731   4.400   1.648   6.827 -1.1755 -0.4033  2.2320
   68SAPC   C24 5732   4.603   1.649   6.922  0.4469 -0.8921  0.0613
   68SAPC   H4R 5733   4.639   1.721   6.846 -3.1426  0.9038 -0.0562
   68SAPC   H4S 5734   4.684   1.574   6.934  1.3874 -0.1290 -1.3344
   68SAPC   C25 5735   4.576   1.724   7.055 -0.3383 -0.3973  0.8093
   68SAPC   H5R 5736   4.545   1.829   7.046 -1.4770 -0.9310 -1.8437
   68SAPC   C26 5737   4.593   1.675   7.182  0.0035  0.0413 -0.4347
   68SAPC   H6R 5738   4.569   1.739   7.268 -1.1770 -1.1493  0.1539
   68SAPC   C27 5739   4.628   1.534   7.218 -0.0871 -0.4337 -0.1555
   68SAPC   H7R 5740   4.635   1.468   7.129  1.1752 -1.3047  0.5626
   68SAPC   H7S 5741   4.539   1.493   7.269 -0.3425  1.9431  1.4044
   68SAPC   C28 5742   4.752   1.506   7.298  0.0753  0.5036  0.5467
   68SAPC   H8R 5743   4.837   1.477   7.235  0.8429  0.8263  1.4203
   68SAPC   C29 5744   4.768   1.520   7.430 -0.0525  0.4405  0.6056
   68SAPC   H9R 5745   4.873   1.509   7.463 -0.3591 -0.5763  1.2626
   68SAPC  C210 5746   4.672   1.555   7.541  0.2273 -0.6343  0.6402
   68SAPC  H10R 5747   4.582   1.608   7.504  1.3797  0.7270 -0.2899
   68SAPC  H10S 5748   4.711   1.629   7.615 -4.8907  1.5982  1.3600
   68SAPC  C211 5749   4.618   1.429   7.604  0.0948 -0.0155 -0.5057
   68SAPC  H11R 5750   4.605   1.340   7.541  1.1031 -0.4202 -0.1522
   68SAPC  C212 5751   4.604   1.406   7.738 -0.0331  0.5568 -0.3018
   68SAPC  H12R 5752   4.590   1.300   7.766 -0.3113  0.5624 -0.4231
   68SAPC  C213 5753   4.636   1.510   7.842  0.1918  0.3471  0.3363
   68SAPC  H13R 5754   4.581   1.494   7.937  0.0585 -0.4139  0.1355
   68SAPC  H13S 5755   4.600   1.608   7.806 -0.6265  0.8822  2.5302
   68SAPC  C214 5756   4.794   1.515   7.870 -0.3387  0.2890 -0.7463
   68SAPC  H14R 5757   4.853   1.554   7.786  1.1429 -1.3021 -0.4594
   68SAPC  C215 5758   4.862   1.491   7.983 -0.1041 -0.3063  0.0234
   68SAPC  H15R 5759   4.970   1.512   7.985  0.0152 -0.9344  0.5993
   68SAPC  C216 5760   4.783   1.447   8.100 -0.3525  0.5295 -0.3071
   68SAPC  H16R 5761   4.680   1.485   8.114 -1.4432 -2.4214  0.1714
   68SAPC  H16S 5762   4.831   1.484   8.194  0.3841  0.8415 -0.8027
   68SAPC  C217 5763   4.786   1.289   8.110 -0.0086 -0.0508 -0.5157
   68SAPC  H17R 5764   4.889   1.248   8.103  0.4271  0.6563  1.4447
   68SAPC  H17S 5765   4.731   1.253   8.020  1.9047  0.9791 -2.1449
   68SAPC  C218 5766   4.703   1.244   8.233  0.8641 -0.0319 -0.9223
   68SAPC  H18R 5767   4.664   1.140   8.220 -1.1150  0.1903  2.5407
   68SAPC  H18S 5768   4.611   1.306   8.234  1.7026  1.2261  0.2395
   68SAPC  C219 5769   4.776   1.269   8.366  0.2018  0.0966  0.2183
   68SAPC  H19R 5770   4.702   1.252   8.447 -0.2762  2.4630  0.2963
   68SAPC  H19S 5771   4.791   1.379   8.369  2.2630 -0.1724  0.3626
   68SAPC  C220 5772   4.897   1.183   8.393 -0.4006  0.1059 -0.0476
   68SAPC  H20R 5773   4.865   1.077   8.405  0.8053 -0.0901  1.4864
   68SAPC  H20S 5774   4.957   1.220   8.479 -1.2048 -1.0686  1.0363
   68SAPC  H20T 5775   4.953   1.179   8.297  0.9715 -1.0536  0.7775
   68SAPC   C33 5776   4.712   2.197   6.792 -0.3819  0.3510 -0.2126
   68SAPC   H3X 5777   4.604   2.226   6.792 -0.3575  0.5422  1.5079
   68SAPC   H3Y 5778   4.758   2.274   6.727  3.4722 -0.4514  1.4160
   68SAPC   C34 5779   4.764   2.216   6.934  0.6127  0.0846  0.0631
   68SAPC   H4X 5780   4.865   2.169   6.934  0.1268 -0.9883  0.7574
   68SAPC   H4Y 5781   4.692   2.176   7.008  1.5555  3.6366  3.0836
   68SAPC   C35 5782   4.791   2.365   6.969 -0.2210 -0.5920 -0.1083
   68SAPC   H5X 5783   4.704   2.430   6.945 -0.6590 -0.9268  0.5460
   68SAPC   H5Y 5784   4.885   2.395   6.918 -0.2610 -2.4836 -1.3285
   68SAPC   C36 5785   4.814   2.397   7.117 -0.6417  0.2050  0.4764
   68SAPC   H6X 5786   4.921   2.385   7.144 -0.8046  0.6928  1.3423
   68SAPC   H6Y 5787   4.766   2.318   7.178  1.0858  0.3575  2.0730
   68SAPC   C37 5788   4.757   2.537   7.148  0.1197 -0.0747 -0.2408
   68SAPC   H7X 5789   4.646   2.530   7.139 -0.1498  0.8369  2.0750
   68SAPC   H7Y 5790   4.801   2.608   7.075  0.5675  0.2674  0.3609
   68SAPC   C38 5791   4.794   2.578   7.297  0.5352 -0.4048  0.2776
   68SAPC   H8X 5792   4.804   2.688   7.298  0.3141 -0.3861  0.4903
   68SAPC   H8Y 5793   4.891   2.538   7.332 -0.4856 -4.3914 -1.1687
   68SAPC   C39 5794   4.701   2.518   7.407 -0.6982  0.1600 -0.2505
   68SAPC   H9X 5795   4.685   2.411   7.385  4.3762 -0.9754  0.9278
   68SAPC   H9Y 5796   4.602   2.567   7.407 -0.9841 -0.4163 -0.4546
   68SAPC  C310 5797   4.765   2.524   7.548 -0.1501 -0.7227 -0.1561
   68SAPC  H10X 5798   4.763   2.630   7.580  2.8377 -0.8189  0.4939
   68SAPC  H10Y 5799   4.872   2.497   7.543  0.1267  0.6149 -1.5214
   68SAPC  C311 5800   4.705   2.432   7.653  0.0544 -0.1649  1.1650
   68SAPC  H11X 5801   4.744   2.329   7.642 -3.3088 -1.2664 -1.6017
   68SAPC  H11Y 5802   4.595   2.414   7.650 -0.2814  1.8701  0.4706
   68SAPC  C312 5803   4.736   2.487   7.790 -0.4067  0.4395 -0.1115
   68SAPC  H12X 5804   4.686   2.584   7.811  2.3715  1.9713 -0.2560
   68SAPC  H12Y 5805   4.843   2.504   7.814 -0.7026  0.5162  1.2294
   68SAPC  C313 5806   4.706   2.383   7.895  0.9431  0.2407 -0.5357
   68SAPC  H13X 5807   4.791   2.312   7.885 -0.2835 -1.3331 -0.0927
   68SAPC  H13Y 5808   4.615   2.330   7.860 -0.4650  1.9981  0.3967
   68SAPC  C314 5809   4.682   2.424   8.037  0.4772  0.0500 -0.0577
   68SAPC  H14X 5810   4.589   2.481   8.058  1.1022  1.0461  0.0498
   68SAPC  H14Y 5811   4.755   2.504   8.064  0.6821  0.2409 -1.1780
   68SAPC  C315 5812   4.697   2.311   8.134  0.3599 -0.0539 -0.0625
   68SAPC  H15X 5813   4.793   2.258   8.115 -0.0548 -0.7752 -0.1742
   68SAPC  H15Y 5814   4.619   2.232   8.135  0.4653 -0.2308 -2.4311
   68SAPC  C316 5815   4.703   2.355   8.284  0.0490 -0.0597  0.2666
   68SAPC  H16X 5816   4.608   2.409   8.306  1.2120  2.0755  0.1591
   68SAPC  H16Y 5817   4.789   2.422   8.302 -0.3433 -0.1537  2.6534
   68SAPC  C317 5818   4.715   2.240   8.388 -0.1943  0.5691  0.0588
   68SAPC  H17X 5819   4.824   2.217   8.384  0.1291  2.1677 -1.9771
   68SAPC  H17Y 5820   4.650   2.155   8.361 -0.2777 -0.1301  2.4097
   68SAPC  C318 5821   4.696   2.273   8.537 -0.2742  0.0215 -0.8072
   68SAPC  H18X 5822   4.774   2.341   8.579  0.5267 -2.2292  1.4913
   68SAPC  H18Y 5823   4.705   2.179   8.595 -0.9290  0.7642  0.5321
   68SAPC  H18Z 5824   4.604   2.328   8.565 -1.2850 -2.6631  1.3762
   69SLPC     N 5825   1.071   6.416  11.096 -0.4166  0.0030  0.0426
   69SLPC   C13 5826   1.018   6.404  11.234 -0.1585 -0.6887 -0.9400
   69SLPC  H13A 5827   0.985   6.495  11.282  0.0302 -0.1034 -1.9003
   69SLPC  H13B 5828   0.934   6.337  11.236 -1.0703  0.4578  0.1992
   69SLPC  H13C 5829   1.099   6.372  11.298 -0.4128  1.0521  0.3096
   69SLPC   C14 5830   1.188   6.509  11.108 -1.0304  0.1999  0.3531
   69SLPC  H14A 5831   1.229   6.521  11.009  2.6504 -1.1244  1.6547
   69SLPC  H14B 5832   1.156   6.603  11.150  1.2596  1.3487 -0.4555
   69SLPC  H14C 5833   1.267   6.471  11.170 -0.4461 -0.4240 -0.7520
   69SLPC   C15 5834   0.973   6.481  11.004  0.3367  0.4456 -0.3785
   69SLPC  H15A 5835   1.009   6.478  10.902 -2.0925  2.0026 -1.3206
   69SLPC  H15B 5836   0.877   6.433  10.992  0.6701  0.3332 -2.9459
   69SLPC  H15C 5837   0.957   6.584  11.032  0.8624 -0.0535  1.8331
   69SLPC   C12 5838   1.126   6.289  11.033 -0.3256 -0.2672 -0.4466
   69SLPC  H12A 5839   1.056   6.210  11.049 -0.4875  0.0214  0.2862
   69SLPC  H12B 5840   1.215   6.261  11.087 -1.8698  0.3086  2.5068
   69SLPC   C11 5841   1.158   6.286  10.884  0.2043  0.2155  0.5845
   69SLPC  H11A 5842   1.058   6.299  10.836 -0.6634 -0.3053  2.2325
   69SLPC  H11B 5843   1.187   6.185  10.847  0.5875  1.0533 -1.4552
   69SLPC     P 5844   1.407   6.330  10.869 -0.1047 -0.1708  0.1595
   69SLPC   O13 5845   1.496   6.446  10.833  0.0060  0.4382  0.2525
   69SLPC   O14 5846   1.423   6.267  11.006 -0.0826  0.5094 -0.0495
   69SLPC   O12 5847   1.258   6.371  10.839 -0.5375  0.4782 -0.0496
   69SLPC   O11 5848   1.443   6.217  10.763  0.3194  0.0148  0.1557
   69SLPC    C1 5849   1.368   6.178  10.646 -0.2918  0.2496 -0.2184
   69SLPC    HA 5850   1.326   6.075  10.648  0.9286 -0.2392  0.2305
   69SLPC    HB 5851   1.277   6.242  10.638 -1.0704 -0.9808 -1.4857
   69SLPC    C2 5852   1.445   6.205  10.509  1.0521 -0.2101 -0.7052
   69SLPC    HS 5853   1.530   6.134  10.511 -0.3762 -1.9472 -0.1404
   69SLPC   O21 5854   1.481   6.349  10.503 -0.0817  0.0288  0.9159
   69SLPC   C21 5855   1.607   6.365  10.462  0.3002  0.3427  0.5341
   69SLPC   O22 5856   1.690   6.279  10.441 -0.2526 -0.3028 -0.1969
   69SLPC   C22 5857   1.620   6.520  10.444  0.0697  0.3159 -0.3455
   69SLPC   H2R 5858   1.536   6.566  10.389  0.2666  0.3127 -0.6504
   69SLPC   H2S 5859   1.616   6.574  10.541  0.0074 -1.1435  0.4861
   69SLPC    C3 5860   1.366   6.166  10.385  0.1728 -0.1679  0.6725
   69SLPC    HX 5861   1.271   6.223  10.376  2.5604  3.9188  0.0242
   69SLPC    HY 5862   1.327   6.062  10.390 -0.9526  0.2423  0.4795
   69SLPC   O31 5863   1.436   6.179  10.262 -0.0379 -0.1853 -0.2597
   69SLPC   C31 5864   1.506   6.077  10.212 -0.2523 -0.1201  0.4493
   69SLPC   O32 5865   1.529   5.973  10.257 -0.4622  0.5248 -0.2208
   69SLPC   C32 5866   1.561   6.110  10.068  0.3095  0.1782  0.5318
   69SLPC   H2X 5867   1.671   6.115  10.077  0.3259 -0.7773  0.9119
   69SLPC   H2Y 5868   1.524   6.210  10.037 -0.7921 -0.4306 -0.1638
   69SLPC   C23 5869   1.749   6.566  10.376  0.5720 -0.2439  0.2736
   69SLPC   H3R 5870   1.838   6.534  10.434  0.6558  0.9005  0.8049
   69SLPC   H3S 5871   1.744   6.677  10.370 -1.4141 -0.4144 -2.2663
   69SLPC   C24 5872   1.777   6.520  10.233 -0.3180 -0.3461  0.2266
   69SLPC   H4R 5873   1.770   6.411  10.213  1.3016 -0.0076 -2.5325
   69SLPC   H4S 5874   1.881   6.544  10.200 -0.7529  0.8602 -0.3160
   69SLPC   C25 5875   1.669   6.577  10.131  0.1495  0.6150 -0.1275
   69SLPC   H5R 5876   1.671   6.688  10.133 -0.3070  0.6317 -0.4654
   69SLPC   H5S 5877   1.571   6.536  10.162  0.8274 -0.0904  1.1238
   69SLPC   C26 5878   1.694   6.526   9.985  0.9635  0.4503 -0.3690
   69SLPC   H6R 5879   1.737   6.424   9.995  1.1445  0.3907 -1.6810
   69SLPC   H6S 5880   1.776   6.591   9.948  1.1051  1.1501  1.1363
   69SLPC   C27 5881   1.567   6.523   9.905 -0.3327  0.6767 -0.3256
   69SLPC   H7R 5882   1.527   6.624   9.886  0.0434  0.7688 -0.6467
   69SLPC   H7S 5883   1.486   6.480   9.967 -0.5592 -2.1470 -2.4417
   69SLPC   C28 5884   1.574   6.433   9.779 -0.0973 -0.4277 -0.0681
   69SLPC   H8R 5885   1.469   6.412   9.749 -0.2119  0.0505 -0.0110
   69SLPC   H8S 5886   1.625   6.335   9.788 -1.6142 -1.2594 -0.2387
   69SLPC   C29 5887   1.639   6.519   9.671 -0.4574  0.1836 -0.5185
   69SLPC   H9R 5888   1.749   6.514   9.673 -0.4315  1.0120  0.3927
   69SLPC  C210 5889   1.582   6.574   9.569 -0.4004 -0.1029  0.5022
   69SLPC  H10R 5890   1.645   6.635   9.502  0.4557 -1.3288  0.1642
   69SLPC  C211 5891   1.434   6.570   9.530 -1.6161 -0.3607 -0.0859
   69SLPC  H11R 5892   1.402   6.649   9.458 -0.9046 -0.5378 -0.5911
   69SLPC  H11S 5893   1.364   6.581   9.616 -2.0011  0.5053 -0.4987
   69SLPC  C212 5894   1.405   6.435   9.464 -0.1259  0.2800 -0.1080
   69SLPC  H12R 5895   1.391   6.355   9.538 -0.4937  0.3294 -0.1221
   69SLPC  C213 5896   1.390   6.408   9.333  0.4214 -0.2858 -0.8917
   69SLPC  H13R 5897   1.388   6.300   9.310  2.5760 -1.0978  2.5114
   69SLPC  C214 5898   1.392   6.506   9.221 -0.4513 -0.1836  0.4792
   69SLPC  H14R 5899   1.381   6.610   9.258 -1.5101 -0.7579  1.8048
   69SLPC  H14S 5900   1.318   6.479   9.143  1.6691  1.1980 -2.0825
   69SLPC  C215 5901   1.523   6.503   9.146 -0.0530  0.2107 -0.0485
   69SLPC  H15R 5902   1.517   6.545   9.044 -1.1815 -0.8048 -0.4190
   69SLPC  H15S 5903   1.546   6.397   9.122 -0.4799  0.3539 -1.0930
   69SLPC  C216 5904   1.654   6.559   9.212 -0.3232  0.2420  0.2150
   69SLPC  H16R 5905   1.675   6.503   9.306  1.2189  1.0300  0.3497
   69SLPC  H16S 5906   1.646   6.662   9.253  0.0178 -0.0919  1.1266
   69SLPC  C217 5907   1.781   6.553   9.128 -0.5477 -0.0711 -0.1603
   69SLPC  H17R 5908   1.780   6.464   9.061  1.1917  0.5926 -1.0814
   69SLPC  H17S 5909   1.870   6.555   9.193  0.8430 -0.7864 -1.9859
   69SLPC  C218 5910   1.797   6.672   9.030 -1.0962 -0.8563  0.2963
   69SLPC  H18R 5911   1.823   6.767   9.080  0.2889 -1.0155 -0.1052
   69SLPC  H18S 5912   1.697   6.692   8.987 -1.0713  2.9416  1.7971
   69SLPC  H18T 5913   1.860   6.655   8.940 -1.5892  0.1247 -0.2366
   69SLPC   C33 5914   1.517   6.010   9.959  0.1310  0.1587 -0.8707
   69SLPC   H3X 5915   1.406   6.013   9.958  0.0931 -0.6649  0.2018
   69SLPC   H3Y 5916   1.548   5.908   9.992 -0.0555  0.6284  0.7541
   69SLPC   C34 5917   1.557   6.049   9.817  0.6297 -0.2778 -0.4550
   69SLPC   H4X 5918   1.668   6.054   9.809  0.8487 -3.6894 -0.4905
   69SLPC   H4Y 5919   1.503   6.141   9.787 -0.8323 -0.7386  0.7283
   69SLPC   C35 5920   1.510   5.953   9.708 -0.6287  0.0326 -0.4807
   69SLPC   H5X 5921   1.402   5.931   9.722 -0.3973 -0.3047  0.8426
   69SLPC   H5Y 5922   1.558   5.853   9.717 -0.2807  0.1698 -0.7832
   69SLPC   C36 5923   1.545   6.009   9.569  0.2093 -0.2856  0.1970
   69SLPC   H6X 5924   1.651   6.043   9.572 -0.1435  0.8166  0.5127
   69SLPC   H6Y 5925   1.485   6.096   9.537 -0.7190 -0.1332  2.2500
   69SLPC   C37 5926   1.531   5.902   9.459 -0.1352  0.6307  0.1192
   69SLPC   H7X 5927   1.427   5.865   9.466 -0.0339  0.2765 -0.2675
   69SLPC   H7Y 5928   1.617   5.836   9.482 -0.1570 -0.2313 -2.1603
   69SLPC   C38 5929   1.562   5.957   9.318 -0.4146  0.0855 -0.5211
   69SLPC   H8X 5930   1.662   6.004   9.313 -1.4029  2.0613 -2.8955
   69SLPC   H8Y 5931   1.496   6.038   9.280  0.4744  1.1728  0.2331
   69SLPC   C39 5932   1.572   5.852   9.205 -0.8055  0.3770 -0.3330
   69SLPC   H9X 5933   1.485   5.783   9.203 -0.4096 -0.0949 -2.8074
   69SLPC   H9Y 5934   1.659   5.784   9.218 -0.0810  1.2795 -0.4015
   69SLPC  C310 5935   1.596   5.909   9.064  0.7801  0.4141  0.7428
   69SLPC  H10X 5936   1.696   5.953   9.048  1.0008  0.3437  1.9185
   69SLPC  H10Y 5937   1.525   5.990   9.035 -0.2848 -0.7257  0.0744
   69SLPC  C311 5938   1.573   5.809   8.950 -0.1083 -0.2626  0.5097
   69SLPC  H11X 5939   1.466   5.782   8.963 -0.0326 -1.4297 -1.1084
   69SLPC  H11Y 5940   1.639   5.720   8.951  0.9495  0.4412 -1.9348
   69SLPC  C312 5941   1.576   5.881   8.813  0.3712  0.4980  0.4325
   69SLPC  H12X 5942   1.681   5.865   8.780  0.4159  0.5658  0.5438
   69SLPC  H12Y 5943   1.558   5.990   8.820  1.2372  0.7460 -0.9239
   69SLPC  C313 5944   1.488   5.827   8.702  0.0422  0.3791 -0.6216
   69SLPC  H13X 5945   1.487   5.716   8.700  0.4355  0.3034  1.9259
   69SLPC  H13Y 5946   1.524   5.859   8.602  1.5736 -1.7466 -0.7759
   69SLPC  C314 5947   1.339   5.867   8.721  0.2271  0.4220 -0.2510
   69SLPC  H14X 5948   1.334   5.964   8.773 -1.3480  1.2409 -1.8568
   69SLPC  H14Y 5949   1.290   5.803   8.798 -2.5725  1.1315 -1.3644
   69SLPC  C315 5950   1.259   5.853   8.595  0.6519 -0.1728  0.5507
   69SLPC  H15X 5951   1.160   5.813   8.628  1.7293 -0.8291  3.1355
   69SLPC  H15Y 5952   1.308   5.764   8.548 -0.5084 -0.9319  0.7535
   69SLPC  C316 5953   1.242   5.977   8.503  0.2148 -0.5292  0.0032
   69SLPC  H16X 5954   1.344   6.005   8.467  0.0370  1.1579  0.7559
   69SLPC  H16Y 5955   1.201   6.064   8.558 -0.7494 -0.7998 -0.2863
   69SLPC  C317 5956   1.139   5.943   8.398  0.3846  0.1738  0.2038
   69SLPC  H17X 5957   1.057   5.886   8.446 -0.4992  0.8210 -0.5306
   69SLPC  H17Y 5958   1.180   5.875   8.320  1.2117  0.3404  0.4798
   69SLPC  C318 5959   1.084   6.064   8.320 -0.3150  0.2544  0.1002
   69SLPC  H18X 5960   1.157   6.081   8.238 -1.0863  0.6577 -0.5030
   69SLPC  H18Y 5961   1.065   6.157   8.378  0.3114  0.5945 -0.2351
   69SLPC  H18Z 5962   0.990   6.035   8.269 -0.3497  0.7331 -0.1069
   70SLPC     N 5963   2.089   4.103  11.313  0.1901  0.2788 -0.5799
   70SLPC   C13 5964   1.994   4.103  11.429 -0.2148  0.1801 -0.0018
   70SLPC  H13A 5965   2.021   4.165  11.514 -1.4089  1.2807 -0.4128
   70SLPC  H13B 5966   1.891   4.125  11.407 -0.0821 -0.4285 -1.2306
   70SLPC  H13C 5967   1.992   3.998  11.453 -0.0106 -0.1015 -1.2321
   70SLPC   C14 5968   2.213   4.023  11.346 -0.4638 -0.6294  0.2655
   70SLPC  H14A 5969   2.288   4.043  11.270 -0.3571  4.4737  1.5389
   70SLPC  H14B 5970   2.257   4.062  11.437  0.0344  2.0713 -1.0882
   70SLPC  H14C 5971   2.192   3.917  11.356 -2.9630 -0.1232  0.6763
   70SLPC   C15 5972   2.131   4.239  11.273  0.4709 -0.9260 -0.3223
   70SLPC  H15A 5973   2.178   4.294  11.353  0.5807 -1.3830 -0.0730
   70SLPC  H15B 5974   2.194   4.249  11.186  0.6628  1.2135  0.0290
   70SLPC  H15C 5975   2.046   4.303  11.251 -1.5208 -3.4178 -0.1597
   70SLPC   C12 5976   2.014   4.033  11.194 -0.0344  0.4899  0.7018
   70SLPC  H12A 5977   1.918   4.083  11.196 -0.2910  0.0644 -0.4927
   70SLPC  H12B 5978   1.991   3.930  11.220  2.2434  0.3074  2.1745
   70SLPC   C11 5979   2.081   4.029  11.056 -0.1123 -0.3302 -0.2606
   70SLPC  H11A 5980   2.106   4.135  11.031  0.7366 -0.2284  0.9763
   70SLPC  H11B 5981   2.015   3.994  10.974 -0.2159  0.3095 -0.4566
   70SLPC     P 5982   2.195   3.792  11.056 -0.1448  0.4391  0.2431
   70SLPC   O13 5983   2.318   3.741  11.127  0.3143 -1.0462 -0.1178
   70SLPC   O14 5984   2.059   3.757  11.107 -0.1896 -0.1151  0.2293
   70SLPC   O12 5985   2.204   3.954  11.054  0.2020  1.1903  1.0423
   70SLPC   O11 5986   2.211   3.741  10.909  0.0192 -0.6900 -0.1311
   70SLPC    C1 5987   2.126   3.782  10.798 -0.1340  0.5590 -0.0050
   70SLPC    HA 5988   2.020   3.765  10.824  0.3976  1.6506  3.0820
   70SLPC    HB 5989   2.125   3.891  10.778  0.9358  0.4395 -0.7616
   70SLPC    C2 5990   2.155   3.689  10.672  0.6569 -0.0092  0.2490
   70SLPC    HS 5991   2.168   3.588  10.717  3.1086  0.0641 -0.2017
   70SLPC   O21 5992   2.275   3.728  10.615 -0.0213 -0.3069  0.1235
   70SLPC   C21 5993   2.336   3.639  10.540 -0.8792 -0.3532 -0.4049
   70SLPC   O22 5994   2.300   3.519  10.527  0.8667 -0.0590  0.5920
   70SLPC   C22 5995   2.453   3.711  10.466  0.5574  0.5646 -0.9804
   70SLPC   H2R 5996   2.425   3.816  10.442 -0.2771  1.8864  4.8339
   70SLPC   H2S 5997   2.541   3.711  10.534  0.2274  1.0337 -0.5531
   70SLPC    C3 5998   2.054   3.673  10.561  0.3288 -0.4231  0.4472
   70SLPC    HX 5999   1.956   3.658  10.611  0.3564 -0.8700  0.3692
   70SLPC    HY 6000   2.083   3.585  10.500 -0.7126  0.4470 -1.3716
   70SLPC   O31 6001   2.055   3.789  10.471  0.1929 -0.0809  0.3066
   70SLPC   C31 6002   1.965   3.878  10.490 -0.0734  0.1047  0.1662
   70SLPC   O32 6003   1.900   3.885  10.592  0.0655 -0.2610 -0.0945
   70SLPC   C32 6004   1.954   3.966  10.368  0.3436 -0.2037 -0.0956
   70SLPC   H2X 6005   2.052   4.002  10.329 -0.4603 -1.5476 -3.5730
   70SLPC   H2Y 6006   1.900   4.058  10.399  1.6720  1.1839 -1.8372
   70SLPC   C23 6007   2.498   3.639  10.339  0.1253 -0.5378  0.6025
   70SLPC   H3R 6008   2.526   3.534  10.360  2.5141  0.0603  0.6158
   70SLPC   H3S 6009   2.591   3.689  10.304 -0.4167  1.5956  2.0802
   70SLPC   C24 6010   2.394   3.656  10.226  0.5490  0.1265 -0.4129
   70SLPC   H4R 6011   2.403   3.764  10.203  1.2985  0.2996  0.6591
   70SLPC   H4S 6012   2.285   3.646  10.247  0.3902  3.3186  0.5405
   70SLPC   C25 6013   2.417   3.562  10.110 -0.1958 -0.8038 -0.7351
   70SLPC   H5R 6014   2.432   3.456  10.140 -0.8061 -0.9236 -0.8663
   70SLPC   H5S 6015   2.510   3.601  10.063  0.4800  0.3202  1.4806
   70SLPC   C26 6016   2.323   3.591   9.999  0.5920  0.5594  0.7061
   70SLPC   H6R 6017   2.314   3.702   9.991 -1.6254  0.2819 -1.0193
   70SLPC   H6S 6018   2.222   3.551  10.026 -0.0262  1.1402 -0.6967
   70SLPC   C27 6019   2.373   3.529   9.869 -0.3311  0.6095  0.5476
   70SLPC   H7R 6020   2.376   3.420   9.888 -0.4662  0.8837  2.2075
   70SLPC   H7S 6021   2.473   3.574   9.855  0.3818 -1.0768  0.1224
   70SLPC   C28 6022   2.266   3.549   9.763  0.5865  1.0376 -0.2814
   70SLPC   H8R 6023   2.258   3.656   9.734 -0.5498  0.5587 -1.8004
   70SLPC   H8S 6024   2.170   3.522   9.813  1.6064  0.2396  1.3057
   70SLPC   C29 6025   2.282   3.460   9.650 -0.0902  0.6285  0.0913
   70SLPC   H9R 6026   2.335   3.366   9.670 -1.1886 -0.2467 -0.9858
   70SLPC  C210 6027   2.254   3.497   9.522  0.0307  0.7047  0.4335
   70SLPC  H10R 6028   2.278   3.434   9.434 -0.0010 -0.1647  1.0375
   70SLPC  C211 6029   2.187   3.629   9.479 -0.7203  0.0951 -0.2200
   70SLPC  H11R 6030   2.122   3.686   9.548 -2.6181  0.4706 -2.2279
   70SLPC  H11S 6031   2.129   3.589   9.393 -0.1786 -2.4105  0.5442
   70SLPC  C212 6032   2.287   3.728   9.429 -0.4861  0.3510 -0.0215
   70SLPC  H12R 6033   2.349   3.763   9.513 -0.1270 -0.6190  0.1253
   70SLPC  C213 6034   2.314   3.763   9.299 -0.2712 -0.5985  0.8374
   70SLPC  H13R 6035   2.392   3.834   9.268 -1.2825  0.6395  1.1239
   70SLPC  C214 6036   2.248   3.716   9.175  1.0775 -0.0516 -0.2894
   70SLPC  H14R 6037   2.205   3.804   9.121 -2.0536 -2.5609 -2.0342
   70SLPC  H14S 6038   2.161   3.655   9.205  0.5680  0.6465 -0.3401
   70SLPC  C215 6039   2.339   3.625   9.091 -0.3730  0.7456  0.4342
   70SLPC  H15R 6040   2.355   3.530   9.146  0.0569  0.0653 -0.8499
   70SLPC  H15S 6041   2.425   3.686   9.055 -0.7965  1.7516  1.0988
   70SLPC  C216 6042   2.258   3.575   8.967 -0.0475  0.7086  0.1396
   70SLPC  H16R 6043   2.214   3.650   8.898  0.2542 -1.4575 -2.4956
   70SLPC  H16S 6044   2.177   3.512   9.007  0.0483 -0.1448 -0.9886
   70SLPC  C217 6045   2.334   3.485   8.873  0.4528 -0.4762  0.2523
   70SLPC  H17R 6046   2.267   3.418   8.816  2.2103  0.5261 -3.0936
   70SLPC  H17S 6047   2.375   3.406   8.939 -0.1423 -2.6620 -1.9453
   70SLPC  C218 6048   2.453   3.550   8.797  0.6617  0.0464 -0.1741
   70SLPC  H18R 6049   2.464   3.497   8.700 -3.6672  0.4123 -0.9840
   70SLPC  H18S 6050   2.551   3.544   8.849  0.4658 -1.8651 -0.0042
   70SLPC  H18T 6051   2.424   3.655   8.771  0.0681 -0.2568 -0.7559
   70SLPC   C33 6052   1.864   3.906  10.254 -0.2471 -0.1963 -0.3169
   70SLPC   H3X 6053   1.761   3.899  10.295  0.3656  0.1665  1.3608
   70SLPC   H3Y 6054   1.916   3.819  10.208  0.2002  0.4579 -1.0469
   70SLPC   C34 6055   1.837   4.002  10.140 -0.3019 -0.2069 -0.2245
   70SLPC   H4X 6056   1.920   3.990  10.067 -0.9231 -1.4181 -0.7289
   70SLPC   H4Y 6057   1.841   4.105  10.184  0.3136 -1.9786  4.1409
   70SLPC   C35 6058   1.701   3.975  10.077 -0.1045  0.6481  0.6379
   70SLPC   H5X 6059   1.626   4.031  10.137  0.5902  1.1560  1.0390
   70SLPC   H5Y 6060   1.670   3.871  10.100  1.1744  0.1980  0.3223
   70SLPC   C36 6061   1.686   4.029   9.940 -0.1742  0.4038  0.3341
   70SLPC   H6X 6062   1.740   3.963   9.869 -0.8632  1.1553 -0.9143
   70SLPC   H6Y 6063   1.716   4.136   9.933  0.3516  0.1728 -1.3293
   70SLPC   C37 6064   1.542   4.013   9.893  0.8216 -0.5253 -0.3389
   70SLPC   H7X 6065   1.473   4.039   9.977  1.0792 -0.7008 -0.0713
   70SLPC   H7Y 6066   1.525   3.905   9.872  0.9619 -0.3798 -1.2071
   70SLPC   C38 6067   1.506   4.096   9.760 -0.3584 -0.0252 -0.2784
   70SLPC   H8X 6068   1.565   4.054   9.676 -2.0081 -0.5236 -1.2153
   70SLPC   H8Y 6069   1.527   4.203   9.780  1.2855 -0.3697 -0.1175
   70SLPC   C39 6070   1.358   4.080   9.722 -0.4049 -0.3254  0.5461
   70SLPC   H9X 6071   1.291   4.122   9.800 -0.0818 -0.1258  0.7141
   70SLPC   H9Y 6072   1.347   3.969   9.721 -2.2680 -0.1542  0.9327
   70SLPC  C310 6073   1.323   4.146   9.590 -0.5001  0.2015 -0.4108
   70SLPC  H10X 6074   1.402   4.222   9.577 -0.8130  0.9696  1.9474
   70SLPC  H10Y 6075   1.227   4.200   9.607  0.0521  2.5671 -4.1947
   70SLPC  C311 6076   1.309   4.056   9.463  0.5788 -0.8116 -0.2965
   70SLPC  H11X 6077   1.215   3.996   9.464  2.0694 -3.2351  2.7730
   70SLPC  H11Y 6078   1.396   3.987   9.464  0.4146 -1.0628 -1.4780
   70SLPC  C312 6079   1.292   4.149   9.339 -0.0451 -0.3990 -0.8922
   70SLPC  H12X 6080   1.210   4.222   9.355 -0.2863 -0.8975  0.1804
   70SLPC  H12Y 6081   1.250   4.082   9.262 -3.2469 -1.2617  1.4860
   70SLPC  C313 6082   1.420   4.215   9.290 -0.1763  0.1926 -0.1694
   70SLPC  H13X 6083   1.506   4.145   9.281 -0.6715 -0.5643  0.9040
   70SLPC  H13Y 6084   1.463   4.298   9.350 -0.2022  0.7716 -0.9545
   70SLPC  C314 6085   1.400   4.279   9.152 -0.6180  0.3486 -1.6794
   70SLPC  H14X 6086   1.334   4.366   9.169  0.8012  1.0961  0.1038
   70SLPC  H14Y 6087   1.360   4.207   9.077 -0.0257  0.2901 -1.9491
   70SLPC  C315 6088   1.522   4.338   9.085 -0.3147 -0.1411 -0.0339
   70SLPC  H15X 6089   1.483   4.395   8.998  1.6668  2.2716  0.6215
   70SLPC  H15Y 6090   1.599   4.268   9.046 -0.8765 -1.4295  1.0899
   70SLPC  C316 6091   1.603   4.438   9.169  0.4838 -0.0872 -0.2777
   70SLPC  H16X 6092   1.641   4.389   9.262  1.5809  0.9960 -0.1484
   70SLPC  H16Y 6093   1.537   4.524   9.196  1.1374 -0.0662  1.3437
   70SLPC  C317 6094   1.727   4.495   9.089  0.5734  0.4110  0.1467
   70SLPC  H17X 6095   1.695   4.580   9.024 -0.2913  1.1976  1.5668
   70SLPC  H17Y 6096   1.769   4.415   9.024  0.9636  0.3397  0.4847
   70SLPC  C318 6097   1.844   4.539   9.177  0.0489 -0.3174 -0.5680
   70SLPC  H18X 6098   1.931   4.586   9.127  0.9434  1.5290  2.5727
   70SLPC  H18Y 6099   1.890   4.452   9.230  0.6859 -0.4809 -1.3755
   70SLPC  H18Z 6100   1.820   4.616   9.254 -0.1681 -0.1562 -0.7978
   71SLPC     N 6101   1.467   2.294  10.649 -0.4831 -0.1496 -0.1370
   71SLPC   C13 6102   1.352   2.290  10.747 -0.2005 -0.4276  0.2988
   71SLPC  H13A 6103   1.391   2.257  10.843  0.5767 -0.3453  0.0160
   71SLPC  H13B 6104   1.324   2.393  10.767 -0.2824 -0.2753 -0.6000
   71SLPC  H13C 6105   1.264   2.236  10.714 -0.3749  0.6207 -0.9816
   71SLPC   C14 6106   1.424   2.350  10.519  0.5250 -0.3431 -0.3118
   71SLPC  H14A 6107   1.501   2.357  10.443 -0.0243 -0.8570 -0.9170
   71SLPC  H14B 6108   1.346   2.291  10.474  0.8100 -1.0931  0.1888
   71SLPC  H14C 6109   1.379   2.449  10.520 -1.3822 -1.2005 -0.1067
   71SLPC   C15 6110   1.500   2.148  10.621 -0.6171  0.7106 -0.8233
   71SLPC  H15A 6111   1.535   2.099  10.710 -0.7664 -0.5171 -1.4224
   71SLPC  H15B 6112   1.419   2.088  10.581 -0.2084 -1.8577  2.0638
   71SLPC  H15C 6113   1.583   2.144  10.552  0.0214 -0.0478 -0.0038
   71SLPC   C12 6114   1.582   2.368  10.712 -0.1234  0.1692 -0.2851
   71SLPC  H12A 6115   1.549   2.470  10.724  0.7177  0.4299 -0.2002
   71SLPC  H12B 6116   1.659   2.376  10.637 -0.7185  2.0570 -0.7130
   71SLPC   C11 6117   1.662   2.311  10.832  0.3217 -0.3455 -0.3487
   71SLPC  H11A 6118   1.593   2.285  10.915 -1.0136  2.0093 -0.6863
   71SLPC  H11B 6119   1.732   2.390  10.865 -3.0482  2.5206  0.2169
   71SLPC     P 6120   1.884   2.226  10.718 -0.0852  0.1904  0.0374
   71SLPC   O13 6121   1.985   2.288  10.808 -0.6822 -0.0832 -0.7640
   71SLPC   O14 6122   1.916   2.104  10.641 -0.9033 -0.1619  0.6196
   71SLPC   O12 6123   1.741   2.196  10.795 -0.2463  0.8744  0.1550
   71SLPC   O11 6124   1.847   2.338  10.614 -0.3369  0.9978  0.2364
   71SLPC    C1 6125   1.933   2.358  10.511  0.3863 -0.6719  0.2030
   71SLPC    HA 6126   2.043   2.350  10.526  0.7782  0.9372 -1.5219
   71SLPC    HB 6127   1.914   2.291  10.424 -0.7324  1.5175 -1.2809
   71SLPC    C2 6128   1.919   2.507  10.456  0.4538  0.0780  0.5465
   71SLPC    HS 6129   1.988   2.570  10.515  2.0229  0.5384 -1.6939
   71SLPC   O21 6130   1.778   2.542  10.473  0.0027  0.4823  0.5493
   71SLPC   C21 6131   1.756   2.680  10.469 -0.6808  0.7894  0.9743
   71SLPC   O22 6132   1.841   2.766  10.485  0.0566  0.4374  0.3739
   71SLPC   C22 6133   1.607   2.705  10.443  0.3124 -0.5698 -0.3630
   71SLPC   H2R 6134   1.553   2.618  10.487 -0.6032  0.0030 -0.3374
   71SLPC   H2S 6135   1.576   2.797  10.497 -0.2050 -1.3978  0.7708
   71SLPC    C3 6136   1.956   2.501  10.299 -0.4052 -0.3078  0.4546
   71SLPC    HX 6137   1.963   2.604  10.258 -1.1387 -1.6646 -3.2476
   71SLPC    HY 6138   1.883   2.442  10.240 -2.4658  0.7444  1.8978
   71SLPC   O31 6139   2.077   2.434  10.284 -0.0906  0.0243 -0.4185
   71SLPC   C31 6140   2.182   2.512  10.273 -0.2692 -0.0594 -0.0172
   71SLPC   O32 6141   2.184   2.632  10.290  0.0371  0.7048 -0.2984
   71SLPC   C32 6142   2.306   2.433  10.269  0.1911  0.5439  0.7702
   71SLPC   H2X 6143   2.293   2.326  10.297 -0.1988  0.9975  2.3871
   71SLPC   H2Y 6144   2.380   2.475  10.341 -0.4252  1.5470  0.8279
   71SLPC   C23 6145   1.580   2.720  10.295 -0.2996  0.0086  0.4131
   71SLPC   H3R 6146   1.621   2.809  10.244  0.4726  1.1250  2.8712
   71SLPC   H3S 6147   1.470   2.732  10.283 -0.6311  2.4684  4.7250
   71SLPC   C24 6148   1.612   2.593  10.214 -0.0042  0.1277  0.4758
   71SLPC   H4R 6149   1.568   2.504  10.263  1.6973  0.2191  2.2468
   71SLPC   H4S 6150   1.723   2.588  10.210 -0.0902 -1.5235 -0.1565
   71SLPC   C25 6151   1.575   2.604  10.064 -0.6645 -0.5640  0.1713
   71SLPC   H5R 6152   1.623   2.692  10.016 -0.1111 -1.4830 -0.9872
   71SLPC   H5S 6153   1.468   2.630  10.054 -0.2284  1.8200  1.3224
   71SLPC   C26 6154   1.611   2.480   9.981  0.0633  0.5431  0.3303
   71SLPC   H6R 6155   1.545   2.474   9.892  0.1943  0.7514  0.2189
   71SLPC   H6S 6156   1.588   2.390  10.043  1.1866  2.0689  3.0287
   71SLPC   C27 6157   1.759   2.466   9.936  0.4744  0.0030 -1.2735
   71SLPC   H7R 6158   1.770   2.372   9.877 -3.6195 -2.0785  1.0520
   71SLPC   H7S 6159   1.821   2.457  10.027 -2.5656 -1.3871  0.7422
   71SLPC   C28 6160   1.798   2.589   9.852  0.0982  0.6961  0.0334
   71SLPC   H8R 6161   1.792   2.679   9.917  0.4031  0.6683  0.1015
   71SLPC   H8S 6162   1.721   2.607   9.775 -1.0634  0.6989  1.1792
   71SLPC   C29 6163   1.942   2.585   9.803 -0.0863 -0.4768 -0.0958
   71SLPC   H9R 6164   2.015   2.604   9.883 -0.3491 -0.8881  0.2445
   71SLPC  C210 6165   1.983   2.550   9.680  0.0607  0.3517 -0.2205
   71SLPC  H10R 6166   2.091   2.538   9.664 -0.0565 -0.3268 -0.5116
   71SLPC  C211 6167   1.896   2.503   9.565 -0.3267  0.6327  0.8091
   71SLPC  H11R 6168   1.787   2.498   9.586 -0.5891  2.2823 -0.0523
   71SLPC  H11S 6169   1.936   2.400   9.560  0.0944  0.7228  2.3026
   71SLPC  C212 6170   1.948   2.579   9.441  0.1970 -0.6296 -0.3304
   71SLPC  H12R 6171   1.944   2.688   9.447 -0.3323 -0.5994 -1.0728
   71SLPC  C213 6172   2.015   2.536   9.334 -0.1076  0.3625  0.2045
   71SLPC  H13R 6173   2.038   2.603   9.250 -1.2108 -0.9483 -1.1703
   71SLPC  C214 6174   2.051   2.394   9.323  0.9079 -0.5026 -0.7506
   71SLPC  H14R 6175   1.978   2.325   9.372  0.3610  0.5891 -0.0107
   71SLPC  H14S 6176   2.156   2.392   9.358  0.5703 -0.9808  0.2600
   71SLPC  C215 6177   2.051   2.343   9.170 -0.3830 -0.3602 -0.6583
   71SLPC  H15R 6178   1.949   2.315   9.137 -0.5959  0.4303 -0.6923
   71SLPC  H15S 6179   2.104   2.245   9.174 -0.5335 -0.3894  0.6938
   71SLPC  C216 6180   2.128   2.427   9.066  0.5467 -0.0925 -0.1066
   71SLPC  H16R 6181   2.084   2.529   9.056 -0.8445 -0.6054  0.6033
   71SLPC  H16S 6182   2.125   2.376   8.967 -0.9852  1.2014 -0.7475
   71SLPC  C217 6183   2.281   2.440   9.103 -0.3848 -0.0115 -0.2755
   71SLPC  H17R 6184   2.318   2.338   9.125  1.4764  0.3327 -1.6193
   71SLPC  H17S 6185   2.287   2.504   9.193 -2.8414 -0.7098  0.4124
   71SLPC  C218 6186   2.371   2.503   8.991 -0.3864 -0.3606  0.3986
   71SLPC  H18R 6187   2.340   2.471   8.889 -2.0626  1.8531  0.1748
   71SLPC  H18S 6188   2.473   2.464   9.011 -0.8321 -1.7629  0.0107
   71SLPC  H18T 6189   2.358   2.613   9.003  1.0206 -0.0632 -0.6233
   71SLPC   C33 6190   2.370   2.427  10.132  0.2317  0.3749 -0.2934
   71SLPC   H3X 6191   2.466   2.372  10.137 -1.0479 -1.7197  2.6682
   71SLPC   H3Y 6192   2.404   2.527  10.097 -0.7066  0.2467 -1.6218
   71SLPC   C34 6193   2.281   2.354  10.035 -0.2179 -0.0419 -0.1879
   71SLPC   H4X 6194   2.178   2.395  10.025  0.0021  0.3428 -0.9275
   71SLPC   H4Y 6195   2.282   2.251  10.077 -0.3171 -0.1398 -0.4249
   71SLPC   C35 6196   2.350   2.358   9.892  0.1106 -0.4139 -0.0495
   71SLPC   H5X 6197   2.458   2.335   9.903  0.2471  1.4815  3.2569
   71SLPC   H5Y 6198   2.348   2.465   9.861  0.3061 -0.5617 -0.5695
   71SLPC   C36 6199   2.279   2.281   9.782 -0.3884 -0.7013  0.0682
   71SLPC   H6X 6200   2.170   2.295   9.765 -0.0513  1.9667 -0.0583
   71SLPC   H6Y 6201   2.298   2.173   9.800 -1.5437 -1.0904 -0.9675
   71SLPC   C37 6202   2.358   2.304   9.650 -0.3960 -0.1071 -0.5525
   71SLPC   H7X 6203   2.462   2.281   9.680 -1.1605 -1.4942  1.1049
   71SLPC   H7Y 6204   2.355   2.405   9.604  0.0137 -0.4783 -1.4001
   71SLPC   C38 6205   2.321   2.206   9.542  0.5239  0.2273  0.2284
   71SLPC   H8X 6206   2.225   2.227   9.490  0.7478 -0.6468 -0.5459
   71SLPC   H8Y 6207   2.318   2.100   9.572 -1.5104 -0.4770 -2.2413
   71SLPC   C39 6208   2.421   2.220   9.426  0.0449  0.5423 -0.1174
   71SLPC   H9X 6209   2.520   2.210   9.477 -0.3316  2.1353  0.9372
   71SLPC   H9Y 6210   2.422   2.318   9.373 -0.2046  0.0547 -1.0371
   71SLPC  C310 6211   2.397   2.115   9.315  0.2299 -0.1975 -0.6188
   71SLPC  H10X 6212   2.303   2.136   9.260 -0.7183 -0.7521  0.7740
   71SLPC  H10Y 6213   2.391   2.013   9.358 -0.5577 -0.1835 -0.6832
   71SLPC  C311 6214   2.502   2.123   9.210 -0.1751  0.2984  0.4977
   71SLPC  H11X 6215   2.601   2.134   9.259 -1.2743  3.6265  2.0961
   71SLPC  H11Y 6216   2.486   2.215   9.150  0.3408 -0.4017 -0.7567
   71SLPC  C312 6217   2.501   2.006   9.108  0.0719  0.1670 -0.2304
   71SLPC  H12X 6218   2.399   1.986   9.069 -1.4525 -1.3865  4.2786
   71SLPC  H12Y 6219   2.524   1.920   9.174  2.5263  2.4088  1.9858
   71SLPC  C313 6220   2.602   2.031   8.993 -0.4336  0.1477 -0.8310
   71SLPC  H13X 6221   2.700   2.042   9.045  0.1526 -0.2627 -1.8368
   71SLPC  H13Y 6222   2.572   2.124   8.940 -1.5088  0.5250  0.4163
   71SLPC  C314 6223   2.619   1.916   8.898 -0.1249  0.0417 -0.7850
   71SLPC  H14X 6224   2.532   1.888   8.835 -0.2514 -1.8368  0.1861
   71SLPC  H14Y 6225   2.648   1.824   8.954  0.2419  0.6071 -0.0378
   71SLPC  C315 6226   2.730   1.931   8.798 -0.1819 -0.2330  0.6817
   71SLPC  H15X 6227   2.827   1.936   8.852 -0.0695  2.8609  0.2812
   71SLPC  H15Y 6228   2.711   2.032   8.754  1.4859  0.2354  0.9949
   71SLPC  C316 6229   2.723   1.819   8.693 -0.2101 -0.0985  0.6156
   71SLPC  H16X 6230   2.632   1.837   8.630 -0.0742  0.7562  0.6579
   71SLPC  H16Y 6231   2.730   1.725   8.751 -1.0888 -1.3199 -1.1886
   71SLPC  C317 6232   2.838   1.813   8.586 -0.5164  0.6769 -0.3922
   71SLPC  H17X 6233   2.934   1.832   8.637 -1.2217  3.1573  0.0408
   71SLPC  H17Y 6234   2.837   1.902   8.520 -0.9452 -0.1550 -1.5312
   71SLPC  C318 6235   2.850   1.682   8.504 -0.9944  0.6370  0.6712
   71SLPC  H18X 6236   2.795   1.694   8.408 -0.8948 -2.1209  0.2218
   71SLPC  H18Y 6237   2.825   1.596   8.569  2.8903 -0.2687  1.0979
   71SLPC  H18Z 6238   2.956   1.671   8.473 -1.4838 -0.3655 -0.7582
   72SLPC     N 6239   3.251   1.345  10.724  0.1233  0.1129 -0.2941
   72SLPC   C13 6240   3.296   1.440  10.613  0.0384 -0.2451  1.4847
   72SLPC  H13A 6241   3.385   1.492  10.644  1.4097 -1.6442  0.0001
   72SLPC  H13B 6242   3.319   1.395  10.517 -1.4761  2.5257 -0.2458
   72SLPC  H13C 6243   3.218   1.508  10.582  1.1203  0.8320  1.0831
   72SLPC   C14 6244   3.203   1.409  10.845  0.2356  0.1846 -0.1137
   72SLPC  H14A 6245   3.109   1.460  10.833  0.0877  0.1704  0.8899
   72SLPC  H14B 6246   3.200   1.342  10.930  1.3861 -0.2558 -0.4136
   72SLPC  H14C 6247   3.274   1.483  10.879 -2.7682  1.9528  2.6075
   72SLPC   C15 6248   3.369   1.260  10.762  0.7365 -0.4494  0.3220
   72SLPC  H15A 6249   3.399   1.195  10.682 -1.0675  1.2854 -1.8325
   72SLPC  H15B 6250   3.451   1.321  10.796  1.1711 -0.2029 -1.1513
   72SLPC  H15C 6251   3.351   1.189  10.842 -0.8891 -3.1663 -2.3494
   72SLPC   C12 6252   3.147   1.242  10.660  0.1013  0.0481  0.1369
   72SLPC  H12A 6253   3.182   1.218  10.561 -0.4575  1.3797 -0.3967
   72SLPC  H12B 6254   3.054   1.296  10.645  0.0928  0.0745  0.2777
   72SLPC   C11 6255   3.098   1.120  10.751  0.2154  0.9606 -0.4180
   72SLPC  H11A 6256   3.005   1.068  10.719  0.6981  0.2961 -0.7571
   72SLPC  H11B 6257   3.064   1.175  10.841 -1.8000  0.2339 -0.7061
   72SLPC     P 6258   3.259   0.946  10.674  0.0538  0.2046 -0.1480
   72SLPC   O13 6259   3.365   1.021  10.601 -0.4977 -0.1209  0.6365
   72SLPC   O14 6260   3.305   0.821  10.726 -0.3233  0.4576 -0.4000
   72SLPC   O12 6261   3.201   1.033  10.788  0.2882 -0.0909 -0.5505
   72SLPC   O11 6262   3.133   0.929  10.572 -0.2829  0.6231  0.5219
   72SLPC    C1 6263   3.092   0.793  10.538  0.3151 -0.0113  0.4329
   72SLPC    HA 6264   3.094   0.737  10.634  0.0302 -0.2189  0.3180
   72SLPC    HB 6265   2.991   0.795  10.492  0.9530 -0.1747 -0.9975
   72SLPC    C2 6266   3.191   0.735  10.441 -0.0322 -0.4405  0.2488
   72SLPC    HS 6267   3.291   0.761  10.481  0.0027 -1.2518  0.6878
   72SLPC   O21 6268   3.178   0.801  10.315  0.1417  0.4875  0.4642
   72SLPC   C21 6269   3.271   0.796  10.217 -0.1502 -0.1413 -0.1027
   72SLPC   O22 6270   3.376   0.735  10.225  0.1129  0.8841  0.7459
   72SLPC   C22 6271   3.211   0.861  10.094  0.7804  0.3906  0.3552
   72SLPC   H2R 6272   3.101   0.856  10.081  0.6790  2.3744  0.2863
   72SLPC   H2S 6273   3.241   0.968  10.088 -2.1276  1.3458  1.6545
   72SLPC    C3 6274   3.185   0.580  10.428 -0.0127 -0.3662  0.4820
   72SLPC    HX 6275   3.224   0.537  10.523  0.4567 -0.4322  0.2616
   72SLPC    HY 6276   3.259   0.536  10.357 -1.3062  0.1080 -1.1843
   72SLPC   O31 6277   3.046   0.544  10.407 -0.1161 -0.2676  0.0877
   72SLPC   C31 6278   3.033   0.423  10.352  0.1380 -0.1830  0.2243
   72SLPC   O32 6279   3.128   0.351  10.329 -0.2435  0.1330  0.2766
   72SLPC   C32 6280   2.885   0.394  10.324 -0.3523  0.3503  0.2453
   72SLPC   H2X 6281   2.832   0.405  10.421 -1.4234 -1.4374 -0.1008
   72SLPC   H2Y 6282   2.880   0.288  10.291 -1.2513  0.2373  0.7094
   72SLPC   C23 6283   3.263   0.787   9.967  0.7173  0.3429 -0.3407
   72SLPC   H3R 6284   3.227   0.682   9.962 -0.0327  0.5215  1.1209
   72SLPC   H3S 6285   3.374   0.783   9.975  0.7483 -2.6195 -1.6233
   72SLPC   C24 6286   3.244   0.864   9.841  0.4882 -0.5098  0.2243
   72SLPC   H4R 6287   3.306   0.956   9.847  0.0257  0.1402 -3.6913
   72SLPC   H4S 6288   3.136   0.886   9.823  0.1915 -1.1276  1.2001
   72SLPC   C25 6289   3.288   0.776   9.720 -0.2281 -0.9184  0.4556
   72SLPC   H5R 6290   3.239   0.677   9.730 -0.4820 -0.8723 -0.2971
   72SLPC   H5S 6291   3.399   0.765   9.724 -0.1061  0.1731  0.2566
   72SLPC   C26 6292   3.248   0.849   9.593  0.0745 -0.2554 -0.7763
   72SLPC   H6R 6293   3.295   0.950   9.588 -0.9062  0.2055 -0.6884
   72SLPC   H6S 6294   3.140   0.872   9.585  0.0798 -0.4058 -1.3461
   72SLPC   C27 6295   3.283   0.765   9.467  0.0892 -0.3967 -0.2208
   72SLPC   H7R 6296   3.253   0.660   9.483  1.6853 -0.6730  1.0693
   72SLPC   H7S 6297   3.391   0.749   9.446  0.0729 -2.0889  0.9082
   72SLPC   C28 6298   3.224   0.820   9.342 -0.3037  0.1403  0.3348
   72SLPC   H8R 6299   3.114   0.810   9.353 -0.5608  1.7181 -0.7205
   72SLPC   H8S 6300   3.246   0.752   9.256  1.1574  0.8292  0.1370
   72SLPC   C29 6301   3.279   0.957   9.305 -0.3198 -0.1754 -0.9401
   72SLPC   H9R 6302   3.272   1.031   9.386 -0.1745  0.9787 -1.9802
   72SLPC  C210 6303   3.343   0.999   9.195 -0.0806 -0.0286  0.1284
   72SLPC  H10R 6304   3.351   1.108   9.192 -1.5447  0.2392  3.4693
   72SLPC  C211 6305   3.371   0.912   9.072 -0.4986 -0.4276 -0.8130
   72SLPC  H11R 6306   3.289   0.926   8.999 -2.1433 -0.2539  1.0313
   72SLPC  H11S 6307   3.374   0.810   9.114 -0.7343 -0.4750 -0.9126
   72SLPC  C212 6308   3.509   0.937   9.015 -0.6278  0.0192  0.2079
   72SLPC  H12R 6309   3.595   0.923   9.082  2.1878  4.0339 -2.2942
   72SLPC  C213 6310   3.533   0.965   8.889  0.2303  1.0245 -0.0365
   72SLPC  H13R 6311   3.639   0.974   8.859  1.0288 -2.9520  1.3223
   72SLPC  C214 6312   3.440   0.976   8.773 -0.6708  0.1965 -0.3595
   72SLPC  H14R 6313   3.450   1.078   8.731 -2.2990  0.7112  0.4502
   72SLPC  H14S 6314   3.335   0.961   8.806 -0.6139  1.4625  0.4376
   72SLPC  C215 6315   3.460   0.874   8.659  0.4365 -0.6510 -0.0958
   72SLPC  H15R 6316   3.560   0.898   8.618  0.7654 -1.2851  0.3497
   72SLPC  H15S 6317   3.389   0.891   8.575  0.3376 -1.9862 -0.2905
   72SLPC  C216 6318   3.449   0.728   8.702 -0.2294  0.3671  0.2176
   72SLPC  H16R 6319   3.352   0.695   8.746 -1.0200  0.9284 -1.0581
   72SLPC  H16S 6320   3.541   0.704   8.759  0.3800  2.3914  0.1298
   72SLPC  C217 6321   3.456   0.644   8.569 -0.1262  0.2390 -0.7502
   72SLPC  H17R 6322   3.565   0.633   8.551  0.2486  1.6606  0.6059
   72SLPC  H17S 6323   3.415   0.707   8.486  3.1021  1.1581 -1.7222
   72SLPC  C218 6324   3.376   0.516   8.578 -0.0717  0.3130  0.2034
   72SLPC  H18R 6325   3.393   0.459   8.484 -1.3597 -0.1084  0.2134
   72SLPC  H18S 6326   3.268   0.542   8.571 -0.3064 -0.4604  0.9077
   72SLPC  H18T 6327   3.398   0.457   8.669 -0.4792 -0.2335 -0.0420
   72SLPC   C33 6328   2.835   0.486  10.218 -0.1563 -0.1184 -0.2408
   72SLPC   H3X 6329   2.830   0.585  10.268  1.2133 -0.8315  1.3433
   72SLPC   H3Y 6330   2.733   0.457  10.186  0.3284 -1.3157 -0.7487
   72SLPC   C34 6331   2.921   0.503  10.088  0.2215 -0.1153  0.3235
   72SLPC   H4X 6332   2.902   0.421  10.015  4.0099 -1.9176  1.2348
   72SLPC   H4Y 6333   3.029   0.512  10.111 -0.4062  1.0692  2.9002
   72SLPC   C35 6334   2.879   0.635  10.015  0.2368  0.5200 -0.4169
   72SLPC   H5X 6335   2.937   0.722  10.054 -1.0029  1.8497 -1.4567
   72SLPC   H5Y 6336   2.775   0.645  10.051  0.7121  0.3206  1.0089
   72SLPC   C36 6337   2.869   0.642   9.865  0.7969 -0.1870 -0.5399
   72SLPC   H6X 6338   2.960   0.597   9.819  1.1828  0.3927 -0.3427
   72SLPC   H6Y 6339   2.848   0.747   9.837 -0.1665 -0.0452  0.6679
   72SLPC   C37 6340   2.758   0.545   9.812 -0.0819 -0.1631  0.6686
   72SLPC   H7X 6341   2.661   0.565   9.862  0.0599 -0.0483  0.8938
   72SLPC   H7Y 6342   2.779   0.437   9.826  1.0244  0.1411  1.4077
   72SLPC   C38 6343   2.737   0.567   9.659  0.4060  0.1272  0.3961
   72SLPC   H8X 6344   2.686   0.664   9.637  0.7574  0.7107  2.0308
   72SLPC   H8Y 6345   2.680   0.482   9.616  0.7119  1.3314 -2.5066
   72SLPC   C39 6346   2.863   0.560   9.578  0.6761  0.1859  0.2438
   72SLPC   H9X 6347   2.920   0.468   9.604 -0.4034 -0.3679  0.6884
   72SLPC   H9Y 6348   2.938   0.637   9.605  1.3883 -0.3989 -0.0370
   72SLPC  C310 6349   2.834   0.555   9.425 -0.7750 -0.3523  0.2004
   72SLPC  H10X 6350   2.931   0.576   9.375 -0.7548 -0.5023  0.1749
   72SLPC  H10Y 6351   2.761   0.631   9.390 -0.2201 -1.4912 -3.6479
   72SLPC  C311 6352   2.790   0.421   9.370  0.0217 -0.2764 -0.5990
   72SLPC  H11X 6353   2.703   0.395   9.434  1.2289  0.1420  1.2112
   72SLPC  H11Y 6354   2.869   0.347   9.395 -1.5487 -1.6646  0.3715
   72SLPC  C312 6355   2.763   0.421   9.216 -0.3439  0.0064  0.2732
   72SLPC  H12X 6356   2.848   0.479   9.172 -1.3620  1.0108 -0.4158
   72SLPC  H12Y 6357   2.675   0.489   9.203 -0.8785 -0.6835  0.2749
   72SLPC  C313 6358   2.752   0.277   9.157 -0.3645  0.3743  0.5475
   72SLPC  H13X 6359   2.659   0.246   9.209 -0.6067  3.9013  2.3446
   72SLPC  H13Y 6360   2.844   0.238   9.205 -0.6423  0.1858  0.9243
   72SLPC  C314 6361   2.754   0.271   8.997  0.9953 -0.5740 -0.1299
   72SLPC  H14X 6362   2.844   0.329   8.966 -0.9287  1.2943 -2.4088
   72SLPC  H14Y 6363   2.662   0.332   8.982  1.4737  0.4670  1.0620
   72SLPC  C315 6364   2.753   0.126   8.950 -0.1080 -0.6000 -0.0463
   72SLPC  H15X 6365   2.676   0.076   9.012  1.1408 -1.2771  0.9906
   72SLPC  H15Y 6366   2.852   0.081   8.974 -0.1385 -0.2510  0.7767
   72SLPC  C316 6367   2.705   0.108   8.801 -0.1647  0.2574 -0.0168
   72SLPC  H16X 6368   2.782   0.143   8.728 -1.9907  0.9593 -1.6592
   72SLPC  H16Y 6369   2.619   0.173   8.774  0.6379  0.3193 -2.6149
   72SLPC  C317 6370   2.681  -0.046   8.763 -0.3833 -0.5982  0.4674
   72SLPC  H17X 6371   2.657  -0.067   8.657  2.3432 -1.4677 -0.0168
   72SLPC  H17Y 6372   2.595  -0.067   8.831 -0.7209  0.4375  0.3705
   72SLPC  C318 6373   2.795  -0.136   8.794 -0.6080  0.5319 -0.4872
   72SLPC  H18X 6374   2.894  -0.107   8.753  0.7980  0.4625  2.6461
   72SLPC  H18Y 6375   2.780  -0.236   8.747 -0.4290  0.8974 -1.3282
   72SLPC  H18Z 6376   2.807  -0.157   8.903  1.9076 -1.8282 -1.1585
   73SLPC     N 6377   2.680   6.017  10.844 -0.8226 -0.2214 -0.6618
   73SLPC   C13 6378   2.666   6.068  10.707  0.0892  0.5057 -0.1532
   73SLPC  H13A 6379   2.733   6.153  10.699 -0.1472  0.6485 -0.6588
   73SLPC  H13B 6380   2.694   6.001  10.626 -1.8627  0.5466 -0.8750
   73SLPC  H13C 6381   2.564   6.081  10.674 -0.8134 -2.4668  1.2876
   73SLPC   C14 6382   2.590   5.897  10.872 -0.2316 -0.2306  0.2025
   73SLPC  H14A 6383   2.493   5.941  10.853  0.4215  0.7037 -1.1027
   73SLPC  H14B 6384   2.613   5.815  10.806 -1.4913 -0.1924 -0.2912
   73SLPC  H14C 6385   2.592   5.868  10.976  0.8576  2.5635  1.0122
   73SLPC   C15 6386   2.637   6.130  10.933  0.4974 -0.6146 -0.2378
   73SLPC  H15A 6387   2.536   6.165  10.922  1.7007  1.9103 -4.1796
   73SLPC  H15B 6388   2.642   6.100  11.037 -0.0800  2.9200  0.8911
   73SLPC  H15C 6389   2.705   6.214  10.937 -0.3284  0.1187 -1.3044
   73SLPC   C12 6390   2.822   5.974  10.881  0.3378  0.3103  0.2020
   73SLPC  H12A 6391   2.894   6.053  10.863  1.6362 -0.9380 -0.1769
   73SLPC  H12B 6392   2.850   5.894  10.814 -1.5196 -1.6153  1.6533
   73SLPC   C11 6393   2.844   5.903  11.020 -0.0308  0.4204  0.8688
   73SLPC  H11A 6394   2.809   5.963  11.107 -2.7397  0.6198 -0.3086
   73SLPC  H11B 6395   2.952   5.909  11.041  0.1831  0.0138 -0.0545
   73SLPC     P 6396   2.896   5.657  10.940 -0.1396 -0.0415 -0.0261
   73SLPC   O13 6397   3.037   5.688  10.960 -0.5099 -0.0303 -0.3073
   73SLPC   O14 6398   2.844   5.528  10.979  0.1744 -0.6288  0.1779
   73SLPC   O12 6399   2.803   5.769  11.015 -0.6035  0.2042 -0.0280
   73SLPC   O11 6400   2.856   5.669  10.789  0.3972 -0.0980  0.0713
   73SLPC    C1 6401   2.922   5.582  10.697 -0.5850 -0.1617  0.3149
   73SLPC    HA 6402   2.958   5.489  10.747  0.1143 -0.8084 -1.3352
   73SLPC    HB 6403   2.844   5.548  10.626 -0.9866 -0.7404  1.0283
   73SLPC    C2 6404   3.037   5.648  10.619 -0.1061 -0.5330 -0.0910
   73SLPC    HS 6405   3.097   5.696  10.699 -0.9731  1.2948 -0.5208
   73SLPC   O21 6406   2.974   5.750  10.532 -0.2011 -0.0652 -0.0350
   73SLPC   C21 6407   3.059   5.843  10.501 -1.0938  0.2397  0.6433
   73SLPC   O22 6408   3.172   5.861  10.554 -0.3697 -0.4118  0.7155
   73SLPC   C22 6409   2.992   5.951  10.414 -0.0396 -0.0786 -0.8513
   73SLPC   H2R 6410   2.901   5.916  10.362 -1.9856 -0.5549  2.7597
   73SLPC   H2S 6411   2.967   6.012  10.503  0.5020  0.7375 -1.2462
   73SLPC    C3 6412   3.122   5.541  10.544 -0.2181 -0.5482  0.2128
   73SLPC    HX 6413   3.176   5.467  10.606  0.5884 -2.2267 -2.4070
   73SLPC    HY 6414   3.195   5.606  10.491  0.6961 -1.8140 -0.1029
   73SLPC   O31 6415   3.034   5.472  10.458  0.3162 -0.4770 -0.8273
   73SLPC   C31 6416   3.070   5.452  10.334  0.2756 -0.5491  0.1216
   73SLPC   O32 6417   3.181   5.459  10.289 -0.9424  0.1445 -0.3557
   73SLPC   C32 6418   2.936   5.429  10.255 -0.0004  0.2322  0.5251
   73SLPC   H2X 6419   2.915   5.511  10.183  2.6399 -0.1403 -0.7510
   73SLPC   H2Y 6420   2.857   5.411  10.332  1.5611 -2.4888  1.5816
   73SLPC   C23 6421   3.089   6.024  10.325 -0.1859 -0.8496  0.2619
   73SLPC   H3R 6422   3.186   6.052  10.371  0.0370  1.3190 -1.4349
   73SLPC   H3S 6423   3.052   6.122  10.289 -1.3168 -1.4142 -0.1214
   73SLPC   C24 6424   3.116   5.944  10.195 -0.4278  0.2350  0.2583
   73SLPC   H4R 6425   3.205   5.996  10.155  1.9367 -1.1171  3.4938
   73SLPC   H4S 6426   3.027   5.962  10.131  1.5930  0.4990 -2.5490
   73SLPC   C25 6427   3.159   5.800  10.207 -0.1525 -0.3249 -0.3523
   73SLPC   H5R 6428   3.072   5.749  10.254  0.2175 -0.4013  0.2664
   73SLPC   H5S 6429   3.247   5.793  10.276 -0.1985 -2.5724 -0.4904
   73SLPC   C26 6430   3.193   5.740  10.070  0.3959 -0.7171 -0.0541
   73SLPC   H6R 6431   3.201   5.630  10.076  0.3427 -0.6275  2.1910
   73SLPC   H6S 6432   3.288   5.783  10.031  0.1838  1.4051  1.6200
   73SLPC   C27 6433   3.084   5.764   9.954  0.9610 -0.6574 -0.3220
   73SLPC   H7R 6434   3.057   5.868   9.927  0.2442 -0.5937  0.5988
   73SLPC   H7S 6435   2.989   5.731  10.002  0.3859 -1.0898 -1.7566
   73SLPC   C28 6436   3.124   5.684   9.832 -0.5233 -0.1959  0.9731
   73SLPC   H8R 6437   3.037   5.683   9.764  0.6092  0.7600 -0.5278
   73SLPC   H8S 6438   3.134   5.578   9.863 -0.0060 -0.3545  0.2760
   73SLPC   C29 6439   3.255   5.727   9.763  0.7032  0.1364 -0.7269
   73SLPC   H9R 6440   3.341   5.724   9.832 -1.4325 -0.0476  1.9922
   73SLPC  C210 6441   3.279   5.752   9.635  0.4519 -0.1824  0.5279
   73SLPC  H10R 6442   3.378   5.780   9.594  0.1195  0.6807  0.3025
   73SLPC  C211 6443   3.171   5.756   9.527 -0.0411  0.2220 -0.8073
   73SLPC  H11R 6444   3.179   5.849   9.467 -0.6544 -0.7718 -2.4807
   73SLPC  H11S 6445   3.068   5.749   9.566 -0.6378  0.6157 -2.2747
   73SLPC  C212 6446   3.208   5.633   9.449  0.2034 -0.2327 -0.2795
   73SLPC  H12R 6447   3.239   5.544   9.505  0.6629  0.3362  0.3828
   73SLPC  C213 6448   3.185   5.625   9.315 -0.4410  0.4241 -0.4084
   73SLPC  H13R 6449   3.217   5.534   9.261 -0.0021  1.4221 -1.8612
   73SLPC  C214 6450   3.128   5.735   9.225  0.2603  0.4822 -0.0244
   73SLPC  H14R 6451   3.075   5.814   9.283  2.1247  1.4315  0.4372
   73SLPC  H14S 6452   3.045   5.685   9.172 -1.6765  2.2290  1.2834
   73SLPC  C215 6453   3.238   5.799   9.143  0.5482 -0.5515  0.2693
   73SLPC  H15R 6454   3.303   5.850   9.217 -0.0523  1.6035 -0.6358
   73SLPC  H15S 6455   3.196   5.878   9.077  1.7405  0.5778  0.8340
   73SLPC  C216 6456   3.309   5.699   9.049 -0.7907 -0.3998 -0.1103
   73SLPC  H16R 6457   3.242   5.637   8.986 -0.8732  1.2989 -1.7428
   73SLPC  H16S 6458   3.359   5.625   9.115 -0.2111  0.9113  0.9681
   73SLPC  C217 6459   3.411   5.780   8.970  0.2633  0.5566 -0.6229
   73SLPC  H17R 6460   3.493   5.821   9.033 -0.9156 -2.4298  3.0148
   73SLPC  H17S 6461   3.364   5.863   8.913 -0.2408 -1.4346 -3.2114
   73SLPC  C218 6462   3.473   5.682   8.871  0.3530 -0.0824 -0.0021
   73SLPC  H18R 6463   3.408   5.657   8.785 -0.0506  0.7195  0.0645
   73SLPC  H18S 6464   3.495   5.580   8.909  3.5315  0.5696  0.0450
   73SLPC  H18T 6465   3.565   5.722   8.825  0.1855 -0.7323 -0.9142
   73SLPC   C33 6466   2.949   5.304  10.161  0.2184  0.8524 -0.3156
   73SLPC   H3X 6467   2.850   5.255  10.150  1.5257 -1.1695 -4.3363
   73SLPC   H3Y 6468   3.011   5.233  10.219 -2.3187 -0.3480  1.0065
   73SLPC   C34 6469   2.993   5.328  10.021  0.2539 -0.4129 -0.4951
   73SLPC   H4X 6470   3.098   5.366  10.025 -0.5231  1.7399  0.0021
   73SLPC   H4Y 6471   2.928   5.407   9.979  1.0169  0.9520  0.8485
   73SLPC   C35 6472   2.983   5.206   9.931 -1.0465 -0.3150 -1.1015
   73SLPC   H5X 6473   2.876   5.178   9.927 -0.7138 -2.3302  1.8295
   73SLPC   H5Y 6474   3.051   5.126   9.968  0.7957  2.2398  1.2522
   73SLPC   C36 6475   3.044   5.243   9.789  0.1151 -0.7237  0.0084
   73SLPC   H6X 6476   3.150   5.270   9.807 -0.7469  2.1105  1.1829
   73SLPC   H6Y 6477   2.983   5.327   9.749 -1.2801 -1.3496  0.8081
   73SLPC   C37 6478   3.018   5.128   9.688 -0.4151 -0.0266 -0.6041
   73SLPC   H7X 6479   2.924   5.080   9.724  0.4939 -1.4638 -0.0880
   73SLPC   H7Y 6480   3.099   5.053   9.704 -0.3110  0.6731  2.3868
   73SLPC   C38 6481   3.001   5.166   9.542  0.4793  0.3273  0.6453
   73SLPC   H8X 6482   2.910   5.231   9.548 -0.0166 -0.4342  1.4160
   73SLPC   H8Y 6483   2.990   5.077   9.477 -1.1270  0.6306  0.4615
   73SLPC   C39 6484   3.109   5.254   9.472 -0.5687 -0.4155  0.3080
   73SLPC   H9X 6485   3.209   5.225   9.509 -0.9754  1.8083  3.3619
   73SLPC   H9Y 6486   3.090   5.362   9.493 -0.8155 -0.4521  0.2833
   73SLPC  C310 6487   3.102   5.238   9.313 -1.2187 -0.2053 -0.2250
   73SLPC  H10X 6488   3.098   5.130   9.287  0.0795 -0.5273  0.9048
   73SLPC  H10Y 6489   3.191   5.287   9.268 -0.6870 -0.2302  0.7908
   73SLPC  C311 6490   2.974   5.302   9.262  0.1418 -0.2859 -0.3697
   73SLPC  H11X 6491   2.959   5.400   9.312 -0.8405  0.6575 -2.4567
   73SLPC  H11Y 6492   2.885   5.243   9.291  0.0910 -1.6330 -3.0930
   73SLPC  C312 6493   2.964   5.332   9.113 -0.7790  0.1384 -0.1788
   73SLPC  H12X 6494   2.990   5.242   9.053  2.3662 -0.4826  1.9492
   73SLPC  H12Y 6495   3.045   5.407   9.096 -0.1196 -0.5586 -0.1491
   73SLPC  C313 6496   2.829   5.394   9.071  0.4894 -0.0787 -0.2901
   73SLPC  H13X 6497   2.821   5.492   9.122  0.4340 -0.0458 -0.3598
   73SLPC  H13Y 6498   2.761   5.315   9.108 -0.2595  0.8493  0.3374
   73SLPC  C314 6499   2.803   5.405   8.920  0.2683 -0.0089 -0.6124
   73SLPC  H14X 6500   2.877   5.480   8.884  1.3459 -0.6137  0.3256
   73SLPC  H14Y 6501   2.710   5.464   8.905 -0.6145 -0.5503  2.4542
   73SLPC  C315 6502   2.815   5.279   8.835  0.8398 -0.4968 -0.0476
   73SLPC  H15X 6503   2.911   5.229   8.858  0.4706 -1.5237 -0.6798
   73SLPC  H15Y 6504   2.813   5.302   8.726  1.4647 -1.7656 -0.3372
   73SLPC  C316 6505   2.704   5.168   8.856  0.4801  0.0791  0.3953
   73SLPC  H16X 6506   2.721   5.138   8.961 -0.6556  2.1057  1.1781
   73SLPC  H16Y 6507   2.732   5.076   8.801  3.2452 -0.3150  2.3873
   73SLPC  C317 6508   2.564   5.232   8.825  0.0720  0.1381  0.2459
   73SLPC  H17X 6509   2.566   5.334   8.869 -1.3522  0.4452 -0.3752
   73SLPC  H17Y 6510   2.478   5.173   8.862 -0.6825  0.6193 -0.6962
   73SLPC  C318 6511   2.541   5.241   8.673 -0.1789  0.5076 -0.7395
   73SLPC  H18X 6512   2.630   5.269   8.613  0.7402 -0.5033  0.1437
   73SLPC  H18Y 6513   2.457   5.311   8.652 -0.6130  0.4160  0.6324
   73SLPC  H18Z 6514   2.505   5.146   8.629  2.5152 -0.5229 -0.7682
   74SLPC     N 6515   4.020   0.862  10.832 -0.1647 -0.2357 -0.1999
   74SLPC   C13 6516   4.166   0.902  10.841  0.5987  0.2103 -0.4014
   74SLPC  H13A 6517   4.183   0.990  10.782 -1.4258  1.0054  0.1568
   74SLPC  H13B 6518   4.199   0.915  10.944 -0.7163  0.1333  0.0340
   74SLPC  H13C 6519   4.225   0.821  10.801  0.5530  0.4824 -1.0285
   74SLPC   C14 6520   3.933   0.950  10.914  0.6227 -0.5825  0.3205
   74SLPC  H14A 6521   3.912   1.045  10.868  1.9820 -0.3728  0.1123
   74SLPC  H14B 6522   3.843   0.900  10.946  1.7610 -1.7851  1.7437
   74SLPC  H14C 6523   3.987   0.971  11.005  1.8217 -0.8028 -0.3258
   74SLPC   C15 6524   4.017   0.722  10.889 -0.0299 -0.5494  0.0078
   74SLPC  H15A 6525   4.072   0.718  10.982  1.7468  1.0470 -0.9532
   74SLPC  H15B 6526   3.914   0.705  10.920 -0.5305  0.1413 -1.2407
   74SLPC  H15C 6527   4.059   0.671  10.804  0.6311  0.2204 -0.1334
   74SLPC   C12 6528   3.975   0.851  10.690  0.3357 -0.3222  0.1493
   74SLPC  H12A 6529   3.949   0.948  10.650  1.6368  0.1129  0.3233
   74SLPC  H12B 6530   3.892   0.783  10.694 -1.1873  1.5415  0.6373
   74SLPC   C11 6531   4.083   0.787  10.595  0.1808 -0.0192 -0.7384
   74SLPC  H11A 6532   4.168   0.858  10.586 -0.0538  0.1872 -1.3688
   74SLPC  H11B 6533   4.035   0.779  10.495 -2.1752 -1.3662  0.4465
   74SLPC     P 6534   4.199   0.556  10.546 -0.1116  0.5766 -0.0918
   74SLPC   O13 6535   4.336   0.601  10.542  0.0246 -0.0334  0.0438
   74SLPC   O14 6536   4.170   0.415  10.597 -0.4518 -1.0210  0.0108
   74SLPC   O12 6537   4.114   0.656  10.631 -0.3676 -0.1705 -0.3467
   74SLPC   O11 6538   4.137   0.569  10.408  0.3370  0.1187  0.4991
   74SLPC    C1 6539   4.004   0.520  10.374 -0.2801  1.0185 -0.1887
   74SLPC    HA 6540   4.011   0.410  10.389  0.5453  1.1885  0.7298
   74SLPC    HB 6541   3.931   0.564  10.446  0.2857 -0.1634  1.1305
   74SLPC    C2 6542   3.964   0.551  10.231 -0.6953 -1.1988 -0.3185
   74SLPC    HS 6543   3.875   0.493  10.200 -0.4578  0.5519 -4.6422
   74SLPC   O21 6544   4.075   0.516  10.142  0.7615  0.2675  0.2650
   74SLPC   C21 6545   4.080   0.389  10.116  0.6571  0.3769  0.0134
   74SLPC   O22 6546   4.002   0.299  10.150 -0.4985 -0.3411 -0.4975
   74SLPC   C22 6547   4.207   0.368  10.041 -0.7532 -0.3558 -0.4174
   74SLPC   H2R 6548   4.301   0.351  10.098 -0.7343 -0.4342 -0.4717
   74SLPC   H2S 6549   4.192   0.272   9.987  3.3516 -0.9811 -0.6351
   74SLPC    C3 6550   3.910   0.694  10.216 -0.1629  0.2705  0.1138
   74SLPC    HX 6551   3.982   0.758  10.271 -0.3284  1.0862 -0.6052
   74SLPC    HY 6552   3.811   0.691  10.266 -0.7119  1.9098 -0.8308
   74SLPC   O31 6553   3.896   0.735  10.074 -0.4416  0.8510 -0.4682
   74SLPC   C31 6554   3.994   0.804  10.021  0.1197 -0.1840  0.7806
   74SLPC   O32 6555   4.098   0.843  10.069  0.2745 -0.5209  0.0301
   74SLPC   C32 6556   3.949   0.840   9.875 -0.4699 -0.3894 -0.5881
   74SLPC   H2X 6557   3.879   0.925   9.893  1.2456  0.4907  2.2681
   74SLPC   H2Y 6558   3.901   0.751   9.830 -1.5207  0.4014 -1.0628
   74SLPC   C23 6559   4.233   0.478   9.934 -0.0800  0.1765  0.5056
   74SLPC   H3R 6560   4.321   0.451   9.872 -2.1331 -0.9155 -2.0299
   74SLPC   H3S 6561   4.263   0.577   9.975  0.7918 -0.2664  0.9725
   74SLPC   C24 6562   4.122   0.511   9.821 -0.1877 -0.3276  0.4967
   74SLPC   H4R 6563   4.164   0.591   9.757  2.0985 -1.2228  0.8253
   74SLPC   H4S 6564   4.035   0.547   9.880 -1.3086  1.3336 -2.1023
   74SLPC   C25 6565   4.080   0.389   9.741 -0.3377  0.0840 -0.9903
   74SLPC   H5R 6566   3.999   0.342   9.801 -0.3327  1.1024 -0.1557
   74SLPC   H5S 6567   4.167   0.322   9.724 -1.1249 -1.5907  1.2900
   74SLPC   C26 6568   4.015   0.420   9.596  0.1741  0.6267  0.0466
   74SLPC   H6R 6569   3.974   0.522   9.612 -2.0766 -0.2194 -0.1985
   74SLPC   H6S 6570   3.937   0.342   9.582  0.1100  0.7098 -0.0493
   74SLPC   C27 6571   4.123   0.429   9.492  0.2981 -0.7055 -0.2572
   74SLPC   H7R 6572   4.177   0.332   9.486  1.2820 -0.3437  2.1198
   74SLPC   H7S 6573   4.187   0.513   9.527  0.6755  0.0562 -2.7017
   74SLPC   C28 6574   4.067   0.479   9.349 -0.5358  0.3707 -0.3135
   74SLPC   H8R 6575   4.017   0.578   9.359 -2.4588 -0.6745  0.6888
   74SLPC   H8S 6576   3.995   0.399   9.319  1.6687 -1.9639  0.4473
   74SLPC   C29 6577   4.179   0.493   9.250 -0.5130 -0.7881 -0.1823
   74SLPC   H9R 6578   4.264   0.549   9.294 -1.2113  0.0785  0.0728
   74SLPC  C210 6579   4.199   0.447   9.130 -0.7007  0.1990  0.0603
   74SLPC  H10R 6580   4.294   0.474   9.083 -1.3976 -2.4682 -2.9788
   74SLPC  C211 6581   4.101   0.375   9.037 -0.3415  0.0744  0.8677
   74SLPC  H11R 6582   4.035   0.302   9.089 -0.2905 -1.2321 -0.8349
   74SLPC  H11S 6583   4.157   0.305   8.971 -1.0347  0.0944  0.2485
   74SLPC  C212 6584   3.996   0.461   8.971 -0.2650 -0.6940  0.0223
   74SLPC  H12R 6585   3.965   0.550   9.028  1.3729  0.7347 -1.2356
   74SLPC  C213 6586   3.945   0.434   8.850  0.5135  1.0464 -0.0687
   74SLPC  H13R 6587   3.867   0.503   8.812  0.9533  1.8777  0.5152
   74SLPC  C214 6588   3.977   0.318   8.758 -0.0770  0.3658 -0.2758
   74SLPC  H14R 6589   4.017   0.237   8.824 -0.8356  0.5849  0.4562
   74SLPC  H14S 6590   4.059   0.337   8.685  0.6109  0.7430  0.5789
   74SLPC  C215 6591   3.861   0.272   8.670 -0.3360 -0.3233 -0.2357
   74SLPC  H15R 6592   3.769   0.268   8.733 -0.0699  2.6986  0.4628
   74SLPC  H15S 6593   3.884   0.175   8.624  1.5436 -0.3220  0.6668
   74SLPC  C216 6594   3.829   0.379   8.555 -0.5977  0.2726 -0.2397
   74SLPC  H16R 6595   3.924   0.417   8.511 -1.4306 -0.5172 -2.7942
   74SLPC  H16S 6596   3.773   0.462   8.603 -0.2036  0.5199 -0.1995
   74SLPC  C217 6597   3.753   0.325   8.440 -0.2763 -0.4130 -0.7672
   74SLPC  H17R 6598   3.654   0.304   8.485 -0.3205 -3.0062 -1.9801
   74SLPC  H17S 6599   3.800   0.230   8.407  2.6143  0.3949  0.8872
   74SLPC  C218 6600   3.732   0.421   8.321 -0.0882 -0.0501  0.0418
   74SLPC  H18R 6601   3.652   0.384   8.253 -2.1445 -0.9436  2.7956
   74SLPC  H18S 6602   3.826   0.435   8.265  0.0126  0.4420  0.3368
   74SLPC  H18T 6603   3.695   0.520   8.356  2.1494  1.3989 -1.5845
   74SLPC   C33 6604   4.068   0.885   9.782 -0.0268  0.0677  0.7394
   74SLPC   H3X 6605   4.150   0.813   9.803  1.0856  1.4118  1.1555
   74SLPC   H3Y 6606   4.122   0.980   9.803  0.4217  0.1570 -0.7257
   74SLPC   C34 6607   4.025   0.887   9.636 -0.4760 -0.2030  0.0049
   74SLPC   H4X 6608   3.948   0.964   9.614  1.4093  1.1934 -1.9189
   74SLPC   H4Y 6609   3.999   0.784   9.604  2.8064 -0.8577 -0.7122
   74SLPC   C35 6610   4.151   0.927   9.551  0.0883  0.2902  0.6935
   74SLPC   H5X 6611   4.241   0.866   9.573 -1.3809 -2.3528 -0.3985
   74SLPC   H5Y 6612   4.184   1.033   9.564  1.9987 -0.2253  0.1765
   74SLPC   C36 6613   4.114   0.900   9.406 -0.0900 -0.2931  0.6649
   74SLPC   H6X 6614   4.026   0.965   9.388 -1.0296 -1.3759  1.2395
   74SLPC   H6Y 6615   4.064   0.801   9.400 -0.2167 -0.2752  1.3394
   74SLPC   C37 6616   4.229   0.893   9.298  0.4718  0.4564  0.7530
   74SLPC   H7X 6617   4.289   0.807   9.332  0.8022  0.6147  0.5753
   74SLPC   H7Y 6618   4.280   0.992   9.287 -2.1798  1.6524 -1.3061
   74SLPC   C38 6619   4.171   0.870   9.155  0.1502 -0.0710 -0.6970
   74SLPC   H8X 6620   4.145   0.763   9.151 -1.2230  0.2327 -0.1109
   74SLPC   H8Y 6621   4.254   0.890   9.084  0.9094  0.3937  0.2974
   74SLPC   C39 6622   4.071   0.980   9.120 -0.1445 -0.2177  0.3955
   74SLPC   H9X 6623   4.113   1.083   9.128  2.0566 -1.0921  0.5500
   74SLPC   H9Y 6624   3.980   0.976   9.183  0.9824 -1.4682  1.9816
   74SLPC  C310 6625   4.034   0.984   8.969  0.6222  0.1385 -0.0918
   74SLPC  H10X 6626   3.974   0.894   8.942  0.2798  0.3233  0.0581
   74SLPC  H10Y 6627   4.127   0.972   8.909  1.7831 -2.8700  2.1457
   74SLPC  C311 6628   3.947   1.102   8.913 -0.4712  0.7000  0.2738
   74SLPC  H11X 6629   3.993   1.198   8.942 -0.0608  0.3899  0.6612
   74SLPC  H11Y 6630   3.851   1.100   8.970 -1.1590 -3.2533 -0.8452
   74SLPC  C312 6631   3.909   1.097   8.765 -0.1019 -0.3041 -0.9039
   74SLPC  H12X 6632   3.839   1.018   8.730 -0.4712 -1.1760  1.6313
   74SLPC  H12Y 6633   4.003   1.074   8.710 -0.0195  0.8604 -1.2446
   74SLPC  C313 6634   3.850   1.227   8.710 -0.0698  0.0071 -0.2072
   74SLPC  H13X 6635   3.851   1.221   8.599  1.1367 -1.8520 -0.1207
   74SLPC  H13Y 6636   3.916   1.315   8.725  0.5501 -0.0909 -2.2985
   74SLPC  C314 6637   3.703   1.264   8.745 -0.1163 -0.0603  0.5074
   74SLPC  H14X 6638   3.686   1.297   8.850  2.6124  2.0041  0.3738
   74SLPC  H14Y 6639   3.632   1.181   8.724  0.6926 -1.5230  3.3102
   74SLPC  C315 6640   3.653   1.382   8.658  0.2817 -0.4889  0.1817
   74SLPC  H15X 6641   3.671   1.363   8.550  4.0977 -0.9440  0.8072
   74SLPC  H15Y 6642   3.711   1.475   8.679 -0.9931  0.5467 -0.8011
   74SLPC  C316 6643   3.508   1.423   8.690  0.6087  0.3424  1.3536
   74SLPC  H16X 6644   3.508   1.455   8.797 -0.1518  0.3789  1.3459
   74SLPC  H16Y 6645   3.436   1.339   8.682  1.0404  0.1558 -1.0926
   74SLPC  C317 6646   3.444   1.539   8.606  0.9909  0.1573 -0.2956
   74SLPC  H17X 6647   3.451   1.520   8.496  0.1694 -1.2893 -0.1177
   74SLPC  H17Y 6648   3.497   1.636   8.616  0.8343  0.0791  1.4040
   74SLPC  C318 6649   3.301   1.572   8.636  0.2948  0.1258  0.7499
   74SLPC  H18X 6650   3.290   1.606   8.741 -0.5124 -2.4516  1.5338
   74SLPC  H18Y 6651   3.234   1.487   8.610 -1.4112  2.1711 -1.7559
   74SLPC  H18Z 6652   3.275   1.656   8.568 -1.8961 -1.2515 -0.1588
   75SLPC     N 6653   2.242   4.261   6.308  0.2198 -0.0342 -0.1413
   75SLPC   C13 6654   2.376   4.240   6.356 -0.6726 -0.2300  0.3197
   75SLPC  H13A 6655   2.402   4.266   6.458 -0.5293 -0.0738  0.2434
   75SLPC  H13B 6656   2.413   4.140   6.338 -2.0963 -0.6715 -0.2473
   75SLPC  H13C 6657   2.442   4.307   6.303 -1.8926  0.8602  0.1656
   75SLPC   C14 6658   2.226   4.209   6.174 -0.0782 -0.1615  0.3565
   75SLPC  H14A 6659   2.126   4.224   6.136  0.0323  0.2810  0.2300
   75SLPC  H14B 6660   2.299   4.259   6.112 -0.9063  2.1084  1.1441
   75SLPC  H14C 6661   2.247   4.103   6.177 -0.8278 -0.2870  1.4394
   75SLPC   C15 6662   2.213   4.409   6.314 -0.7939  0.3895 -0.1828
   75SLPC  H15A 6663   2.275   4.467   6.247 -1.2593  0.2106 -0.7774
   75SLPC  H15B 6664   2.111   4.415   6.278 -0.5565 -0.9592 -1.1266
   75SLPC  H15C 6665   2.229   4.444   6.414 -0.1656 -2.0733  0.5936
   75SLPC   C12 6666   2.139   4.190   6.404 -0.3232  0.2893 -0.0062
   75SLPC  H12A 6667   2.044   4.227   6.369 -0.0404  2.0773  1.0087
   75SLPC  H12B 6668   2.153   4.229   6.504  1.1663 -1.1989  0.3867
   75SLPC   C11 6669   2.132   4.041   6.416 -0.7257  0.1041  0.7702
   75SLPC  H11A 6670   2.136   3.989   6.318  2.7105  0.9284  0.3888
   75SLPC  H11B 6671   2.042   3.994   6.461  1.5919 -1.3139  4.2252
   75SLPC     P 6672   2.282   4.024   6.640 -0.3603 -0.4706 -0.0496
   75SLPC   O13 6673   2.399   3.935   6.682  0.1688 -0.1683  0.6278
   75SLPC   O14 6674   2.286   4.166   6.666 -0.5282  0.3271 -0.2339
   75SLPC   O12 6675   2.249   3.995   6.489  0.2801 -0.1186 -0.4154
   75SLPC   O11 6676   2.152   3.966   6.723 -0.0164 -0.2066  0.2313
   75SLPC    C1 6677   2.032   4.033   6.734  0.0898  0.4282 -0.4494
   75SLPC    HA 6678   2.032   4.125   6.671 -0.8668  0.9223  0.2615
   75SLPC    HB 6679   1.955   3.970   6.685  0.8757 -0.7109 -0.2240
   75SLPC    C2 6680   1.980   4.070   6.874  0.5641 -0.4359  0.3048
   75SLPC    HS 6681   1.898   4.142   6.852  0.0734 -0.7379  1.1533
   75SLPC   O21 6682   2.090   4.136   6.944 -0.0165 -0.1585  0.1166
   75SLPC   C21 6683   2.110   4.263   6.922 -1.1315  0.5588 -0.2966
   75SLPC   O22 6684   2.048   4.330   6.842  0.0003  0.1730 -0.0312
   75SLPC   C22 6685   2.246   4.310   6.985  0.9418  0.4271  0.2115
   75SLPC   H2R 6686   2.265   4.249   7.076  0.0362  0.1336  0.2025
   75SLPC   H2S 6687   2.323   4.281   6.910  0.9220 -1.0163  0.7348
   75SLPC    C3 6688   1.930   3.933   6.943  0.3150  0.1129  0.9727
   75SLPC    HX 6689   2.013   3.860   6.948  1.8458  1.5155 -2.2849
   75SLPC    HY 6690   1.850   3.884   6.884  2.3011 -3.3050  1.0388
   75SLPC   O31 6691   1.889   3.961   7.080  0.1367 -0.7857 -0.1654
   75SLPC   C31 6692   1.977   3.969   7.179 -0.4149 -0.0481 -0.1371
   75SLPC   O32 6693   2.096   3.947   7.161 -0.2855 -0.1112  0.2491
   75SLPC   C32 6694   1.914   4.026   7.308  0.1336 -0.6255  0.0287
   75SLPC   H2X 6695   1.812   3.986   7.324 -0.2208 -0.2712 -1.3031
   75SLPC   H2Y 6696   1.902   4.134   7.284  1.3242 -0.4177  0.2943
   75SLPC   C23 6697   2.243   4.460   7.010  0.3942  0.4898  0.6175
   75SLPC   H3R 6698   2.219   4.515   6.916 -0.3813 -1.5953 -0.4262
   75SLPC   H3S 6699   2.343   4.504   7.033  0.5464  0.9021 -0.7938
   75SLPC   C24 6700   2.162   4.497   7.135  0.7741  0.1759 -0.1224
   75SLPC   H4R 6701   2.052   4.488   7.123  0.7538 -0.1499  0.3169
   75SLPC   H4S 6702   2.181   4.607   7.141  1.5670  0.1190 -1.3534
   75SLPC   C25 6703   2.189   4.427   7.264 -0.1431 -0.4287 -0.3227
   75SLPC   H5R 6704   2.299   4.418   7.262 -0.0555  0.5379 -0.1531
   75SLPC   H5S 6705   2.158   4.321   7.275 -1.3402 -0.0535  0.0655
   75SLPC   C26 6706   2.135   4.508   7.385 -0.2078  0.0400 -0.6542
   75SLPC   H6R 6707   2.026   4.492   7.371 -0.3239 -0.3704  0.6515
   75SLPC   H6S 6708   2.157   4.616   7.373 -0.3613  0.1185 -0.2300
   75SLPC   C27 6709   2.175   4.462   7.523  0.5189 -0.8504  0.4355
   75SLPC   H7R 6710   2.278   4.501   7.537  0.2338 -0.1596  0.6441
   75SLPC   H7S 6711   2.193   4.352   7.531  0.9686 -0.7409  0.9818
   75SLPC   C28 6712   2.085   4.513   7.630 -0.2796 -0.5742  0.7310
   75SLPC   H8R 6713   1.979   4.482   7.619 -0.1218 -0.8643  0.0337
   75SLPC   H8S 6714   2.082   4.624   7.628  3.1569 -0.4028  1.7981
   75SLPC   C29 6715   2.128   4.473   7.766 -0.1646  0.8308 -0.3349
   75SLPC   H9R 6716   2.227   4.513   7.790  0.8830  0.0851 -3.2256
   75SLPC  C210 6717   2.060   4.402   7.858 -0.0599  0.2802  0.0634
   75SLPC  H10R 6718   2.109   4.380   7.954  0.0835 -1.3103 -0.3587
   75SLPC  C211 6719   1.918   4.352   7.845 -0.3433 -0.7790 -0.3055
   75SLPC  H11R 6720   1.855   4.411   7.776  2.3136  1.8848 -0.5554
   75SLPC  H11S 6721   1.873   4.367   7.945  0.2042 -1.8188  0.1041
   75SLPC  C212 6722   1.918   4.204   7.808  0.3081 -0.1063 -0.2726
   75SLPC  H12R 6723   1.971   4.178   7.715  0.6484  1.0507 -0.4127
   75SLPC  C213 6724   1.841   4.112   7.860  0.2147 -0.6063  0.3624
   75SLPC  H13R 6725   1.839   4.009   7.821  0.6877  0.2351 -1.9673
   75SLPC  C214 6726   1.750   4.143   7.975 -1.2355 -1.3854  0.1099
   75SLPC  H14R 6727   1.675   4.061   7.980 -0.3233 -2.3271 -1.1241
   75SLPC  H14S 6728   1.690   4.228   7.939  0.9364 -0.2306 -0.9157
   75SLPC  C215 6729   1.825   4.154   8.110  0.1880 -0.9428 -0.4115
   75SLPC  H15R 6730   1.901   4.234   8.107  0.2947 -1.0151  0.2042
   75SLPC  H15S 6731   1.877   4.056   8.114 -0.7052 -1.5371 -2.5918
   75SLPC  C216 6732   1.736   4.161   8.231 -0.4160 -0.0531 -0.6657
   75SLPC  H16R 6733   1.672   4.071   8.247  1.2478 -1.0193  0.7675
   75SLPC  H16S 6734   1.670   4.250   8.221  0.5824  0.6325 -1.2851
   75SLPC  C217 6735   1.808   4.181   8.366  0.1945  0.6441  0.6590
   75SLPC  H17R 6736   1.899   4.243   8.353  0.1253  0.3744 -1.1860
   75SLPC  H17S 6737   1.850   4.082   8.393  2.2167  0.7482 -1.9719
   75SLPC  C218 6738   1.726   4.235   8.481  0.4808 -0.7185 -0.6836
   75SLPC  H18R 6739   1.788   4.237   8.573  1.2663 -2.0904 -1.1642
   75SLPC  H18S 6740   1.638   4.170   8.497 -1.5705  2.0323 -0.5243
   75SLPC  H18T 6741   1.687   4.335   8.453  0.1884 -0.5355  0.3663
   75SLPC   C33 6742   2.001   4.014   7.430 -0.2135  0.1068 -0.3510
   75SLPC   H3X 6743   2.094   4.074   7.412 -2.0054  2.9659 -0.3828
   75SLPC   H3Y 6744   1.936   4.054   7.510 -1.7791 -0.2039 -1.4555
   75SLPC   C34 6745   2.027   3.864   7.480  0.6475  0.4189  0.3028
   75SLPC   H4X 6746   2.134   3.843   7.457 -0.0363 -1.3685 -1.4096
   75SLPC   H4Y 6747   1.964   3.804   7.411 -1.2990 -0.7657  3.0491
   75SLPC   C35 6748   2.023   3.853   7.634 -0.1681 -0.1237  0.0726
   75SLPC   H5X 6749   1.966   3.928   7.691  0.8035 -1.1465  2.4599
   75SLPC   H5Y 6750   2.131   3.853   7.660  0.2755 -0.9437 -1.6786
   75SLPC   C36 6751   1.979   3.718   7.686 -0.0343 -0.6351 -0.3478
   75SLPC   H6X 6752   2.023   3.641   7.618  2.3928  0.1620  0.2825
   75SLPC   H6Y 6753   1.869   3.718   7.668  0.3766  1.9328 -3.4251
   75SLPC   C37 6754   2.022   3.687   7.830 -0.0319  0.3426  0.0060
   75SLPC   H7X 6755   1.964   3.765   7.885  0.5623  0.6684  0.1806
   75SLPC   H7Y 6756   2.133   3.696   7.828 -0.1310  1.3818 -1.4104
   75SLPC   C38 6757   1.992   3.550   7.878 -0.6119  0.3368 -0.4659
   75SLPC   H8X 6758   2.037   3.476   7.809  2.0752  0.7412  0.7856
   75SLPC   H8Y 6759   1.881   3.538   7.879 -0.4741 -1.0017 -0.6959
   75SLPC   C39 6760   2.025   3.526   8.024  0.1916  0.1862  0.4517
   75SLPC   H9X 6761   1.954   3.591   8.081 -2.7307 -2.3300 -0.1582
   75SLPC   H9Y 6762   2.126   3.561   8.053  0.2258  1.2614 -0.9176
   75SLPC  C310 6763   1.993   3.375   8.059 -0.4236 -0.7880  0.4442
   75SLPC  H10X 6764   2.083   3.315   8.036  0.7784  0.5340  1.6026
   75SLPC  H10Y 6765   1.907   3.349   7.994 -1.4567  1.8641  0.6859
   75SLPC  C311 6766   1.943   3.359   8.195  0.4759  0.2428  0.2262
   75SLPC  H11X 6767   1.908   3.254   8.205  0.1391  0.5805  2.7184
   75SLPC  H11Y 6768   1.852   3.418   8.217  1.0751  0.9156  0.9173
   75SLPC  C312 6769   2.037   3.387   8.312 -0.1658  0.3645 -0.2836
   75SLPC  H12X 6770   2.059   3.496   8.320  2.6235 -0.2213  0.6425
   75SLPC  H12Y 6771   2.136   3.337   8.299  1.4280  3.2577  0.1256
   75SLPC  C313 6772   1.980   3.331   8.447 -0.4946  0.5826 -0.1249
   75SLPC  H13X 6773   2.016   3.227   8.469 -0.3237  0.9008  1.1854
   75SLPC  H13Y 6774   1.870   3.332   8.430 -0.8887  0.3847  2.1886
   75SLPC  C314 6775   1.998   3.417   8.572 -0.5458 -0.0844  0.3979
   75SLPC  H14X 6776   1.988   3.523   8.541 -0.1652 -0.2740 -0.3870
   75SLPC  H14Y 6777   2.092   3.394   8.626 -0.6091 -0.2931  0.4199
   75SLPC  C315 6778   1.885   3.403   8.684 -0.6743  0.0261 -0.1766
   75SLPC  H15X 6779   1.882   3.294   8.705 -0.3843  0.2061  0.8230
   75SLPC  H15Y 6780   1.792   3.440   8.636 -1.7050 -3.4050 -0.9545
   75SLPC  C316 6781   1.914   3.485   8.810  0.3640  0.0872  0.1802
   75SLPC  H16X 6782   1.953   3.584   8.776 -0.6981 -0.1113 -1.6233
   75SLPC  H16Y 6783   2.000   3.435   8.860  0.8280 -1.0811 -1.7560
   75SLPC  C317 6784   1.802   3.501   8.910  0.6557 -0.1571 -0.0245
   75SLPC  H17X 6785   1.745   3.407   8.923  0.1612  0.1216 -0.1271
   75SLPC  H17Y 6786   1.724   3.574   8.878  0.3008  0.3467  1.9354
   75SLPC  C318 6787   1.857   3.548   9.038 -0.0577 -0.0120 -0.8619
   75SLPC  H18X 6788   1.954   3.498   9.057 -0.0414 -0.3915 -1.9270
   75SLPC  H18Y 6789   1.788   3.512   9.118  2.1426  0.1221  1.1609
   75SLPC  H18Z 6790   1.865   3.657   9.058  1.0405 -0.1377 -0.5923
   76SLPC     N 6791   4.542   2.471   6.018  0.4504  0.5759  0.3988
   76SLPC   C13 6792   4.673   2.417   6.058 -0.3039  0.2198  1.3274
   76SLPC  H13A 6793   4.754   2.471   6.012 -0.8281 -0.3804 -0.3457
   76SLPC  H13B 6794   4.693   2.430   6.164 -1.6002 -1.4125  1.7965
   76SLPC  H13C 6795   4.700   2.323   6.013 -1.4730 -0.1364  1.3420
   76SLPC   C14 6796   4.445   2.403   6.105  0.2800  0.4153  0.2384
   76SLPC  H14A 6797   4.349   2.452   6.103  0.6024  1.1703  1.7973
   76SLPC  H14B 6798   4.421   2.299   6.088 -0.9572  0.5573  1.0581
   76SLPC  H14C 6799   4.474   2.407   6.209 -2.0541  1.2597  0.8879
   76SLPC   C15 6800   4.518   2.436   5.882  0.7652  0.3526  0.0166
   76SLPC  H15A 6801   4.497   2.331   5.872 -1.3224  0.9716 -2.7381
   76SLPC  H15B 6802   4.429   2.483   5.842 -1.3679 -2.3544  1.4703
   76SLPC  H15C 6803   4.595   2.477   5.818 -1.0136  0.7828 -1.9057
   76SLPC   C12 6804   4.532   2.623   6.034 -0.7410 -0.1256  0.2991
   76SLPC  H12A 6805   4.615   2.659   5.976 -0.2189  0.0161  1.1250
   76SLPC  H12B 6806   4.554   2.645   6.137 -0.3318 -1.7280  0.5788
   76SLPC   C11 6807   4.398   2.690   5.985 -0.7256  0.0232 -0.7653
   76SLPC  H11A 6808   4.382   2.655   5.880 -1.1353 -0.2502 -0.6124
   76SLPC  H11B 6809   4.409   2.800   5.984 -1.6473  0.1685  1.8504
   76SLPC     P 6810   4.247   2.732   6.190 -0.7219 -0.1451  0.0167
   76SLPC   O13 6811   4.362   2.747   6.279  0.1904 -0.0651  0.0634
   76SLPC   O14 6812   4.168   2.850   6.145 -0.1652 -0.7105  0.2438
   76SLPC   O12 6813   4.284   2.647   6.063  0.2720  0.1845 -0.0888
   76SLPC   O11 6814   4.151   2.629   6.249  0.3073  0.2324  0.0877
   76SLPC    C1 6815   4.067   2.652   6.361 -0.4235 -0.3391  0.2379
   76SLPC    HA 6816   4.080   2.751   6.408  0.8561  0.0207 -0.8505
   76SLPC    HB 6817   3.966   2.648   6.314  0.2479  0.9325 -1.3376
   76SLPC    C2 6818   4.084   2.541   6.464  0.0862  0.2463 -0.4639
   76SLPC    HS 6819   4.000   2.542   6.537 -0.1800  0.4303 -0.7742
   76SLPC   O21 6820   4.205   2.557   6.540 -0.0616  0.3553  0.2487
   76SLPC   C21 6821   4.217   2.664   6.612  0.6145 -0.7626 -0.7309
   76SLPC   O22 6822   4.126   2.744   6.632 -0.3664  0.7118 -0.3061
   76SLPC   C22 6823   4.362   2.678   6.660  0.5127  0.0949 -0.0107
   76SLPC   H2R 6824   4.402   2.574   6.666  0.9760  0.2989  0.4390
   76SLPC   H2S 6825   4.412   2.743   6.585 -1.1410  1.9601  0.4729
   76SLPC    C3 6826   4.097   2.398   6.403 -0.1865 -0.3164 -0.5223
   76SLPC    HX 6827   4.184   2.394   6.334 -0.6653  0.4956 -1.1816
   76SLPC    HY 6828   4.011   2.386   6.335 -0.9934 -0.4459  0.5071
   76SLPC   O31 6829   4.104   2.289   6.503  0.7995 -0.1905 -0.1258
   76SLPC   C31 6830   3.984   2.269   6.572  0.4695 -0.0418 -0.2115
   76SLPC   O32 6831   3.878   2.316   6.539  0.6401  0.3110 -0.1887
   76SLPC   C32 6832   4.014   2.205   6.713 -0.2563  0.2257  0.2990
   76SLPC   H2X 6833   4.015   2.094   6.705 -1.8254  0.1715  0.7839
   76SLPC   H2Y 6834   3.932   2.224   6.784 -0.6805 -0.6866  0.0594
   76SLPC   C23 6835   4.361   2.751   6.794 -0.0676  0.1501  0.3683
   76SLPC   H3R 6836   4.321   2.694   6.881  0.1118 -0.1033  0.2859
   76SLPC   H3S 6837   4.289   2.835   6.779 -0.7674 -0.6011 -0.5610
   76SLPC   C24 6838   4.498   2.803   6.839 -0.9578  0.4765  0.8597
   76SLPC   H4R 6839   4.554   2.865   6.766  1.4765 -1.8992  0.6167
   76SLPC   H4S 6840   4.558   2.709   6.846 -0.5767  0.2999 -3.3622
   76SLPC   C25 6841   4.501   2.888   6.965 -0.7853  0.2144 -0.4424
   76SLPC   H5R 6842   4.465   2.990   6.942  0.0253  0.3542 -1.1220
   76SLPC   H5S 6843   4.608   2.906   6.992 -1.2489  1.0623  0.8868
   76SLPC   C26 6844   4.429   2.828   7.088 -0.1790 -0.0388  0.0254
   76SLPC   H6R 6845   4.462   2.724   7.110 -0.4247  0.1643  1.3967
   76SLPC   H6S 6846   4.318   2.816   7.090 -0.3643  1.6617  0.3661
   76SLPC   C27 6847   4.444   2.920   7.212  0.6265 -0.2896  0.6144
   76SLPC   H7R 6848   4.417   3.024   7.186 -0.6924 -0.1800  2.3058
   76SLPC   H7S 6849   4.554   2.923   7.229  0.6871  0.4977  0.0767
   76SLPC   C28 6850   4.360   2.884   7.331 -0.4581 -0.2311 -0.7386
   76SLPC   H8R 6851   4.257   2.869   7.290 -2.0782  1.7896  2.3979
   76SLPC   H8S 6852   4.395   2.785   7.367  0.1810 -0.6739 -2.5286
   76SLPC   C29 6853   4.339   2.989   7.441  0.6584  0.1139  0.0324
   76SLPC   H9R 6854   4.286   3.085   7.429  0.9575  0.5406  1.9301
   76SLPC  C210 6855   4.408   2.978   7.559 -0.0226 -0.0485 -0.2700
   76SLPC  H10R 6856   4.383   3.056   7.633  1.0275  0.3819 -0.3653
   76SLPC  C211 6857   4.506   2.885   7.605  0.2793 -0.1569 -0.2246
   76SLPC  H11R 6858   4.550   2.941   7.690  0.9665  0.6140 -1.0775
   76SLPC  H11S 6859   4.586   2.874   7.529 -0.4653 -0.6815 -0.9372
   76SLPC  C212 6860   4.446   2.756   7.659 -0.3674  0.0392 -0.6867
   76SLPC  H12R 6861   4.433   2.682   7.579  0.3207 -0.3751 -0.4213
   76SLPC  C213 6862   4.411   2.725   7.786 -0.0185 -0.5998 -0.1248
   76SLPC  H13R 6863   4.364   2.630   7.817  1.4767 -0.4233  2.8891
   76SLPC  C214 6864   4.432   2.818   7.912  0.0586 -0.0175 -0.6778
   76SLPC  H14R 6865   4.484   2.908   7.873  0.1454  0.6504  0.9611
   76SLPC  H14S 6866   4.505   2.773   7.982  2.0939 -1.1739 -3.4543
   76SLPC  C215 6867   4.307   2.878   7.989  0.6339 -0.5132 -0.0520
   76SLPC  H15R 6868   4.242   2.929   7.914  1.5513 -0.6726 -0.9641
   76SLPC  H15S 6869   4.337   2.964   8.051 -1.4169  0.9369 -1.0001
   76SLPC  C216 6870   4.227   2.790   8.078 -0.1235 -0.0496 -0.6125
   76SLPC  H16R 6871   4.294   2.754   8.159  0.8942 -2.1403 -2.3397
   76SLPC  H16S 6872   4.191   2.705   8.017 -1.7544  2.5071 -3.3720
   76SLPC  C217 6873   4.109   2.865   8.148  1.1348 -0.0040  0.6244
   76SLPC  H17R 6874   4.038   2.904   8.071  2.8556  2.1335  0.0618
   76SLPC  H17S 6875   4.155   2.946   8.208 -2.0254  1.7877  0.7465
   76SLPC  C218 6876   4.042   2.772   8.255 -0.1466 -0.0587 -0.0699
   76SLPC  H18R 6877   3.957   2.824   8.303 -0.3856 -0.9456  0.4713
   76SLPC  H18S 6878   4.118   2.743   8.331 -0.2737 -0.8448 -0.2345
   76SLPC  H18T 6879   4.009   2.679   8.204 -0.4420  1.2628 -2.3573
   76SLPC   C33 6880   4.148   2.265   6.771  0.2744  0.5435 -0.3837
   76SLPC   H3X 6881   4.158   2.373   6.748  0.3779  1.1029  2.0948
   76SLPC   H3Y 6882   4.237   2.221   6.720 -0.5377  0.9670 -2.1948
   76SLPC   C34 6883   4.157   2.244   6.922 -0.1152 -0.5639  0.3259
   76SLPC   H4X 6884   4.158   2.137   6.953  0.4025 -1.4623 -2.6182
   76SLPC   H4Y 6885   4.068   2.297   6.962 -0.0318  0.8579 -1.3158
   76SLPC   C35 6886   4.272   2.308   6.997  0.0400  0.3367  0.0608
   76SLPC   H5X 6887   4.272   2.416   6.969 -2.1853  0.3064 -0.1425
   76SLPC   H5Y 6888   4.365   2.265   6.955  0.8085  1.0162  1.0561
   76SLPC   C36 6889   4.260   2.305   7.144  0.1308 -0.0068  0.9042
   76SLPC   H6X 6890   4.234   2.202   7.178 -1.3821 -0.8071 -2.5195
   76SLPC   H6Y 6891   4.179   2.376   7.169  0.3005  0.6632 -0.4533
   76SLPC   C37 6892   4.390   2.341   7.218  0.8484 -0.1960 -0.3864
   76SLPC   H7X 6893   4.413   2.449   7.221  0.5003 -0.1102 -0.8836
   76SLPC   H7Y 6894   4.477   2.303   7.160  0.3029  1.0732 -2.0660
   76SLPC   C38 6895   4.410   2.290   7.364  0.0389  0.6019  0.7719
   76SLPC   H8X 6896   4.516   2.308   7.393  0.3728  0.3320 -0.2377
   76SLPC   H8Y 6897   4.398   2.179   7.359  3.4506  0.2184 -0.0310
   76SLPC   C39 6898   4.320   2.349   7.469  0.4040  0.0228  0.6804
   76SLPC   H9X 6899   4.216   2.349   7.429  1.3260  1.4854 -1.8167
   76SLPC   H9Y 6900   4.343   2.454   7.498  0.3231 -0.3085  2.0160
   76SLPC  C310 6901   4.333   2.271   7.608  0.3491 -0.1260  0.5600
   76SLPC  H10X 6902   4.438   2.245   7.630  0.2193  0.1578  1.5175
   76SLPC  H10Y 6903   4.281   2.176   7.582  1.9007 -0.7084 -0.4920
   76SLPC  C311 6904   4.265   2.336   7.730  0.0144  0.5013 -0.0700
   76SLPC  H11X 6905   4.163   2.371   7.706 -0.2682 -0.8740 -0.9242
   76SLPC  H11Y 6906   4.323   2.429   7.746  1.5489 -0.6371  1.2327
   76SLPC  C312 6907   4.284   2.252   7.859 -0.3962 -0.5783  0.2870
   76SLPC  H12X 6908   4.384   2.203   7.852 -0.5776 -1.1416  1.4628
   76SLPC  H12Y 6909   4.206   2.174   7.861 -0.0667 -0.9292 -0.4068
   76SLPC  C313 6910   4.278   2.337   7.992  0.0802  0.4274 -1.4569
   76SLPC  H13X 6911   4.178   2.386   7.998 -0.0536  0.2267 -2.0910
   76SLPC  H13Y 6912   4.352   2.419   7.981  0.5918  0.3675  1.1044
   76SLPC  C314 6913   4.296   2.253   8.123 -0.3900 -0.0103 -1.1422
   76SLPC  H14X 6914   4.317   2.329   8.201  3.1566 -1.1942 -0.8284
   76SLPC  H14Y 6915   4.393   2.201   8.103 -0.4828 -1.5663  2.1732
   76SLPC  C315 6916   4.190   2.161   8.169  0.1800  0.6468 -0.4644
   76SLPC  H15X 6917   4.190   2.065   8.112  1.6709 -0.0332  0.6457
   76SLPC  H15Y 6918   4.094   2.215   8.150 -0.7864 -0.9461 -0.2249
   76SLPC  C316 6919   4.187   2.131   8.321  0.3380 -0.1254  0.2603
   76SLPC  H16X 6920   4.117   2.048   8.345  1.1768 -0.9515 -0.1658
   76SLPC  H16Y 6921   4.147   2.215   8.382  0.4811 -1.1491  1.7959
   76SLPC  C317 6922   4.324   2.087   8.381  0.1026 -0.4405 -0.4879
   76SLPC  H17X 6923   4.313   2.075   8.491  0.7856 -2.7698 -0.6627
   76SLPC  H17Y 6924   4.397   2.170   8.369 -0.1832 -0.2313 -0.7754
   76SLPC  C318 6925   4.382   1.963   8.315  0.0808  0.1516  0.2572
   76SLPC  H18X 6926   4.483   1.945   8.357  0.9061  0.4103 -1.5599
   76SLPC  H18Y 6927   4.405   1.990   8.210  0.2135 -2.5992 -0.4570
   76SLPC  H18Z 6928   4.314   1.876   8.320 -0.9862  0.9780  0.2943
   77SLPC     N 6929   1.033   2.390   6.123  0.0638  1.1860 -0.2941
   77SLPC   C13 6930   1.063   2.518   6.046 -0.2544  0.0536  0.2154
   77SLPC  H13A 6931   1.082   2.496   5.942 -0.5924  1.3923 -0.1340
   77SLPC  H13B 6932   0.981   2.587   6.061  1.2635  1.8717  0.3124
   77SLPC  H13C 6933   1.152   2.568   6.080 -0.9485  1.0318  0.6128
   77SLPC   C14 6934   1.152   2.302   6.144 -0.1089 -1.1492 -0.0839
   77SLPC  H14A 6935   1.121   2.202   6.172  1.4105 -2.0973 -1.7027
   77SLPC  H14B 6936   1.213   2.299   6.056  0.8689  1.1272  0.4891
   77SLPC  H14C 6937   1.222   2.337   6.219  1.2505 -0.0454 -1.8375
   77SLPC   C15 6938   0.939   2.321   6.035 -0.2605 -1.1865  0.1057
   77SLPC  H15A 6939   0.974   2.311   5.933 -0.3334  2.3443 -0.3107
   77SLPC  H15B 6940   0.915   2.223   6.073  0.0815 -0.4258  2.2983
   77SLPC  H15C 6941   0.848   2.379   6.027 -1.4703 -3.0221  0.1178
   77SLPC   C12 6942   0.962   2.420   6.253  0.1164  0.3432 -0.1369
   77SLPC  H12A 6943   1.027   2.480   6.314  0.3859  2.0643 -2.0702
   77SLPC  H12B 6944   0.933   2.325   6.296  1.2441  0.4325  0.8265
   77SLPC   C11 6945   0.836   2.505   6.239  0.3067 -0.1281 -0.5808
   77SLPC  H11A 6946   0.765   2.447   6.176 -0.7987  1.0339 -0.4352
   77SLPC  H11B 6947   0.851   2.598   6.180  0.1988 -0.3507 -0.9656
   77SLPC     P 6948   0.829   2.625   6.472 -0.4628 -0.0001  0.0239
   77SLPC   O13 6949   0.970   2.655   6.447  0.0464  0.3440 -0.3939
   77SLPC   O14 6950   0.731   2.738   6.490 -0.9312  0.4848  0.2758
   77SLPC   O12 6951   0.774   2.515   6.368 -0.1805 -0.0742  0.1302
   77SLPC   O11 6952   0.816   2.553   6.610  0.5072 -0.6957  1.0840
   77SLPC    C1 6953   0.840   2.419   6.626 -0.9617 -0.0191  0.3524
   77SLPC    HA 6954   0.779   2.352   6.561 -1.5457 -0.2515  1.1322
   77SLPC    HB 6955   0.950   2.406   6.616 -0.7983  1.1835  0.4540
   77SLPC    C2 6956   0.801   2.367   6.770 -0.0911  0.7217  0.5838
   77SLPC    HS 6957   0.699   2.401   6.797  0.4316  1.2090  2.0053
   77SLPC   O21 6958   0.897   2.410   6.866  0.4458 -0.4157  0.0583
   77SLPC   C21 6959   0.881   2.530   6.927  0.3035 -0.5486 -0.1727
   77SLPC   O22 6960   0.787   2.603   6.897 -0.7586 -0.2629  0.5202
   77SLPC   C22 6961   0.985   2.549   7.029 -0.1268  0.2109  0.4674
   77SLPC   H2R 6962   1.073   2.484   7.010  0.0934  1.0577 -1.5350
   77SLPC   H2S 6963   1.024   2.651   7.011 -0.1690  0.3994  1.4087
   77SLPC    C3 6964   0.800   2.214   6.776 -0.0456 -0.8053 -0.1086
   77SLPC    HX 6965   0.906   2.185   6.793  0.0638 -0.7740 -0.7528
   77SLPC    HY 6966   0.759   2.174   6.681 -2.4562  1.6149 -0.1632
   77SLPC   O31 6967   0.728   2.163   6.892  0.1607 -0.1535 -0.2563
   77SLPC   C31 6968   0.623   2.086   6.876  0.0074 -0.2019  0.2525
   77SLPC   O32 6969   0.549   2.083   6.780  0.6549  0.1878  0.2096
   77SLPC   C32 6970   0.615   2.000   6.998 -0.2654 -0.0308 -0.5050
   77SLPC   H2X 6971   0.515   1.955   7.016 -1.8125  2.9145 -1.4283
   77SLPC   H2Y 6972   0.641   2.063   7.085  0.4025  1.5031 -1.7963
   77SLPC   C23 6973   0.929   2.527   7.173 -0.4611 -0.1878 -0.0130
   77SLPC   H3R 6974   0.917   2.419   7.194  0.6139 -0.6070 -1.4965
   77SLPC   H3S 6975   0.829   2.576   7.177 -0.0311  0.6595  0.3595
   77SLPC   C24 6976   1.014   2.576   7.279 -0.8808  0.7509 -0.2083
   77SLPC   H4R 6977   1.011   2.687   7.281  2.0875  0.8762 -0.8122
   77SLPC   H4S 6978   1.122   2.553   7.268 -0.9921 -0.2240  0.7339
   77SLPC   C25 6979   0.967   2.545   7.423 -0.3140  0.3616  0.3649
   77SLPC   H5R 6980   0.948   2.436   7.428 -1.4410  0.5036 -0.4399
   77SLPC   H5S 6981   0.866   2.592   7.432 -0.6667 -0.7657  2.4934
   77SLPC   C26 6982   1.072   2.592   7.530 -0.4811  0.6790 -0.5776
   77SLPC   H6R 6983   1.173   2.583   7.486  0.0771 -1.3809  1.0759
   77SLPC   H6S 6984   1.055   2.522   7.614  2.1318  0.9023  0.1701
   77SLPC   C27 6985   1.064   2.741   7.574 -0.2900 -0.1971 -0.3702
   77SLPC   H7R 6986   0.964   2.742   7.624  0.3419  0.2033  0.9049
   77SLPC   H7S 6987   1.073   2.804   7.483 -0.2031  0.0259 -0.2063
   77SLPC   C28 6988   1.183   2.794   7.649  0.1108 -0.7527 -0.1014
   77SLPC   H8R 6989   1.148   2.897   7.671 -4.1333 -2.5164  1.9514
   77SLPC   H8S 6990   1.266   2.800   7.576 -0.5404  0.9058 -0.7312
   77SLPC   C29 6991   1.206   2.716   7.774  0.4088 -0.1388 -0.1617
   77SLPC   H9R 6992   1.231   2.609   7.771  1.4686  0.1073 -0.5830
   77SLPC  C210 6993   1.190   2.762   7.901  0.0830 -0.4946  0.3654
   77SLPC  H10R 6994   1.190   2.683   7.978  1.7642  0.3655  1.2958
   77SLPC  C211 6995   1.151   2.900   7.951  0.3963  0.0167  0.4273
   77SLPC  H11R 6996   1.058   2.889   8.010 -0.4946 -3.0792 -1.4367
   77SLPC  H11S 6997   1.130   2.972   7.868 -3.3830  1.0965  2.2314
   77SLPC  C212 6998   1.251   2.941   8.056  0.2070 -0.2026  0.3610
   77SLPC  H12R 6999   1.354   2.907   8.039  0.4505 -0.3843  2.0727
   77SLPC  C213 7000   1.226   2.997   8.176 -0.1916  0.3699  0.2847
   77SLPC  H13R 7001   1.314   3.010   8.241  0.7454 -0.3234 -0.8100
   77SLPC  C214 7002   1.094   3.034   8.236 -0.1291  0.2367 -0.3181
   77SLPC  H14R 7003   1.070   2.959   8.314  0.5446  0.8105  0.4497
   77SLPC  H14S 7004   1.008   3.040   8.166  0.3947 -0.5280 -1.0393
   77SLPC  C215 7005   1.101   3.159   8.329  0.2238  0.0916  0.1302
   77SLPC  H15R 7006   1.133   3.243   8.263  2.0887 -0.4671  0.2912
   77SLPC  H15S 7007   1.186   3.151   8.400  0.2366  1.0912  0.2315
   77SLPC  C216 7008   0.960   3.195   8.375  0.6689 -0.4189 -0.0886
   77SLPC  H16R 7009   0.915   3.105   8.423 -1.9532  0.1683 -1.3532
   77SLPC  H16S 7010   0.899   3.218   8.284 -0.5227 -1.1427  0.5085
   77SLPC  C217 7011   0.975   3.322   8.462  0.0375  0.3742 -0.2423
   77SLPC  H17R 7012   0.870   3.356   8.476 -0.0471 -0.2148  0.6208
   77SLPC  H17S 7013   1.036   3.396   8.407  2.3009 -0.4752  1.0851
   77SLPC  C218 7014   1.037   3.294   8.606 -0.3935 -0.3853 -0.2263
   77SLPC  H18R 7015   1.138   3.248   8.605 -0.1921  0.0495  0.2409
   77SLPC  H18S 7016   0.973   3.217   8.655  1.3267 -2.4235 -1.1118
   77SLPC  H18T 7017   1.036   3.390   8.661  1.0791  0.0987 -1.0399
   77SLPC   C33 7018   0.718   1.885   7.002 -0.3421  0.0878  0.2216
   77SLPC   H3X 7019   0.820   1.926   7.021  0.3227 -1.2219 -0.4394
   77SLPC   H3Y 7020   0.716   1.828   6.906  0.5914 -0.3177  0.4374
   77SLPC   C34 7021   0.685   1.765   7.103  0.1902 -0.2850 -0.6094
   77SLPC   H4X 7022   0.735   1.668   7.079 -0.3834 -1.1783  1.7052
   77SLPC   H4Y 7023   0.575   1.765   7.108  0.1613 -0.1637 -1.1844
   77SLPC   C35 7024   0.720   1.796   7.249 -1.2547 -0.2470 -0.0453
   77SLPC   H5X 7025   0.686   1.897   7.282 -1.8869 -0.4967  0.0665
   77SLPC   H5Y 7026   0.830   1.808   7.260 -0.9464 -0.3064 -2.5795
   77SLPC   C36 7027   0.659   1.705   7.358 -0.4501 -0.1135 -1.1914
   77SLPC   H6X 7028   0.662   1.599   7.326 -1.1396 -1.1714  2.0782
   77SLPC   H6Y 7029   0.552   1.733   7.355 -0.0955  1.1209 -3.1644
   77SLPC   C37 7030   0.718   1.714   7.499 -0.0594 -0.3963 -0.5172
   77SLPC   H7X 7031   0.742   1.820   7.522 -0.9508  0.0739 -1.7155
   77SLPC   H7Y 7032   0.821   1.673   7.494  0.0816 -0.0251 -0.6613
   77SLPC   C38 7033   0.647   1.628   7.605 -0.1201 -0.6307 -0.1492
   77SLPC   H8X 7034   0.610   1.539   7.549  1.9724 -1.9581  0.4941
   77SLPC   H8Y 7035   0.560   1.683   7.646  1.6715  1.5490  0.7685
   77SLPC   C39 7036   0.739   1.583   7.728  0.2184 -0.3762 -0.2707
   77SLPC   H9X 7037   0.839   1.549   7.695  1.5994  0.7621  2.4954
   77SLPC   H9Y 7038   0.683   1.504   7.784  0.9295  0.4822  1.7015
   77SLPC  C310 7039   0.755   1.695   7.832  0.8631  0.3143 -0.5859
   77SLPC  H10X 7040   0.661   1.754   7.828 -1.6865 -3.5319  0.3262
   77SLPC  H10Y 7041   0.842   1.762   7.812  0.4043  1.2179  0.4217
   77SLPC  C311 7042   0.764   1.634   7.970 -0.2299  0.2436  0.1265
   77SLPC  H11X 7043   0.843   1.556   7.966  0.1469  0.5602  1.0056
   77SLPC  H11Y 7044   0.670   1.580   7.994 -0.7904 -0.1840 -2.8451
   77SLPC  C312 7045   0.809   1.725   8.083  0.5507  0.4150 -0.0787
   77SLPC  H12X 7046   0.734   1.804   8.104 -2.0418 -1.9432 -0.1416
   77SLPC  H12Y 7047   0.903   1.772   8.048 -0.7284 -0.0602 -4.4956
   77SLPC  C313 7048   0.836   1.645   8.211  0.0721 -0.5489  0.2758
   77SLPC  H13X 7049   0.924   1.581   8.193 -0.4161 -1.2771  0.4821
   77SLPC  H13Y 7050   0.743   1.585   8.215  0.0699 -0.5995 -0.4181
   77SLPC  C314 7051   0.847   1.734   8.337  0.8501  0.6439  0.6235
   77SLPC  H14X 7052   0.847   1.687   8.438 -1.4998  1.6933  1.1717
   77SLPC  H14Y 7053   0.752   1.793   8.342 -1.9590 -3.6338  0.1344
   77SLPC  C315 7054   0.970   1.821   8.334  0.2532 -0.5655 -0.5205
   77SLPC  H15X 7055   0.949   1.904   8.263 -0.2764 -0.7620 -0.5966
   77SLPC  H15Y 7056   1.063   1.772   8.299  1.9247  1.7187  0.5745
   77SLPC  C316 7057   0.996   1.896   8.470  0.1364  0.6966  0.3069
   77SLPC  H16X 7058   1.019   1.811   8.538 -1.2329  0.2405  0.2164
   77SLPC  H16Y 7059   0.903   1.946   8.505 -1.3029 -1.4453 -0.3566
   77SLPC  C317 7060   1.119   1.997   8.474  0.7555  0.9427  0.0435
   77SLPC  H17X 7061   1.105   2.067   8.388  0.5093 -0.3631 -0.9996
   77SLPC  H17Y 7062   1.207   1.933   8.454 -0.0105  0.5534 -2.2857
   77SLPC  C318 7063   1.133   2.063   8.607  0.1806 -0.7993 -0.0068
   77SLPC  H18X 7064   1.044   2.122   8.639  0.6765  0.1592 -0.3764
   77SLPC  H18Y 7065   1.218   2.134   8.616 -0.6325  0.5962 -2.6751
   77SLPC  H18Z 7066   1.136   1.989   8.689 -0.1641 -0.1234  0.6180
   78SLPC     N 7067   2.867   2.909   6.013  0.3148  0.1171  0.4305
   78SLPC   C13 7068   2.933   2.917   5.876 -0.1539 -0.0643  0.0575
   78SLPC  H13A 7069   2.903   3.003   5.819 -0.0742  1.9364  2.9346
   78SLPC  H13B 7070   3.038   2.944   5.883 -0.2608  0.1590  0.8613
   78SLPC  H13C 7071   2.921   2.830   5.813  1.7277  0.3730 -0.9783
   78SLPC   C14 7072   2.718   2.900   5.986 -0.2302 -0.0373  0.0442
   78SLPC  H14A 7073   2.676   2.831   5.914 -0.8494 -0.7542  1.0736
   78SLPC  H14B 7074   2.674   2.857   6.075  1.1091 -4.2096 -1.1565
   78SLPC  H14C 7075   2.667   2.990   5.957  0.0692 -0.0397 -0.5075
   78SLPC   C15 7076   2.894   3.035   6.093  0.3494  0.5545 -0.4671
   78SLPC  H15A 7077   3.000   3.057   6.104  0.1603  1.4426 -0.3356
   78SLPC  H15B 7078   2.853   3.125   6.049 -0.8033  0.4570  0.3777
   78SLPC  H15C 7079   2.857   3.028   6.194 -1.9476  0.5080 -1.2948
   78SLPC   C12 7080   2.912   2.777   6.090 -0.5894  0.0023  0.1883
   78SLPC  H12A 7081   2.872   2.782   6.190 -0.6948 -1.3626  0.2227
   78SLPC  H12B 7082   3.017   2.770   6.114 -1.1032 -1.6789  2.0667
   78SLPC   C11 7083   2.871   2.646   6.021 -0.5031  0.5717  0.2610
   78SLPC  H11A 7084   2.945   2.635   5.939 -1.1307  0.7633 -0.3293
   78SLPC  H11B 7085   2.772   2.649   5.972  0.3491  0.4539 -1.4977
   78SLPC     P 7086   2.780   2.510   6.225 -0.1828  0.1977  0.1655
   78SLPC   O13 7087   2.645   2.529   6.171  0.3592  0.5140 -0.4072
   78SLPC   O14 7088   2.815   2.375   6.278  0.2840 -0.1533 -0.2776
   78SLPC   O12 7089   2.889   2.545   6.113 -0.6694 -0.5387 -0.6441
   78SLPC   O11 7090   2.818   2.621   6.326  0.2456 -0.2558  0.2965
   78SLPC    C1 7091   2.944   2.645   6.394  0.1019 -0.8818 -0.3339
   78SLPC    HA 7092   3.019   2.568   6.363  1.4370 -0.0080  0.6971
   78SLPC    HB 7093   2.987   2.741   6.360 -2.4379  0.1575 -0.6692
   78SLPC    C2 7094   2.908   2.645   6.549 -0.1394 -0.7291  0.8550
   78SLPC    HS 7095   2.828   2.717   6.576  1.3225  0.3774  2.2727
   78SLPC   O21 7096   3.028   2.690   6.619 -0.3133 -0.2121  0.4177
   78SLPC   C21 7097   3.049   2.826   6.605  0.5297 -0.0832  0.1530
   78SLPC   O22 7098   2.964   2.900   6.567  0.2267 -0.0357 -0.2388
   78SLPC   C22 7099   3.191   2.861   6.644 -0.5555 -0.2805 -0.4795
   78SLPC   H2R 7100   3.249   2.774   6.682  0.6681  1.4285  1.6339
   78SLPC   H2S 7101   3.233   2.916   6.557  3.8291 -0.2899  1.5411
   78SLPC    C3 7102   2.863   2.504   6.590 -0.3987 -0.0627 -0.8236
   78SLPC    HX 7103   2.943   2.429   6.568  0.7552  0.8478  0.2070
   78SLPC    HY 7104   2.773   2.473   6.533 -0.8118 -0.2208 -0.0888
   78SLPC   O31 7105   2.830   2.480   6.726  0.1427 -0.2105 -0.3717
   78SLPC   C31 7106   2.736   2.546   6.775  0.5807 -0.1898 -0.4485
   78SLPC   O32 7107   2.671   2.639   6.720 -0.6629  0.2630  1.2085
   78SLPC   C32 7108   2.723   2.519   6.926 -0.3973 -0.2766 -0.1590
   78SLPC   H2X 7109   2.818   2.543   6.979 -0.2999 -1.0881  0.0354
   78SLPC   H2Y 7110   2.705   2.413   6.952  1.6773 -0.5347  0.2918
   78SLPC   C23 7111   3.193   2.955   6.776 -0.7601 -0.1551 -0.1424
   78SLPC   H3R 7112   3.135   2.904   6.856  1.6963 -3.0520 -0.0978
   78SLPC   H3S 7113   3.150   3.051   6.742 -1.0524 -0.2136  0.0601
   78SLPC   C24 7114   3.334   2.985   6.840 -0.2481 -0.6241  0.1252
   78SLPC   H4R 7115   3.325   3.044   6.934  2.7750  2.8341 -1.6139
   78SLPC   H4S 7116   3.385   3.049   6.765 -1.9330  1.2448  0.5271
   78SLPC   C25 7117   3.427   2.866   6.849 -0.4650  0.0127 -0.8086
   78SLPC   H5R 7118   3.529   2.900   6.877  0.1896 -1.5335 -1.2908
   78SLPC   H5S 7119   3.446   2.814   6.753 -1.2332 -0.8704 -0.4872
   78SLPC   C26 7120   3.372   2.757   6.936 -0.0271  0.0208  0.5303
   78SLPC   H6R 7121   3.422   2.662   6.907 -0.6312 -0.1977  0.1987
   78SLPC   H6S 7122   3.264   2.742   6.914  0.1327 -0.9412  0.3480
   78SLPC   C27 7123   3.391   2.778   7.091 -0.3782  0.3917  0.3130
   78SLPC   H7R 7124   3.320   2.702   7.129 -0.8434 -0.1558 -1.6423
   78SLPC   H7S 7125   3.349   2.879   7.112  0.1974  0.6441  0.2707
   78SLPC   C28 7126   3.537   2.762   7.144  0.3481  0.1037  0.2235
   78SLPC   H8R 7127   3.545   2.812   7.243  2.2495 -0.2801  0.2957
   78SLPC   H8S 7128   3.600   2.820   7.074 -2.0303 -1.1028 -3.0562
   78SLPC   C29 7129   3.568   2.616   7.150 -0.2811 -0.8811  0.6514
   78SLPC   H9R 7130   3.602   2.580   7.052 -2.4374 -0.5148 -0.2617
   78SLPC  C210 7131   3.575   2.538   7.260  0.1307 -0.1462 -0.0629
   78SLPC  H10R 7132   3.597   2.431   7.253  3.8620  0.6170 -1.2402
   78SLPC  C211 7133   3.546   2.593   7.396 -0.2307  0.1780 -0.0294
   78SLPC  H11R 7134   3.436   2.600   7.396 -0.3470 -1.5612 -0.5799
   78SLPC  H11S 7135   3.591   2.693   7.416  3.6775 -1.3506 -0.6820
   78SLPC  C212 7136   3.578   2.510   7.521  1.1792  0.6551  0.4394
   78SLPC  H12R 7137   3.670   2.535   7.575  0.6661  0.1605  1.5629
   78SLPC  C213 7138   3.512   2.399   7.557 -0.8782  0.5231 -0.1049
   78SLPC  H13R 7139   3.553   2.356   7.650  1.7599  1.7534 -0.6547
   78SLPC  C214 7140   3.384   2.334   7.493 -0.1471  0.1202 -0.1373
   78SLPC  H14R 7141   3.380   2.226   7.518  2.0556  0.0174 -0.1766
   78SLPC  H14S 7142   3.396   2.352   7.384 -1.2565 -1.2339 -0.4959
   78SLPC  C215 7143   3.263   2.403   7.560  0.2691  0.2888  0.0344
   78SLPC  H15R 7144   3.184   2.382   7.484  0.5023  1.3812 -0.5180
   78SLPC  H15S 7145   3.271   2.513   7.567 -0.7081  0.5692 -2.7256
   78SLPC  C216 7146   3.228   2.340   7.696  0.0480 -0.3340  0.9441
   78SLPC  H16R 7147   3.296   2.379   7.775  1.8401  0.9184 -1.1623
   78SLPC  H16S 7148   3.217   2.230   7.697 -0.4271 -0.3093 -0.6065
   78SLPC  C217 7149   3.093   2.389   7.762  0.2763 -0.3098 -0.1329
   78SLPC  H17R 7150   3.007   2.345   7.708  1.4391 -1.0315 -1.4585
   78SLPC  H17S 7151   3.087   2.500   7.758 -3.0425 -0.3997  1.0363
   78SLPC  C218 7152   3.071   2.346   7.903  0.2277  0.1927  0.4114
   78SLPC  H18R 7153   3.056   2.238   7.923 -2.5947  0.4389 -0.1842
   78SLPC  H18S 7154   2.981   2.394   7.947 -0.3511 -2.3779  2.1297
   78SLPC  H18T 7155   3.151   2.385   7.970  0.1449  0.8447  0.1323
   78SLPC   C33 7156   2.606   2.606   6.990  0.5457 -0.4224  0.5417
   78SLPC   H3X 7157   2.516   2.598   6.926 -0.3551 -0.2466  1.7732
   78SLPC   H3Y 7158   2.628   2.714   6.989 -0.6537 -0.1776 -0.0770
   78SLPC   C34 7159   2.564   2.550   7.124 -0.1401  0.4251 -0.1683
   78SLPC   H4X 7160   2.641   2.582   7.198  0.2655 -0.1272 -0.3443
   78SLPC   H4Y 7161   2.570   2.440   7.127  3.8311  0.5835  1.0240
   78SLPC   C35 7162   2.436   2.607   7.178 -0.2761  0.5016 -0.6499
   78SLPC   H5X 7163   2.348   2.540   7.168 -0.4612  0.3785  1.4442
   78SLPC   H5Y 7164   2.413   2.703   7.127  1.4820  1.9639  1.2326
   78SLPC   C36 7165   2.452   2.646   7.327 -0.1355 -0.3425  0.8356
   78SLPC   H6X 7166   2.390   2.736   7.348 -0.5819 -0.3825 -0.2688
   78SLPC   H6Y 7167   2.553   2.683   7.355 -0.2833 -0.9586  2.1977
   78SLPC   C37 7168   2.400   2.540   7.420 -0.1711  0.6147  0.1293
   78SLPC   H7X 7169   2.471   2.455   7.413 -0.7611  0.0108  1.2315
   78SLPC   H7Y 7170   2.307   2.498   7.376  0.7832  0.3901 -1.6769
   78SLPC   C38 7171   2.374   2.579   7.568  0.1739  0.3125 -0.0281
   78SLPC   H8X 7172   2.301   2.662   7.555  0.6709  0.8411  0.4983
   78SLPC   H8Y 7173   2.454   2.620   7.633 -0.3451  2.6219 -0.7968
   78SLPC   C39 7174   2.311   2.467   7.656 -0.4915 -0.1980  0.0519
   78SLPC   H9X 7175   2.392   2.393   7.671 -0.2597  0.0756  0.1680
   78SLPC   H9Y 7176   2.225   2.432   7.596 -1.5090 -0.2638  1.5270
   78SLPC  C310 7177   2.261   2.524   7.786  0.1136  0.0870 -0.4434
   78SLPC  H10X 7178   2.174   2.589   7.762 -0.3698 -0.3278  0.1979
   78SLPC  H10Y 7179   2.336   2.584   7.842 -1.0844  1.1666  0.0343
   78SLPC  C311 7180   2.205   2.417   7.883 -0.8452  0.7462 -0.7319
   78SLPC  H11X 7181   2.276   2.332   7.897 -1.9628 -0.2712 -1.1947
   78SLPC  H11Y 7182   2.113   2.380   7.833 -1.5333  1.8207 -0.2660
   78SLPC  C312 7183   2.151   2.453   8.022  0.0629 -0.0966  0.1365
   78SLPC  H12X 7184   2.090   2.365   8.050 -0.7223  0.0068 -1.1520
   78SLPC  H12Y 7185   2.070   2.530   8.018 -0.0097 -0.1827 -0.0741
   78SLPC  C313 7186   2.264   2.480   8.122 -0.4334  1.1285 -0.0933
   78SLPC  H13X 7187   2.305   2.581   8.101 -2.7992  1.6747 -2.4013
   78SLPC  H13Y 7188   2.334   2.397   8.102  0.2302  0.9710  2.7213
   78SLPC  C314 7189   2.210   2.474   8.265  0.1426  0.5099 -1.3996
   78SLPC  H14X 7190   2.185   2.370   8.296  3.0885  0.2644  0.3891
   78SLPC  H14Y 7191   2.110   2.522   8.271  0.7795  1.8389 -1.1566
   78SLPC  C315 7192   2.309   2.526   8.367  0.7146 -0.1307 -0.5535
   78SLPC  H15X 7193   2.414   2.501   8.340  1.2751  0.9254  0.6029
   78SLPC  H15Y 7194   2.285   2.477   8.464  2.1230  0.9087  0.3493
   78SLPC  C316 7195   2.291   2.678   8.370 -0.1096 -0.0868 -0.1662
   78SLPC  H16X 7196   2.186   2.704   8.395 -0.5840 -0.7295 -1.4597
   78SLPC  H16Y 7197   2.303   2.725   8.270 -1.5659  0.0907 -0.2744
   78SLPC  C317 7198   2.383   2.743   8.470 -0.1127 -0.3259 -1.0251
   78SLPC  H17X 7199   2.360   2.851   8.470 -1.5967 -0.6410 -0.9924
   78SLPC  H17Y 7200   2.489   2.743   8.437  0.2761 -2.7777  0.1065
   78SLPC  C318 7201   2.368   2.674   8.609  0.7033  0.1538 -0.5338
   78SLPC  H18X 7202   2.372   2.749   8.691  0.6230  0.0745 -0.4577
   78SLPC  H18Y 7203   2.426   2.580   8.618 -0.0864 -0.3509 -0.6227
   78SLPC  H18Z 7204   2.262   2.645   8.626  0.3785  1.1639 -0.7766
   79SLPC     N 7205   6.338   5.311   6.254  0.3112  0.3847 -0.3907
   79SLPC   C13 7206   6.379   5.282   6.390 -0.0906 -0.3054 -0.1111
   79SLPC  H13A 7207   6.375   5.375   6.444  0.2497 -1.0394  1.2108
   79SLPC  H13B 7208   6.313   5.213   6.441  0.5763  0.5318  1.9265
   79SLPC  H13C 7209   6.480   5.245   6.389  1.0860  2.7163  1.6142
   79SLPC   C14 7210   6.200   5.374   6.260 -0.4216  0.2933 -0.0094
   79SLPC  H14A 7211   6.164   5.403   6.162  0.6308  1.5756 -0.0335
   79SLPC  H14B 7212   6.126   5.301   6.289 -1.0737  0.3964 -1.3973
   79SLPC  H14C 7213   6.189   5.462   6.322 -0.5175  1.4354 -1.6179
   79SLPC   C15 7214   6.334   5.183   6.180  0.0548  0.2437  0.1407
   79SLPC  H15A 7215   6.258   5.117   6.220 -0.1455  0.6121  0.3756
   79SLPC  H15B 7216   6.299   5.196   6.078 -2.1166  2.5831  1.1220
   79SLPC  H15C 7217   6.429   5.133   6.181  1.1584  2.3049 -0.2382
   79SLPC   C12 7218   6.432   5.408   6.186 -0.4093 -0.0780 -0.0488
   79SLPC  H12A 7219   6.465   5.482   6.257  0.8630 -0.6212 -0.0564
   79SLPC  H12B 7220   6.386   5.448   6.097 -1.1977 -3.6429 -1.3462
   79SLPC   C11 7221   6.566   5.342   6.135 -0.4155 -0.4313 -0.7485
   79SLPC  H11A 7222   6.618   5.425   6.083  0.3104 -1.6273 -1.9629
   79SLPC  H11B 7223   6.537   5.267   6.058  0.3368 -0.3594 -1.1036
   79SLPC     P 7224   6.712   5.150   6.239 -0.2084 -0.4404  0.4272
   79SLPC   O13 7225   6.651   5.074   6.129  0.1490 -0.0881  0.0892
   79SLPC   O14 7226   6.863   5.168   6.256  0.3695  0.4696  0.1871
   79SLPC   O12 7227   6.647   5.294   6.245  0.5738 -0.0608  0.1346
   79SLPC   O11 7228   6.660   5.091   6.374 -0.3038  0.1149 -0.6577
   79SLPC    C1 7229   6.743   5.101   6.496 -0.3809  0.1468 -0.0463
   79SLPC    HA 7230   6.783   5.001   6.524 -0.6771 -0.5393 -1.9858
   79SLPC    HB 7231   6.825   5.175   6.484 -1.3465  1.3150  0.5259
   79SLPC    C2 7232   6.660   5.142   6.623 -1.0109 -0.3509  0.4306
   79SLPC    HS 7233   6.704   5.087   6.709  2.6715  0.6072 -0.7469
   79SLPC   O21 7234   6.522   5.119   6.607  0.2158  0.8019 -0.0004
   79SLPC   C21 7235   6.485   4.997   6.644 -0.1655  0.2479  0.0873
   79SLPC   O22 7236   6.559   4.908   6.680  0.2764 -0.0779 -0.2191
   79SLPC   C22 7237   6.333   4.990   6.643 -0.1798 -0.0413 -0.4378
   79SLPC   H2R 7238   6.301   5.021   6.541 -2.2445  0.0510  0.2251
   79SLPC   H2S 7239   6.321   4.881   6.662  0.7890 -0.1981 -0.6605
   79SLPC    C3 7240   6.681   5.291   6.666  0.3493  0.0230 -0.2664
   79SLPC    HX 7241   6.658   5.362   6.584 -2.1722  0.8744  1.1232
   79SLPC    HY 7242   6.786   5.308   6.698  0.2182  1.9508 -0.7949
   79SLPC   O31 7243   6.596   5.311   6.782  0.1477  0.7073 -0.5659
   79SLPC   C31 7244   6.510   5.403   6.766 -0.2203 -0.4988  0.0954
   79SLPC   O32 7245   6.473   5.455   6.661  0.5076  0.5516 -0.5743
   79SLPC   C32 7246   6.456   5.456   6.902 -0.1838 -0.0464 -0.3363
   79SLPC   H2X 7247   6.350   5.478   6.879 -0.4259 -0.1239  0.6635
   79SLPC   H2Y 7248   6.516   5.544   6.933 -0.0959 -0.4875  0.7815
   79SLPC   C23 7249   6.270   5.075   6.754 -0.1327 -0.1390  0.5475
   79SLPC   H3R 7250   6.160   5.086   6.740  0.0061 -0.7938 -1.0800
   79SLPC   H3S 7251   6.317   5.175   6.743 -0.2964 -0.2752 -1.5745
   79SLPC   C24 7252   6.297   5.001   6.895 -0.3449 -0.1524 -1.1039
   79SLPC   H4R 7253   6.286   5.076   6.976 -1.8833 -2.0328  0.4858
   79SLPC   H4S 7254   6.402   4.967   6.898 -0.7585 -1.2376  1.8053
   79SLPC   C25 7255   6.206   4.885   6.924 -0.0356  0.1936  0.5942
   79SLPC   H5R 7256   6.200   4.832   6.827 -0.3820  0.2489  0.5856
   79SLPC   H5S 7257   6.099   4.914   6.936 -0.3487 -0.0428 -1.4987
   79SLPC   C26 7258   6.263   4.792   7.032  0.5431 -0.1702  0.0248
   79SLPC   H6R 7259   6.369   4.776   7.005  0.7122  0.1466  0.5027
   79SLPC   H6S 7260   6.216   4.691   7.037  2.0297 -0.9334 -1.2769
   79SLPC   C27 7261   6.276   4.863   7.166  0.1277  0.6857 -0.6459
   79SLPC   H7R 7262   6.181   4.877   7.221  0.0630  1.2098 -0.8845
   79SLPC   H7S 7263   6.314   4.967   7.154 -0.3463  0.5374 -3.8474
   79SLPC   C28 7264   6.362   4.778   7.269  0.0096  0.6472  0.4185
   79SLPC   H8R 7265   6.428   4.716   7.204  0.4628  0.7101  0.8164
   79SLPC   H8S 7266   6.291   4.704   7.310  1.1188  0.1929  1.5462
   79SLPC   C29 7267   6.444   4.850   7.381  0.2068  0.7176  0.1396
   79SLPC   H9R 7268   6.536   4.898   7.347 -2.0355  4.2293 -1.3223
   79SLPC  C210 7269   6.416   4.866   7.507 -0.6365 -0.0946  0.4272
   79SLPC  H10R 7270   6.484   4.930   7.565  1.2317 -0.6303 -1.1012
   79SLPC  C211 7271   6.293   4.809   7.582  0.4643  0.2414 -0.2737
   79SLPC  H11R 7272   6.216   4.781   7.507 -2.0434  0.9097  1.9707
   79SLPC  H11S 7273   6.243   4.894   7.633  1.5258  0.4670  0.3827
   79SLPC  C212 7274   6.310   4.694   7.680 -0.1290 -0.3357 -0.3958
   79SLPC  H12R 7275   6.350   4.606   7.627 -0.7005 -0.2074 -1.0623
   79SLPC  C213 7276   6.287   4.691   7.818 -1.0826  0.2629  0.4370
   79SLPC  H13R 7277   6.316   4.601   7.874 -0.8826 -0.3779 -0.6686
   79SLPC  C214 7278   6.234   4.805   7.905 -0.2808  0.1043 -0.7913
   79SLPC  H14R 7279   6.161   4.766   7.979  1.1111 -1.9568 -0.4457
   79SLPC  H14S 7280   6.195   4.889   7.844 -0.0302 -0.5612 -1.8978
   79SLPC  C215 7281   6.366   4.861   7.979 -0.6094 -0.2652 -0.6851
   79SLPC  H15R 7282   6.334   4.947   8.043  1.9484  1.6159 -1.8603
   79SLPC  H15S 7283   6.425   4.908   7.897  0.4416 -0.5252 -0.0876
   79SLPC  C216 7284   6.448   4.750   8.061 -0.0849 -0.9543  0.2581
   79SLPC  H16R 7285   6.533   4.798   8.114 -1.1061  1.7171 -0.4378
   79SLPC  H16S 7286   6.492   4.679   7.989  1.0673 -0.1191  0.1333
   79SLPC  C217 7287   6.358   4.684   8.165  0.4211  0.0086 -0.4127
   79SLPC  H17R 7288   6.388   4.580   8.192  0.8871  0.1468 -0.3904
   79SLPC  H17S 7289   6.253   4.680   8.130  0.2259  0.0083  0.1675
   79SLPC  C218 7290   6.355   4.759   8.304  0.5026 -0.7141 -0.0716
   79SLPC  H18R 7291   6.450   4.804   8.339  0.4108 -1.3307  1.0151
   79SLPC  H18S 7292   6.309   4.701   8.387  0.5256  0.2808  0.6450
   79SLPC  H18T 7293   6.289   4.845   8.282 -0.0531 -1.0384  0.3034
   79SLPC   C33 7294   6.475   5.346   7.009 -0.1008  0.4356  0.5297
   79SLPC   H3X 7295   6.580   5.310   7.012  0.3288  1.6588 -0.0406
   79SLPC   H3Y 7296   6.411   5.260   6.978  0.0289  1.3497 -2.4079
   79SLPC   C34 7297   6.440   5.380   7.161  0.1971 -0.1042 -0.2435
   79SLPC   H4X 7298   6.338   5.425   7.159 -0.1806 -0.9772 -0.7241
   79SLPC   H4Y 7299   6.521   5.443   7.203 -0.0810 -1.6329  2.6849
   79SLPC   C35 7300   6.450   5.267   7.263 -0.2318 -0.3532 -0.0776
   79SLPC   H5X 7301   6.546   5.212   7.260  0.9509  1.6415  0.3204
   79SLPC   H5Y 7302   6.371   5.191   7.242 -1.2422  1.0165 -1.3362
   79SLPC   C36 7303   6.408   5.327   7.395 -0.0294 -0.3865 -0.0417
   79SLPC   H6X 7304   6.302   5.357   7.387 -0.5529 -2.2507 -0.4994
   79SLPC   H6Y 7305   6.458   5.425   7.406 -1.8112  0.2159  3.6806
   79SLPC   C37 7306   6.437   5.233   7.514 -0.3299 -0.1616 -0.1740
   79SLPC   H7X 7307   6.543   5.202   7.503  0.1130  1.2671  0.0031
   79SLPC   H7Y 7308   6.383   5.137   7.501 -1.0566  0.2687 -0.3927
   79SLPC   C38 7309   6.400   5.295   7.649  0.5737  0.0182  0.3104
   79SLPC   H8X 7310   6.382   5.215   7.724 -3.1963 -0.9876 -1.5633
   79SLPC   H8Y 7311   6.310   5.360   7.647  2.5169  2.8882  1.9162
   79SLPC   C39 7312   6.516   5.377   7.709  0.7713 -0.6750  0.4058
   79SLPC   H9X 7313   6.527   5.461   7.638 -4.1726  0.6992  1.0707
   79SLPC   H9Y 7314   6.604   5.309   7.714 -1.7251 -3.9580  2.3034
   79SLPC  C310 7315   6.488   5.429   7.858 -0.0045 -0.6290  0.1080
   79SLPC  H10X 7316   6.453   5.345   7.922 -0.2211 -0.9239 -0.3938
   79SLPC  H10Y 7317   6.397   5.493   7.855 -0.3167 -1.0197  1.1797
   79SLPC  C311 7318   6.613   5.495   7.918 -0.1083  1.2317  0.0171
   79SLPC  H11X 7319   6.661   5.549   7.833  1.5088  2.6874  1.8103
   79SLPC  H11Y 7320   6.684   5.412   7.936  0.1391  1.0204 -1.7784
   79SLPC  C312 7321   6.589   5.585   8.041  0.3045 -0.5211 -0.0507
   79SLPC  H12X 7322   6.520   5.663   8.004  2.1069  0.8174 -0.6661
   79SLPC  H12Y 7323   6.687   5.635   8.058  1.1492 -1.5382 -1.7527
   79SLPC  C313 7324   6.536   5.507   8.159 -0.3799 -0.2034 -0.3011
   79SLPC  H13X 7325   6.602   5.418   8.171  1.1688  0.8930 -0.6367
   79SLPC  H13Y 7326   6.433   5.473   8.137 -0.5961  0.0090  0.3540
   79SLPC  C314 7327   6.530   5.586   8.288  0.5495 -0.1344  0.7711
   79SLPC  H14X 7328   6.463   5.674   8.281  0.1929 -0.3961  0.8695
   79SLPC  H14Y 7329   6.622   5.640   8.322  2.8796 -2.2860 -1.8607
   79SLPC  C315 7330   6.495   5.491   8.396 -0.3464 -0.1900 -0.3750
   79SLPC  H15X 7331   6.583   5.423   8.395  2.0254  2.7421 -2.0131
   79SLPC  H15Y 7332   6.406   5.428   8.374  0.2024 -1.0893 -0.0626
   79SLPC  C316 7333   6.484   5.559   8.531  0.0783  0.4335  0.5754
   79SLPC  H16X 7334   6.394   5.624   8.523 -0.0420  0.1785 -0.1369
   79SLPC  H16Y 7335   6.564   5.634   8.551  0.0838  0.5598  0.0636
   79SLPC  C317 7336   6.458   5.462   8.646  0.2748  0.4310 -0.2283
   79SLPC  H17X 7337   6.521   5.371   8.645  2.0342  1.6110  0.2299
   79SLPC  H17Y 7338   6.354   5.423   8.640 -1.2810  3.9210  1.8809
   79SLPC  C318 7339   6.455   5.530   8.782 -0.2566 -0.1810 -0.5026
   79SLPC  H18X 7340   6.546   5.591   8.803 -0.0822  0.6238 -3.3371
   79SLPC  H18Y 7341   6.443   5.451   8.858 -0.3442  0.7810  0.4950
   79SLPC  H18Z 7342   6.362   5.590   8.774 -0.7633 -0.8410  0.3690
   80SLPC     N 7343   1.217   3.453   6.222  0.3014 -0.5160 -0.0402
   80SLPC   C13 7344   1.323   3.562   6.206 -0.5360  0.3352 -0.4820
   80SLPC  H13A 7345   1.278   3.660   6.205 -1.7780 -0.2071  0.7826
   80SLPC  H13B 7346   1.395   3.551   6.285 -0.9580 -1.0884 -0.2767
   80SLPC  H13C 7347   1.388   3.553   6.120 -1.2885  0.5091 -1.0804
   80SLPC   C14 7348   1.114   3.467   6.109 -0.4344  0.2732  0.0677
   80SLPC  H14A 7349   1.053   3.556   6.121 -0.7217  0.1640 -0.5722
   80SLPC  H14B 7350   1.163   3.456   6.013  0.5078 -1.7874  0.7616
   80SLPC  H14C 7351   1.036   3.393   6.114 -0.4157  0.2653  0.2401
   80SLPC   C15 7352   1.155   3.472   6.355  0.2517 -0.2521  0.5825
   80SLPC  H15A 7353   1.059   3.423   6.365 -0.4282  0.6299 -1.3838
   80SLPC  H15B 7354   1.213   3.434   6.437  1.6111 -1.0354 -0.7001
   80SLPC  H15C 7355   1.126   3.574   6.370 -1.0302 -0.4221 -0.6515
   80SLPC   C12 7356   1.281   3.315   6.228 -0.3134  0.0514  0.0505
   80SLPC  H12A 7357   1.207   3.241   6.252 -0.8930  0.7219  0.3647
   80SLPC  H12B 7358   1.352   3.319   6.310 -0.6086  1.6535  0.2540
   80SLPC   C11 7359   1.365   3.266   6.107 -0.0437  0.3646  0.5167
   80SLPC  H11A 7360   1.316   3.296   6.012  1.2944 -1.5641 -0.8294
   80SLPC  H11B 7361   1.371   3.155   6.106 -1.1001  0.3039 -0.1532
   80SLPC     P 7362   1.607   3.253   6.216 -0.0655  0.0445 -0.1102
   80SLPC   O13 7363   1.635   3.118   6.164  0.3748  0.5028 -0.8221
   80SLPC   O14 7364   1.733   3.335   6.208 -0.1888 -0.4682 -0.3065
   80SLPC   O12 7365   1.499   3.318   6.120 -0.0814 -0.8970  0.1067
   80SLPC   O11 7366   1.551   3.258   6.364 -0.1546  0.2149  0.2296
   80SLPC    C1 7367   1.494   3.139   6.432  0.7008  0.1236  0.0058
   80SLPC    HA 7368   1.406   3.096   6.378 -0.1378  0.0931  1.3798
   80SLPC    HB 7369   1.568   3.059   6.452  2.2002  1.5710  0.3505
   80SLPC    C2 7370   1.426   3.168   6.567 -0.2069 -0.0629 -0.8356
   80SLPC    HS 7371   1.334   3.229   6.555 -0.2838  0.4895  2.1885
   80SLPC   O21 7372   1.521   3.238   6.648  0.1429 -0.6200 -0.1573
   80SLPC   C21 7373   1.517   3.368   6.641 -1.1906  0.0185 -0.3019
   80SLPC   O22 7374   1.428   3.437   6.593 -0.0922 -0.0850 -0.1580
   80SLPC   C22 7375   1.646   3.423   6.704 -0.6215  0.8737 -0.4036
   80SLPC   H2R 7376   1.704   3.336   6.743  0.5072  1.0653 -1.6335
   80SLPC   H2S 7377   1.702   3.477   6.625 -0.6305 -0.1450 -1.1261
   80SLPC    C3 7378   1.378   3.046   6.660 -0.0684  0.1797 -0.8760
   80SLPC    HX 7379   1.462   2.975   6.672  0.2658  0.3369 -2.1788
   80SLPC    HY 7380   1.290   2.994   6.615 -1.1759 -0.1723  1.5826
   80SLPC   O31 7381   1.328   3.111   6.783  0.6893  0.9534  0.5226
   80SLPC   C31 7382   1.404   3.090   6.889  0.2033  0.2620  1.3715
   80SLPC   O32 7383   1.514   3.040   6.875  0.1182 -0.1164  0.2372
   80SLPC   C32 7384   1.356   3.165   7.014  0.4170 -0.8575 -0.2489
   80SLPC   H2X 7385   1.314   3.265   6.992  3.3368  0.6666  0.7324
   80SLPC   H2Y 7386   1.436   3.180   7.090 -0.9952  0.3815  1.0101
   80SLPC   C23 7387   1.630   3.520   6.823  0.7281  1.4839  0.4892
   80SLPC   H3R 7388   1.576   3.613   6.793 -0.2737  0.8951  0.4365
   80SLPC   H3S 7389   1.729   3.556   6.855  1.3955  1.1459 -1.1306
   80SLPC   C24 7390   1.551   3.465   6.949  0.0066  0.3069  0.0289
   80SLPC   H4R 7391   1.589   3.368   6.987  0.6618  0.1921 -0.8893
   80SLPC   H4S 7392   1.447   3.456   6.911  1.4385  0.1612 -4.0801
   80SLPC   C25 7393   1.550   3.569   7.063  0.4080 -0.5441 -0.1374
   80SLPC   H5R 7394   1.460   3.631   7.041  0.4141 -0.8340 -1.0064
   80SLPC   H5S 7395   1.652   3.611   7.070  0.4440 -0.6799  0.1507
   80SLPC   C26 7396   1.523   3.492   7.197 -0.3092 -0.4840  0.3925
   80SLPC   H6R 7397   1.600   3.418   7.227 -1.2002 -0.3585  3.1069
   80SLPC   H6S 7398   1.426   3.439   7.183 -0.0471 -0.6783 -0.7788
   80SLPC   C27 7399   1.480   3.583   7.312  0.2880 -0.0875  0.0759
   80SLPC   H7R 7400   1.415   3.660   7.265  0.3615  0.4950  0.9161
   80SLPC   H7S 7401   1.570   3.634   7.355  0.5005  0.5110 -1.0738
   80SLPC   C28 7402   1.397   3.514   7.423  0.6139 -0.4794 -0.2766
   80SLPC   H8R 7403   1.301   3.480   7.379  1.2741 -2.0292 -0.5751
   80SLPC   H8S 7404   1.364   3.594   7.492  1.1696 -0.7759  0.3333
   80SLPC   C29 7405   1.475   3.402   7.484 -0.3022 -0.1404  1.3826
   80SLPC   H9R 7406   1.452   3.302   7.446 -2.0259  0.7038  0.1283
   80SLPC  C210 7407   1.556   3.410   7.594  0.3526 -0.2835  0.4172
   80SLPC  H10R 7408   1.620   3.321   7.612  3.1949  1.7976  0.9682
   80SLPC  C211 7409   1.580   3.536   7.678 -0.0374 -0.1489  0.0391
   80SLPC  H11R 7410   1.553   3.622   7.613 -0.4155  0.5018  1.0575
   80SLPC  H11S 7411   1.689   3.537   7.698  0.0679  0.5508 -0.5507
   80SLPC  C212 7412   1.501   3.544   7.803 -0.3863 -0.3481  0.2121
   80SLPC  H12R 7413   1.413   3.477   7.802 -0.1591 -0.6419 -0.0844
   80SLPC  C213 7414   1.529   3.625   7.907  0.5243  0.0712  0.0832
   80SLPC  H13R 7415   1.454   3.623   7.988 -1.4809 -0.2184 -1.7518
   80SLPC  C214 7416   1.643   3.717   7.920 -0.0690 -0.2289 -0.2152
   80SLPC  H14R 7417   1.604   3.820   7.905 -0.4821 -0.6081 -1.8306
   80SLPC  H14S 7418   1.717   3.694   7.841  0.5086 -0.6375  0.4357
   80SLPC  C215 7419   1.691   3.708   8.069 -0.4291  0.5226  0.4072
   80SLPC  H15R 7420   1.767   3.789   8.075  0.0160  0.1110  0.3701
   80SLPC  H15S 7421   1.731   3.607   8.094 -0.1655  0.4331 -0.3875
   80SLPC  C216 7422   1.600   3.734   8.191 -0.2460  0.4793  0.2579
   80SLPC  H16R 7423   1.525   3.652   8.197  1.2081 -0.7687  1.4564
   80SLPC  H16S 7424   1.541   3.829   8.192 -0.0244  0.6077  1.7911
   80SLPC  C217 7425   1.674   3.729   8.329 -0.0765  0.2103 -0.6762
   80SLPC  H17R 7426   1.767   3.790   8.326 -1.7983  2.9801 -0.1689
   80SLPC  H17S 7427   1.715   3.628   8.350 -0.5408  0.0708 -0.4408
   80SLPC  C218 7428   1.570   3.773   8.437  0.0440 -0.3870 -0.1138
   80SLPC  H18R 7429   1.530   3.874   8.410  0.3699 -0.0078  0.8291
   80SLPC  H18S 7430   1.611   3.764   8.539 -0.4057 -0.6871  0.0401
   80SLPC  H18T 7431   1.482   3.705   8.440  0.7720 -1.2596  1.5342
   80SLPC   C33 7432   1.243   3.081   7.079 -0.0394 -0.3161 -0.0622
   80SLPC   H3X 7433   1.275   2.993   7.138 -0.4616  1.0456  2.2826
   80SLPC   H3Y 7434   1.176   3.062   6.993  0.7639 -1.5429 -0.4230
   80SLPC   C34 7435   1.145   3.169   7.161 -0.5759 -0.4673 -0.1993
   80SLPC   H4X 7436   1.085   3.234   7.094  0.7401  1.1139  0.1219
   80SLPC   H4Y 7437   1.205   3.232   7.230 -0.8235  0.7095 -1.0397
   80SLPC   C35 7438   1.064   3.084   7.262  0.3446 -0.8620  0.1321
   80SLPC   H5X 7439   1.124   2.994   7.289  2.6469  0.6601  0.2236
   80SLPC   H5Y 7440   0.972   3.055   7.207  1.0034 -0.6085 -1.1220
   80SLPC   C36 7441   1.013   3.161   7.388 -1.0884 -0.4167 -0.6487
   80SLPC   H6X 7442   0.931   3.100   7.432  0.4380 -0.8193  1.7349
   80SLPC   H6Y 7443   0.975   3.255   7.344  0.2696  0.9113  0.8961
   80SLPC   C37 7444   1.122   3.174   7.495 -0.3375 -0.0855  0.0577
   80SLPC   H7X 7445   1.203   3.244   7.465 -0.9816  0.8870  0.5883
   80SLPC   H7Y 7446   1.165   3.077   7.529 -0.0883 -0.8312 -2.2939
   80SLPC   C38 7447   1.072   3.251   7.622 -0.5590  0.0206  0.6507
   80SLPC   H8X 7448   0.973   3.220   7.662 -0.1956  0.3148  1.7732
   80SLPC   H8Y 7449   1.052   3.357   7.597  0.4579  0.2154  0.6499
   80SLPC   C39 7450   1.172   3.250   7.741  0.2939  0.2098  0.4126
   80SLPC   H9X 7451   1.275   3.283   7.715  0.3911  2.0682  3.0138
   80SLPC   H9Y 7452   1.187   3.143   7.766 -0.4291  0.3379  1.4509
   80SLPC  C310 7453   1.125   3.327   7.864 -0.5704 -0.1168 -0.6610
   80SLPC  H10X 7454   1.192   3.309   7.951 -2.2651  0.2195  0.7595
   80SLPC  H10Y 7455   1.027   3.282   7.894 -0.3786 -1.4714 -2.0023
   80SLPC  C311 7456   1.111   3.477   7.835 -0.0983  0.1913  0.1306
   80SLPC  H11X 7457   1.035   3.479   7.754  0.0110 -0.7475  0.0068
   80SLPC  H11Y 7458   1.205   3.524   7.799  0.1027  0.3934  0.9042
   80SLPC  C312 7459   1.052   3.556   7.949 -0.2879 -0.0377  0.3355
   80SLPC  H12X 7460   1.020   3.660   7.928  1.7174  0.6549  0.5835
   80SLPC  H12Y 7461   1.131   3.575   8.025 -0.3171  1.4867 -0.0029
   80SLPC  C313 7462   0.929   3.494   8.015  0.0267 -0.0321  0.2358
   80SLPC  H13X 7463   0.958   3.396   8.059 -1.0438 -0.7476 -0.6032
   80SLPC  H13Y 7464   0.853   3.456   7.943  1.6458 -0.9444 -1.0141
   80SLPC  C314 7465   0.866   3.576   8.124  0.8023 -0.0466 -0.2457
   80SLPC  H14X 7466   0.842   3.681   8.093 -0.2777 -0.1979  0.0445
   80SLPC  H14Y 7467   0.946   3.597   8.197  0.9860 -0.2133 -0.4008
   80SLPC  C315 7468   0.747   3.503   8.190  0.1988 -0.4009  0.2940
   80SLPC  H15X 7469   0.786   3.420   8.253  0.1308  0.3533  1.3420
   80SLPC  H15Y 7470   0.671   3.471   8.116 -0.7473 -1.2925  1.6208
   80SLPC  C316 7471   0.672   3.589   8.291  0.0938 -0.1877  0.3305
   80SLPC  H16X 7472   0.635   3.687   8.252  0.5824  0.1369  0.6740
   80SLPC  H16Y 7473   0.748   3.631   8.360 -0.6173  0.2928  0.8220
   80SLPC  C317 7474   0.566   3.512   8.369  0.2447  0.0781 -0.1728
   80SLPC  H17X 7475   0.620   3.433   8.426 -0.5204  1.2071  2.2149
   80SLPC  H17Y 7476   0.499   3.462   8.297 -0.3878  0.2011  0.3224
   80SLPC  C318 7477   0.489   3.608   8.464 -0.3462 -0.6037 -0.3017
   80SLPC  H18X 7478   0.436   3.679   8.397  1.4280 -1.0042 -2.1861
   80SLPC  H18Y 7479   0.548   3.657   8.544 -1.4608  1.1403 -0.5096
   80SLPC  H18Z 7480   0.414   3.547   8.519 -1.6306 -0.2685 -1.6405
   81SAPS     N 7481   1.339   4.785  11.126  0.0916  0.2968 -0.0637
   81SAPS   HN1 7482   1.363   4.734  11.038  0.5470  0.4075 -0.0056
   81SAPS   HN2 7483   1.304   4.878  11.095 -2.2537 -0.7593 -0.7391
   81SAPS   HN3 7484   1.423   4.790  11.187  1.1300 -1.8793 -1.2242
   81SAPS   C12 7485   1.235   4.717  11.205  0.1024 -0.0166  0.0890
   81SAPS  H12A 7486   1.284   4.657  11.280  0.9505 -2.6758 -2.5282
   81SAPS   C13 7487   1.147   4.828  11.269  0.5616  0.4127 -0.8484
   81SAPS  O13A 7488   1.179   4.953  11.267 -0.0315 -0.0527 -0.1892
   81SAPS  O13B 7489   1.055   4.793  11.347  0.0954  0.3627  0.3952
   81SAPS   C11 7490   1.136   4.640  11.107  1.0124 -0.0984 -0.0542
   81SAPS  H11A 7491   1.111   4.710  11.025 -0.5949  0.3520  0.8003
   81SAPS  H11B 7492   1.042   4.604  11.154  0.0302  0.5887 -1.4681
   81SAPS     P 7493   1.281   4.508  10.929 -0.4946  0.2695  0.0400
   81SAPS   O13 7494   1.358   4.629  10.913 -0.0648 -0.8832  0.2168
   81SAPS   O14 7495   1.352   4.376  10.935  0.0953  0.5826  0.3608
   81SAPS   O12 7496   1.201   4.523  11.059  0.0386  0.0173 -0.1007
   81SAPS   O11 7497   1.170   4.496  10.818 -0.2844 -0.0316 -0.2364
   81SAPS    C1 7498   1.041   4.436  10.832  0.2649  0.1947  0.2534
   81SAPS    HA 7499   1.048   4.349  10.901 -5.2650 -0.6168  0.0010
   81SAPS    HB 7500   0.975   4.509  10.883  1.2159  1.3589 -0.1483
   81SAPS    C2 7501   0.969   4.392  10.705 -0.1588 -0.1912  0.9898
   81SAPS    HS 7502   0.933   4.287  10.712  0.7625 -0.3894  2.9771
   81SAPS   O21 7503   1.056   4.411  10.591 -0.0223  0.0763  0.0520
   81SAPS   C21 7504   1.161   4.329  10.577 -0.2282  0.1605 -0.3282
   81SAPS   O22 7505   1.177   4.221  10.634 -0.1090 -0.1633  0.1653
   81SAPS   C22 7506   1.257   4.404  10.483 -0.2587 -0.1143 -0.3313
   81SAPS   H2R 7507   1.193   4.465  10.417 -0.9124  0.3656  0.7333
   81SAPS   H2S 7508   1.322   4.471  10.543  0.4800 -0.2999 -0.9154
   81SAPS    C3 7509   0.829   4.473  10.687 -0.1063 -0.2975 -1.1385
   81SAPS    HX 7510   0.772   4.456  10.781  0.9236 -1.4453 -0.7077
   81SAPS    HY 7511   0.780   4.419  10.603  0.8809 -2.6428 -0.2758
   81SAPS   O31 7512   0.865   4.615  10.654  0.1555  0.3153  0.1693
   81SAPS   C31 7513   0.759   4.684  10.609 -0.0985 -0.1582  0.6852
   81SAPS   O32 7514   0.645   4.642  10.618  0.0426  0.1976 -0.0418
   81SAPS   C32 7515   0.804   4.818  10.563  0.0068 -0.3271 -0.2293
   81SAPS   H2X 7516   0.901   4.844  10.609 -0.9267  0.9247  1.1043
   81SAPS   H2Y 7517   0.738   4.895  10.610 -1.5784 -1.6391 -0.2794
   81SAPS   C23 7518   1.352   4.308  10.393  1.0192 -0.0036  0.1015
   81SAPS   H3R 7519   1.279   4.261  10.323 -0.3392  0.6780  1.0503
   81SAPS   H3S 7520   1.397   4.220  10.445  0.0402 -1.0449 -0.7958
   81SAPS   C24 7521   1.453   4.391  10.313 -0.3469 -0.1994  0.8816
   81SAPS   H4R 7522   1.538   4.419  10.380 -0.9399  4.1691 -0.0730
   81SAPS   H4S 7523   1.401   4.483  10.280 -2.2363 -2.3052 -2.1960
   81SAPS   C25 7524   1.514   4.315  10.209  0.0022  0.5534 -0.0613
   81SAPS   H5R 7525   1.555   4.220  10.243  0.6120  0.4633 -1.0414
   81SAPS   C26 7526   1.510   4.346  10.076  0.6072 -0.1418  0.1610
   81SAPS   H6R 7527   1.570   4.276  10.016  2.3073  0.7735  0.7501
   81SAPS   C27 7528   1.438   4.461  10.007 -0.1321 -0.2819 -0.8895
   81SAPS   H7R 7529   1.505   4.536   9.959 -1.1772  1.1598 -0.1449
   81SAPS   H7S 7530   1.366   4.509  10.077 -1.5508 -2.4625 -0.8214
   81SAPS   C28 7531   1.343   4.414   9.901 -0.2972 -0.5538  0.1475
   81SAPS   H8R 7532   1.274   4.332   9.927 -0.0641 -0.2928  1.6199
   81SAPS   C29 7533   1.329   4.464   9.779  0.5578 -0.1626 -0.0576
   81SAPS   H9R 7534   1.258   4.423   9.706  0.5416  2.6887 -1.7093
   81SAPS  C210 7535   1.408   4.573   9.716  0.2423 -0.6781  0.3136
   81SAPS  H10R 7536   1.468   4.519   9.640  0.2000  2.0899 -1.7992
   81SAPS  H10S 7537   1.473   4.638   9.778  1.3205  0.1245 -1.5789
   81SAPS  C211 7538   1.320   4.663   9.631  0.5839 -0.5409 -0.1207
   81SAPS  H11R 7539   1.257   4.732   9.690  0.4365 -0.8516  0.0921
   81SAPS  C212 7540   1.317   4.680   9.497 -0.0017 -0.4705 -0.6177
   81SAPS  H12R 7541   1.252   4.760   9.460 -0.2318  0.0363  0.8451
   81SAPS  C213 7542   1.407   4.614   9.400 -0.3026 -0.5719 -0.4291
   81SAPS  H13R 7543   1.365   4.630   9.298 -0.9620  0.0790 -0.0606
   81SAPS  H13S 7544   1.407   4.503   9.412 -0.5458 -0.6382 -1.0346
   81SAPS  C214 7545   1.549   4.675   9.410  0.5619  0.7552  0.7814
   81SAPS  H14R 7546   1.616   4.625   9.481  0.5802 -0.2950  0.0291
   81SAPS  C215 7547   1.592   4.783   9.348  0.3355 -0.0669  0.6266
   81SAPS  H15R 7548   1.694   4.815   9.374  0.6718  0.3472 -1.1583
   81SAPS  C216 7549   1.519   4.878   9.254  0.0289 -0.3361 -0.2803
   81SAPS  H16R 7550   1.479   4.965   9.310  3.5946  1.1554  0.0679
   81SAPS  H16S 7551   1.431   4.837   9.201  0.6782 -1.0791 -0.7912
   81SAPS  C217 7552   1.613   4.941   9.155 -0.7227 -0.0039 -0.0917
   81SAPS  H17R 7553   1.702   4.981   9.208 -0.2968 -1.9881  0.7374
   81SAPS  H17S 7554   1.555   5.024   9.109 -3.9524 -1.4438  1.1738
   81SAPS  C218 7555   1.656   4.853   9.039  0.2458  0.7972 -0.3053
   81SAPS  H18R 7556   1.710   4.767   9.085 -0.2576  0.3826 -0.4792
   81SAPS  H18S 7557   1.727   4.909   8.976 -0.2489  0.0543 -1.5421
   81SAPS  C219 7558   1.553   4.789   8.952  0.6385 -0.1612  0.4379
   81SAPS  H19R 7559   1.495   4.702   8.990 -0.5484  0.3155 -0.2453
   81SAPS  H19S 7560   1.614   4.748   8.869  1.2528  0.3518  0.6336
   81SAPS  C220 7561   1.446   4.878   8.890  0.1020  0.5154 -0.2669
   81SAPS  H20R 7562   1.363   4.908   8.957 -2.0611 -2.5638 -1.4271
   81SAPS  H20S 7563   1.391   4.828   8.807 -1.4421 -0.0117  1.0468
   81SAPS  H20T 7564   1.495   4.969   8.849  1.4729 -1.1227 -2.3653
   81SAPS   C33 7565   0.818   4.842  10.406  0.4820  0.0453 -0.0656
   81SAPS   H3X 7566   0.839   4.948  10.379  1.4851 -0.6774 -2.1815
   81SAPS   H3Y 7567   0.726   4.825  10.346 -1.5376  2.2490  2.2773
   81SAPS   C34 7568   0.929   4.758  10.356  0.0069 -0.1879 -0.5165
   81SAPS   H4X 7569   0.915   4.649  10.369  1.3554 -0.1300  1.6543
   81SAPS   H4Y 7570   1.014   4.766  10.426 -1.3866 -0.4772  1.2416
   81SAPS   C35 7571   0.963   4.783  10.206 -0.7632  0.2920 -0.2107
   81SAPS   H5X 7572   1.061   4.735  10.186 -0.7216 -0.3293  1.4461
   81SAPS   H5Y 7573   0.987   4.892  10.198 -1.6115  0.7934  3.5843
   81SAPS   C36 7574   0.862   4.745  10.106  0.6460  1.0793 -0.2362
   81SAPS   H6X 7575   0.765   4.782  10.147  0.7009  0.2952  0.6124
   81SAPS   H6Y 7576   0.849   4.635  10.098  0.3798  1.1053 -0.1795
   81SAPS   C37 7577   0.890   4.786   9.960 -0.0262 -0.0929 -0.2363
   81SAPS   H7X 7578   0.991   4.747   9.934  1.0312  3.3686 -1.6131
   81SAPS   H7Y 7579   0.899   4.896   9.949  0.2561  0.0519  1.2848
   81SAPS   C38 7580   0.787   4.730   9.858  0.0438  0.2644 -0.1729
   81SAPS   H8X 7581   0.686   4.769   9.883 -0.6135 -1.1106 -0.6316
   81SAPS   H8Y 7582   0.784   4.620   9.875 -0.3168  0.5514  1.6378
   81SAPS   C39 7583   0.825   4.758   9.705 -0.0090 -0.1745  0.2985
   81SAPS   H9X 7584   0.934   4.741   9.694  0.4844  2.9830 -0.3054
   81SAPS   H9Y 7585   0.815   4.868   9.691  0.5335 -0.2164 -0.4650
   81SAPS  C310 7586   0.742   4.679   9.604 -0.2347 -1.0952 -0.1333
   81SAPS  H10X 7587   0.637   4.708   9.624  0.6894  1.9616  0.4706
   81SAPS  H10Y 7588   0.747   4.571   9.633  2.0970 -0.6857  1.1960
   81SAPS  C311 7589   0.765   4.712   9.458 -0.7826  0.2825 -0.8711
   81SAPS  H11X 7590   0.820   4.623   9.419  1.5196  1.8993 -1.4232
   81SAPS  H11Y 7591   0.841   4.792   9.445  1.0751 -1.3564 -0.3911
   81SAPS  C312 7592   0.642   4.721   9.369 -0.1491 -0.1834 -0.0050
   81SAPS  H12X 7593   0.570   4.799   9.402  1.6213  1.5644 -0.1738
   81SAPS  H12Y 7594   0.588   4.625   9.387 -0.3611  0.3409  2.3184
   81SAPS  C313 7595   0.681   4.722   9.221 -0.0095 -0.6321 -0.7415
   81SAPS  H13X 7596   0.758   4.644   9.199  1.9083  1.1458 -0.5123
   81SAPS  H13Y 7597   0.730   4.817   9.193  0.2349 -0.1227  1.3068
   81SAPS  C314 7598   0.572   4.696   9.124  0.0329  0.9592  0.5267
   81SAPS  H14X 7599   0.480   4.747   9.159 -0.9221  0.4182 -1.1385
   81SAPS  H14Y 7600   0.550   4.587   9.127  2.0295  0.5098  0.1103
   81SAPS  C315 7601   0.616   4.740   8.986 -0.0573 -0.1904 -0.1806
   81SAPS  H15X 7602   0.549   4.689   8.915 -0.1487  0.1649 -0.3486
   81SAPS  H15Y 7603   0.718   4.700   8.964  1.0835  1.0220  2.5949
   81SAPS  C316 7604   0.609   4.891   8.959  0.0053 -0.0020 -0.2652
   81SAPS  H16X 7605   0.686   4.941   9.021  0.6287 -1.1473 -0.1103
   81SAPS  H16Y 7606   0.514   4.925   9.008 -2.5883 -0.8115 -4.4748
   81SAPS  C317 7607   0.624   4.926   8.813 -0.0434 -0.7302 -0.2654
   81SAPS  H17X 7608   0.535   4.985   8.781  2.2303  2.6550 -0.6493
   81SAPS  H17Y 7609   0.619   4.831   8.757  1.1847 -1.2133  0.4333
   81SAPS  C318 7610   0.747   5.008   8.778  0.5929  0.0273  0.6095
   81SAPS  H18X 7611   0.843   4.957   8.800 -0.9543 -3.2703  0.0421
   81SAPS  H18Y 7612   0.751   5.109   8.823 -0.6175 -0.1861  1.2354
   81SAPS  H18Z 7613   0.757   5.030   8.670 -3.0873  2.1675  0.6255
   82SAPS     N 7614   0.206   3.318  10.978 -0.1306  0.4831  0.1016
   82SAPS   HN1 7615   0.116   3.360  10.947 -0.9435 -1.5166 -0.3196
   82SAPS   HN2 7616   0.250   3.268  10.898 -1.5798 -0.3612 -0.1839
   82SAPS   HN3 7617   0.181   3.246  11.048 -1.0954  0.6370 -0.0864
   82SAPS   C12 7618   0.303   3.417  11.027  0.2472  0.2141  0.4315
   82SAPS  H12A 7619   0.255   3.467  11.110 -1.9702 -1.6602  0.3176
   82SAPS   C13 7620   0.431   3.335  11.083  0.2050  0.3674  0.0297
   82SAPS  O13A 7621   0.429   3.210  11.103 -0.6884  0.4223 -0.0430
   82SAPS  O13B 7622   0.530   3.412  11.108  0.1982  0.8197  0.7316
   82SAPS   C11 7623   0.352   3.513  10.910 -0.7558 -0.1371  0.0582
   82SAPS  H11A 7624   0.384   3.459  10.818 -1.3315 -1.1140  0.4265
   82SAPS  H11B 7625   0.435   3.572  10.953 -2.0570  1.4689  0.4284
   82SAPS     P 7626   0.254   3.735  10.806  0.2225 -0.3758  0.2455
   82SAPS   O13 7627   0.136   3.769  10.723 -0.0229  0.0041 -0.0767
   82SAPS   O14 7628   0.281   3.837  10.910 -0.6873 -0.5888  0.4805
   82SAPS   O12 7629   0.244   3.598  10.876  0.4449 -0.6125  0.2036
   82SAPS   O11 7630   0.381   3.718  10.711 -0.3100  0.0095 -0.2676
   82SAPS    C1 7631   0.368   3.628  10.595  0.3394 -0.5444 -0.1242
   82SAPS    HA 7632   0.470   3.590  10.570 -0.4196 -3.0510  0.4752
   82SAPS    HB 7633   0.315   3.534  10.621 -0.7726 -0.8570 -3.2561
   82SAPS    C2 7634   0.301   3.704  10.475  0.1842  0.1183 -0.0784
   82SAPS    HS 7635   0.199   3.738  10.505  0.9766 -0.0650  2.9457
   82SAPS   O21 7636   0.297   3.621  10.357 -0.0675  0.6907 -0.8000
   82SAPS   C21 7637   0.197   3.550  10.336  0.0421 -0.1719 -0.4466
   82SAPS   O22 7638   0.103   3.534  10.408  0.7666 -0.5548 -0.5140
   82SAPS   C22 7639   0.223   3.498  10.195  0.6773  0.7240 -0.0069
   82SAPS   H2R 7640   0.236   3.577  10.118 -1.2475  0.4672 -0.6302
   82SAPS   H2S 7641   0.316   3.438  10.190  0.1834  0.0967 -2.9354
   82SAPS    C3 7642   0.360   3.844  10.448 -0.9240  0.3826 -0.2290
   82SAPS    HX 7643   0.469   3.841  10.470 -0.9872 -1.8130 -0.1276
   82SAPS    HY 7644   0.311   3.911  10.522 -1.7878 -0.3668 -0.1180
   82SAPS   O31 7645   0.339   3.890  10.316  0.1383 -0.3087  0.1248
   82SAPS   C31 7646   0.441   3.857  10.234 -0.1998 -0.9396  0.0357
   82SAPS   O32 7647   0.538   3.790  10.257 -0.3601 -0.1325 -1.0596
   82SAPS   C32 7648   0.418   3.918  10.098 -1.0081  0.1487 -0.0521
   82SAPS   H2X 7649   0.379   4.022  10.098  1.1693  0.9951 -0.7425
   82SAPS   H2Y 7650   0.348   3.860  10.034  0.8274 -2.2390  0.0628
   82SAPS   C23 7651   0.091   3.424  10.154 -0.0656  0.0064 -0.1471
   82SAPS   H3R 7652   0.010   3.498  10.147  0.0431  0.1395  0.0196
   82SAPS   H3S 7653   0.063   3.347  10.229  0.8599  0.1913  0.3947
   82SAPS   C24 7654   0.118   3.339  10.026 -0.2036 -0.5187  0.5315
   82SAPS   H4R 7655   0.199   3.267  10.050 -0.0902 -0.4832  0.2609
   82SAPS   H4S 7656   0.160   3.413   9.954  1.7794 -0.3098  1.8724
   82SAPS   C25 7657   0.003   3.257   9.970 -0.0363 -0.4880 -0.1170
   82SAPS   H5R 7658   0.007   3.156  10.015  1.6509  0.1386  1.1978
   82SAPS   C26 7659  -0.096   3.299   9.891 -0.0856 -0.1418 -1.2310
   82SAPS   H6R 7660  -0.178   3.230   9.865 -0.1285 -1.6685  2.6447
   82SAPS   C27 7661  -0.105   3.436   9.828  0.2413 -0.2620  0.0745
   82SAPS   H7R 7662  -0.005   3.452   9.783  0.0175 -1.9481 -1.0560
   82SAPS   H7S 7663  -0.129   3.506   9.911  0.2251  1.9954 -1.7863
   82SAPS   C28 7664  -0.200   3.466   9.717  0.4733  0.7310 -0.5408
   82SAPS   H8R 7665  -0.301   3.457   9.761  1.6035 -0.4239  1.9138
   82SAPS   C29 7666  -0.188   3.503   9.592  1.1430  0.8101  0.2201
   82SAPS   H9R 7667  -0.281   3.499   9.534 -0.3428 -0.0843  2.5681
   82SAPS  C210 7668  -0.064   3.533   9.510  0.2519  0.5057 -0.0475
   82SAPS  H10R 7669  -0.028   3.442   9.458  0.9310  1.3140 -0.9886
   82SAPS  H10S 7670   0.018   3.570   9.575  0.6799 -2.7063  1.3436
   82SAPS  C211 7671  -0.102   3.634   9.402 -0.4021 -0.2013 -0.7485
   82SAPS  H11R 7672  -0.143   3.581   9.315 -0.4117 -0.0977 -0.8070
   82SAPS  C212 7673  -0.087   3.769   9.391  0.2580  0.6308  0.4279
   82SAPS  H12R 7674  -0.134   3.815   9.303  1.7325 -0.3881 -0.9131
   82SAPS  C213 7675  -0.035   3.856   9.503 -1.0398  0.0561  0.1295
   82SAPS  H13R 7676   0.048   3.907   9.449  0.9657 -3.0210  0.1774
   82SAPS  H13S 7677   0.011   3.804   9.589  1.2109 -0.0600 -1.1094
   82SAPS  C214 7678  -0.136   3.956   9.553  0.3352 -0.4769  0.1468
   82SAPS  H14R 7679  -0.194   3.996   9.468  1.5022 -2.4473 -1.6350
   82SAPS  C215 7680  -0.155   3.998   9.680  0.3466 -0.5366 -0.4698
   82SAPS  H15R 7681  -0.236   4.070   9.702  0.4139  1.5825 -6.2656
   82SAPS  C216 7682  -0.074   3.954   9.795 -0.2174 -0.1148 -0.1647
   82SAPS  H16R 7683  -0.061   4.035   9.871  0.9409  0.2530 -0.7400
   82SAPS  H16S 7684   0.032   3.930   9.772  0.7682  3.6715  0.0159
   82SAPS  C217 7685  -0.141   3.837   9.875 -0.3377  0.2147  0.4663
   82SAPS  H17R 7686  -0.187   3.759   9.812  2.2953 -0.0615 -1.2029
   82SAPS  H17S 7687  -0.226   3.881   9.932 -1.1325 -2.0636  1.1062
   82SAPS  C218 7688  -0.060   3.786   9.995 -0.6149  0.0384 -0.0299
   82SAPS  H18R 7689   0.040   3.759   9.955  0.3701  1.4719  1.4220
   82SAPS  H18S 7690  -0.105   3.693  10.035  1.8349 -0.6732  1.1693
   82SAPS  C219 7691  -0.046   3.878  10.120  0.5270  0.1956 -0.5347
   82SAPS  H19R 7692  -0.154   3.879  10.146  0.4037  2.3998 -1.0197
   82SAPS  H19S 7693   0.000   3.974  10.089 -2.2457  0.8153 -2.9153
   82SAPS  C220 7694   0.037   3.815  10.231  0.0006 -0.2932 -0.3234
   82SAPS  H20R 7695   0.135   3.794  10.184 -0.0228 -3.0126  0.7422
   82SAPS  H20S 7696  -0.024   3.727  10.262 -1.3235  0.4723 -0.7107
   82SAPS  H20T 7697   0.034   3.888  10.314  0.7882  0.4797 -0.9641
   82SAPS   C33 7698   0.545   3.935  10.019  0.2155 -0.4173  0.8957
   82SAPS   H3X 7699   0.507   3.943   9.915  2.4064 -1.3596  0.0001
   82SAPS   H3Y 7700   0.612   3.846  10.015  1.3427  0.4149  0.9898
   82SAPS   C34 7701   0.625   4.066  10.042 -0.5559 -0.3048  1.0702
   82SAPS   H4X 7702   0.709   4.060   9.970 -0.3358 -2.8016  1.5043
   82SAPS   H4Y 7703   0.658   4.081  10.148  0.5876  2.7015  0.3591
   82SAPS   C35 7704   0.560   4.203  10.013 -0.2830 -1.0456 -0.4523
   82SAPS   H5X 7705   0.628   4.281  10.053  1.0856  0.0464 -4.7461
   82SAPS   H5Y 7706   0.468   4.210  10.076 -0.9460  0.5450 -1.5661
   82SAPS   C36 7707   0.554   4.236   9.865  0.4871 -0.0148  0.0062
   82SAPS   H6X 7708   0.487   4.156   9.828 -2.7367  2.0733  1.0870
   82SAPS   H6Y 7709   0.655   4.238   9.820 -0.2531  0.0226 -1.6605
   82SAPS   C37 7710   0.492   4.374   9.842 -0.0082 -0.2473 -0.0197
   82SAPS   H7X 7711   0.575   4.446   9.861 -0.5247  0.5043 -0.5709
   82SAPS   H7Y 7712   0.401   4.382   9.905 -0.3695  1.4544 -0.7245
   82SAPS   C38 7713   0.432   4.379   9.700 -0.3639 -0.2114  0.6592
   82SAPS   H8X 7714   0.381   4.477   9.698  0.5036  0.2298 -2.0850
   82SAPS   H8Y 7715   0.352   4.304   9.685 -0.4972  0.3024 -1.2766
   82SAPS   C39 7716   0.531   4.362   9.580  0.1442 -0.3698  0.1368
   82SAPS   H9X 7717   0.569   4.258   9.584  0.3362 -0.4319 -2.2547
   82SAPS   H9Y 7718   0.613   4.436   9.589 -0.5795  0.3239  1.2631
   82SAPS  C310 7719   0.467   4.390   9.439  0.1747  0.1792 -0.0821
   82SAPS  H10X 7720   0.555   4.391   9.372  0.7307  1.2015  0.6545
   82SAPS  H10Y 7721   0.419   4.489   9.438  0.5423  0.3537 -1.8232
   82SAPS  C311 7722   0.359   4.295   9.388  0.0746  0.3104 -0.5815
   82SAPS  H11X 7723   0.254   4.329   9.403  0.3515  1.8126 -1.9366
   82SAPS  H11Y 7724   0.362   4.206   9.455 -0.2222  0.9813  0.3457
   82SAPS  C312 7725   0.362   4.264   9.238  0.2464 -0.2145 -0.1595
   82SAPS  H12X 7726   0.301   4.172   9.226 -0.1157 -0.1872  1.3732
   82SAPS  H12Y 7727   0.468   4.234   9.229  0.2348 -0.5756  0.8943
   82SAPS  C313 7728   0.302   4.380   9.156 -0.2782 -0.7492 -0.3896
   82SAPS  H13X 7729   0.366   4.462   9.195 -0.5775  0.0250 -1.5425
   82SAPS  H13Y 7730   0.198   4.409   9.183  0.0995 -0.7244  1.1007
   82SAPS  C314 7731   0.317   4.375   9.006  0.2658 -0.1325 -0.2256
   82SAPS  H14X 7732   0.241   4.307   8.963 -0.0765  1.3367 -2.0345
   82SAPS  H14Y 7733   0.420   4.335   8.995  0.9789  1.0814  1.8054
   82SAPS  C315 7734   0.300   4.511   8.939  0.5138 -0.0243  0.0786
   82SAPS  H15X 7735   0.366   4.588   8.985 -2.6474  2.2220  0.9874
   82SAPS  H15Y 7736   0.196   4.545   8.957 -0.0003 -0.9359 -1.1070
   82SAPS  C316 7737   0.315   4.498   8.783 -0.4478 -0.1572 -0.1951
   82SAPS  H16X 7738   0.245   4.414   8.763  0.6249 -1.1917  0.3508
   82SAPS  H16Y 7739   0.419   4.470   8.757 -0.6216 -0.2853 -0.7618
   82SAPS  C317 7740   0.281   4.621   8.696 -0.0626  0.2061  0.4851
   82SAPS  H17X 7741   0.341   4.612   8.603 -1.1694  0.7468 -0.2912
   82SAPS  H17Y 7742   0.336   4.703   8.747 -0.9376 -1.1113  3.6426
   82SAPS  C318 7743   0.128   4.643   8.682  0.2151  0.4447 -0.2185
   82SAPS  H18X 7744   0.105   4.700   8.589 -1.1642  0.1913 -0.0468
   82SAPS  H18Y 7745   0.105   4.706   8.770 -0.3890  0.4351 -0.3687
   82SAPS  H18Z 7746   0.075   4.545   8.686  3.4308 -1.4110 -0.8911
   83SAPS     N 7747   1.372   5.074  11.424 -0.3306  0.4410  0.4219
   83SAPS   HN1 7748   1.353   5.168  11.464 -1.8911 -0.3667  1.6437
   83SAPS   HN2 7749   1.299   5.033  11.362  1.0920  1.6557 -2.1295
   83SAPS   HN3 7750   1.389   5.003  11.499 -0.1826  0.6603  0.5948
   83SAPS   C12 7751   1.492   5.084  11.342  0.3206  0.4467  0.1230
   83SAPS  H12A 7752   1.564   5.142  11.397  0.1692  0.9348 -0.1908
   83SAPS   C13 7753   1.564   4.949  11.303  0.7376 -1.2544 -0.1514
   83SAPS  O13A 7754   1.505   4.842  11.341 -0.3201  0.3074  0.0864
   83SAPS  O13B 7755   1.692   4.946  11.293 -0.0744 -0.3860  0.5940
   83SAPS   C11 7756   1.456   5.155  11.210 -0.6951  0.1108 -0.1117
   83SAPS  H11A 7757   1.544   5.189  11.152 -0.0396 -0.4563  0.5517
   83SAPS  H11B 7758   1.413   5.255  11.232  1.2113  1.1281 -0.8816
   83SAPS     P 7759   1.282   5.131  11.008 -0.2400 -0.1979 -0.1872
   83SAPS   O13 7760   1.198   5.013  10.971 -0.0846 -0.8244 -0.7569
   83SAPS   O14 7761   1.224   5.265  11.046  0.4232  0.1837  0.0249
   83SAPS   O12 7762   1.385   5.078  11.121  0.7583 -0.4280 -0.4267
   83SAPS   O11 7763   1.372   5.156  10.888  0.3542 -0.2887  0.4653
   83SAPS    C1 7764   1.449   5.276  10.875  0.8878 -0.6764  0.4143
   83SAPS    HA 7765   1.405   5.362  10.930 -0.1615 -1.4028  0.7298
   83SAPS    HB 7766   1.550   5.262  10.919  1.1532  0.8430  0.3044
   83SAPS    C2 7767   1.473   5.318  10.726 -0.5746 -0.3670  0.2938
   83SAPS    HS 7768   1.489   5.428  10.727 -0.1404 -0.4288  0.2187
   83SAPS   O21 7769   1.358   5.286  10.643 -0.5052  0.2187 -0.2494
   83SAPS   C21 7770   1.246   5.355  10.654  0.2503  0.0525  0.4593
   83SAPS   O22 7771   1.246   5.465  10.708 -0.4675  0.2528  0.1163
   83SAPS   C22 7772   1.128   5.288  10.575  0.2310 -0.7437 -0.3665
   83SAPS   H2R 7773   1.076   5.217  10.643 -1.4636  0.1995 -0.6376
   83SAPS   H2S 7774   1.059   5.369  10.543  1.3399  1.3223  2.2351
   83SAPS    C3 7775   1.598   5.249  10.664  0.1803 -0.4643 -0.2917
   83SAPS    HX 7776   1.579   5.145  10.629 -0.5677 -0.2215 -0.6034
   83SAPS    HY 7777   1.673   5.252  10.746 -1.2870  0.7452  1.0383
   83SAPS   O31 7778   1.645   5.316  10.544 -0.0202 -0.0343 -0.0836
   83SAPS   C31 7779   1.762   5.268  10.500  0.0229  0.1039 -0.1426
   83SAPS   O32 7780   1.823   5.180  10.558  0.6644  0.3471  0.2945
   83SAPS   C32 7781   1.822   5.343  10.382 -0.0448  0.3835 -0.0710
   83SAPS   H2X 7782   1.846   5.445  10.416  0.4593 -0.2384  1.4602
   83SAPS   H2Y 7783   1.744   5.352  10.303 -1.0887 -1.6189  0.6699
   83SAPS   C23 7784   1.175   5.205  10.450 -0.3257  0.1659 -0.2682
   83SAPS   H3R 7785   1.194   5.102  10.485  0.3112 -0.5220 -2.5405
   83SAPS   H3S 7786   1.268   5.254  10.413 -0.2686 -0.7012 -1.2856
   83SAPS   C24 7787   1.075   5.181  10.343  0.1723 -0.1795 -0.2222
   83SAPS   H4R 7788   0.976   5.153  10.386 -0.3383  0.4532 -0.9818
   83SAPS   H4S 7789   1.099   5.097  10.273  0.6497 -0.1457 -0.1014
   83SAPS   C25 7790   1.051   5.311  10.271  0.0815  0.2190  0.1031
   83SAPS   H5R 7791   1.031   5.391  10.345  0.1901  0.3647 -0.0259
   83SAPS   C26 7792   1.058   5.328  10.138 -0.2783 -0.2619 -0.2940
   83SAPS   H6R 7793   1.044   5.430  10.101 -0.1292  0.5245  1.7724
   83SAPS   C27 7794   1.102   5.222  10.033 -0.2974  0.7903  0.1672
   83SAPS   H7R 7795   1.086   5.115  10.059  1.6115 -0.0520 -1.9707
   83SAPS   H7S 7796   1.209   5.225  10.005  0.4638 -0.0396  2.8110
   83SAPS   C28 7797   1.012   5.266   9.917  1.3366  0.6424 -0.2266
   83SAPS   H8R 7798   0.905   5.273   9.943  1.7500  0.3380  1.6598
   83SAPS   C29 7799   1.047   5.275   9.786 -0.6130 -0.1407 -0.2268
   83SAPS   H9R 7800   0.959   5.290   9.721  1.4992  3.0786 -2.4583
   83SAPS  C210 7801   1.184   5.258   9.726 -0.0285  0.3909 -0.0109
   83SAPS  H10R 7802   1.265   5.292   9.794 -1.5543  2.5258  0.8012
   83SAPS  H10S 7803   1.196   5.322   9.636  2.7989 -1.4074 -0.9583
   83SAPS  C211 7804   1.208   5.116   9.686  0.4981  0.4362  0.8225
   83SAPS  H11R 7805   1.231   5.050   9.771  0.2172 -0.1433  0.4501
   83SAPS  C212 7806   1.218   5.064   9.567 -0.2678 -0.3058  1.0025
   83SAPS  H12R 7807   1.253   4.962   9.546 -0.8964  0.0581 -2.0537
   83SAPS  C213 7808   1.211   5.134   9.432  0.5114  0.4347 -0.4173
   83SAPS  H13R 7809   1.282   5.095   9.356 -0.2839 -1.3736 -0.2432
   83SAPS  H13S 7810   1.242   5.241   9.440  0.7556  0.3780 -0.6248
   83SAPS  C214 7811   1.067   5.126   9.391  0.7289  0.2172 -0.2041
   83SAPS  H14R 7812   0.999   5.187   9.452 -1.4553 -2.8400  0.5198
   83SAPS  C215 7813   1.015   5.056   9.290 -0.0216  0.2056 -0.1442
   83SAPS  H15R 7814   0.905   5.056   9.284 -0.1819  2.4797  1.9954
   83SAPS  C216 7815   1.090   4.969   9.202 -0.0902  0.2876 -0.3916
   83SAPS  H16R 7816   1.149   4.901   9.267  0.5036  1.6771  0.5566
   83SAPS  H16S 7817   1.158   5.029   9.138  0.2927 -0.6066 -0.8236
   83SAPS  C217 7818   1.003   4.877   9.111  0.6743  0.3755  0.9058
   83SAPS  H17R 7819   0.946   4.937   9.037  1.6521  0.2727  0.0456
   83SAPS  H17S 7820   0.924   4.821   9.164 -0.6967  0.0617 -1.4049
   83SAPS  C218 7821   1.093   4.770   9.035  0.5274 -0.1578 -0.0149
   83SAPS  H18R 7822   1.143   4.711   9.115  1.0648 -0.4512 -0.5616
   83SAPS  H18S 7823   1.165   4.824   8.969 -0.5372  3.8569  1.9379
   83SAPS  C219 7824   1.013   4.680   8.943  0.5242 -0.2682 -0.0201
   83SAPS  H19R 7825   0.946   4.742   8.880  2.0790  2.1347  0.5859
   83SAPS  H19S 7826   0.942   4.623   9.007 -2.6564  2.0305 -1.3816
   83SAPS  C220 7827   1.098   4.604   8.841  0.1558 -0.3416  0.1549
   83SAPS  H20R 7828   1.041   4.518   8.800  2.1087 -0.9377 -1.4037
   83SAPS  H20S 7829   1.192   4.566   8.886 -0.6611 -0.2289  1.9839
   83SAPS  H20T 7830   1.129   4.669   8.756 -2.7284  0.7866 -0.1056
   83SAPS   C33 7831   1.948   5.278  10.320  0.6346  0.1498 -0.5221
   83SAPS   H3X 7832   1.934   5.171  10.295 -0.5082 -0.0701  0.9636
   83SAPS   H3Y 7833   2.032   5.300  10.389  0.6932 -1.7516  0.0285
   83SAPS   C34 7834   1.966   5.348  10.181  0.1371  0.4197 -0.1392
   83SAPS   H4X 7835   1.970   5.456  10.206  0.0553  0.6746 -1.1929
   83SAPS   H4Y 7836   1.877   5.346  10.114 -0.0261  0.7331  0.0691
   83SAPS   C35 7837   2.098   5.298  10.114 -0.1796  0.3087  0.1124
   83SAPS   H5X 7838   2.080   5.190  10.091  0.3404 -0.0662  1.4321
   83SAPS   H5Y 7839   2.188   5.308  10.178 -0.2391  4.1451 -0.3340
   83SAPS   C36 7840   2.140   5.373   9.984 -0.3057 -0.7657  0.1523
   83SAPS   H6X 7841   2.054   5.380   9.915  0.2726  1.0744 -0.4001
   83SAPS   H6Y 7842   2.223   5.319   9.933 -0.6990 -1.1327 -0.0986
   83SAPS   C37 7843   2.197   5.505  10.023  0.2251  0.5730 -1.0197
   83SAPS   H7X 7844   2.275   5.483  10.099 -1.8673 -0.4184  0.8794
   83SAPS   H7Y 7845   2.116   5.563  10.072  1.6815  0.5105  1.5873
   83SAPS   C38 7846   2.268   5.581   9.903  0.1513 -0.4405 -0.3234
   83SAPS   H8X 7847   2.202   5.578   9.814  0.7507 -0.0070 -0.7903
   83SAPS   H8Y 7848   2.350   5.516   9.866  1.0485  0.4775  0.0276
   83SAPS   C39 7849   2.309   5.726   9.930 -0.3011  0.4681 -0.3392
   83SAPS   H9X 7850   2.375   5.734  10.018 -0.5137  1.0905 -0.2358
   83SAPS   H9Y 7851   2.209   5.764   9.961 -2.1847 -3.8613 -0.5828
   83SAPS  C310 7852   2.367   5.792   9.804 -0.6335 -0.9075 -0.6530
   83SAPS  H10X 7853   2.334   5.743   9.710  1.8581 -2.4059 -0.8204
   83SAPS  H10Y 7854   2.476   5.769   9.813 -0.2877  1.0332  0.5062
   83SAPS  C311 7855   2.340   5.942   9.802  0.1002  0.3330 -0.2118
   83SAPS  H11X 7856   2.405   6.003   9.868  0.3828  1.0385 -1.1286
   83SAPS  H11Y 7857   2.236   5.957   9.836 -0.1571 -0.2843 -0.7165
   83SAPS  C312 7858   2.347   6.005   9.655 -0.3670 -0.0094  0.3131
   83SAPS  H12X 7859   2.319   6.112   9.668 -0.2389 -0.1991  2.1841
   83SAPS  H12Y 7860   2.262   5.960   9.599 -0.0912 -0.4647  0.2588
   83SAPS  C313 7861   2.478   6.002   9.585  0.5317  0.6534  0.2873
   83SAPS  H13X 7862   2.538   5.919   9.629 -0.1037  0.2195  0.3402
   83SAPS  H13Y 7863   2.540   6.091   9.610  0.2561  1.1307 -0.7001
   83SAPS  C314 7864   2.447   5.991   9.440 -0.2407  0.2969 -0.5742
   83SAPS  H14X 7865   2.388   5.897   9.434  2.2347 -1.3450 -0.1633
   83SAPS  H14Y 7866   2.542   5.970   9.386  0.6653 -0.2796  1.1756
   83SAPS  C315 7867   2.382   6.109   9.369  0.3040 -0.0549  0.1480
   83SAPS  H15X 7868   2.279   6.123   9.408 -0.3473  1.3593 -2.0130
   83SAPS  H15Y 7869   2.357   6.079   9.265  2.5839 -0.6482 -0.2693
   83SAPS  C316 7870   2.460   6.243   9.357  0.8865 -0.1807 -0.5119
   83SAPS  H16X 7871   2.565   6.224   9.326  0.6486 -1.8903 -0.3546
   83SAPS  H16Y 7872   2.454   6.301   9.451 -0.7820 -1.1509  0.0156
   83SAPS  C317 7873   2.400   6.337   9.247  0.1466  0.7572  0.6426
   83SAPS  H17X 7874   2.434   6.442   9.258  0.4819  0.7498 -0.3065
   83SAPS  H17Y 7875   2.290   6.337   9.258  0.1099 -0.0561  0.3155
   83SAPS  C318 7876   2.438   6.279   9.102 -0.6184 -0.6473  0.9285
   83SAPS  H18X 7877   2.423   6.354   9.021 -0.3046  1.3872  2.6903
   83SAPS  H18Y 7878   2.383   6.188   9.071  0.7861 -1.2987  0.3399
   83SAPS  H18Z 7879   2.545   6.253   9.103  0.1702  2.3591  0.7714
   84SAPS     N 7880   3.160   4.530  11.347 -0.0545  0.2402  0.2442
   84SAPS   HN1 7881   3.132   4.478  11.261 -0.5039  0.3905  0.2978
   84SAPS   HN2 7882   3.261   4.521  11.373 -0.4397 -0.5252  1.5265
   84SAPS   HN3 7883   3.118   4.473  11.423 -2.8149 -0.0699 -1.4768
   84SAPS   C12 7884   3.109   4.672  11.346  0.6297 -0.2870  1.1343
   84SAPS  H12A 7885   3.020   4.664  11.286  1.5110 -2.1765  0.0615
   84SAPS   C13 7886   3.081   4.731  11.489  0.1661 -0.1967 -0.0527
   84SAPS  O13A 7887   3.130   4.671  11.581 -0.3070 -0.2634 -0.1506
   84SAPS  O13B 7888   3.023   4.838  11.508  0.3371 -0.1226  0.0406
   84SAPS   C11 7889   3.207   4.759  11.263 -0.4194 -0.1758  0.0430
   84SAPS  H11A 7890   3.300   4.765  11.324  0.1998 -1.0871 -0.7931
   84SAPS  H11B 7891   3.168   4.863  11.255 -0.1586 -0.1322 -0.7256
   84SAPS     P 7892   3.344   4.780  11.042  0.0410 -0.3347 -0.4463
   84SAPS   O13 7893   3.355   4.921  11.100 -0.3058  0.3662 -0.0222
   84SAPS   O14 7894   3.471   4.705  11.049 -0.0408  0.1981 -0.4147
   84SAPS   O12 7895   3.231   4.709  11.126 -0.0914 -0.0069 -0.1257
   84SAPS   O11 7896   3.291   4.780  10.896 -0.3742  0.0261 -0.0389
   84SAPS    C1 7897   3.226   4.664  10.834  0.4613  0.0359  0.2575
   84SAPS    HA 7898   3.153   4.614  10.901  0.6797 -0.9864 -0.2688
   84SAPS    HB 7899   3.174   4.702  10.744  0.1396 -0.7103  0.1340
   84SAPS    C2 7900   3.329   4.558  10.795 -0.4520  0.1579  0.1522
   84SAPS    HS 7901   3.400   4.546  10.879 -0.3539 -1.8311 -0.1851
   84SAPS   O21 7902   3.410   4.603  10.688 -0.6078  0.2358 -0.3836
   84SAPS   C21 7903   3.527   4.540  10.665  0.1455 -0.0112 -0.5304
   84SAPS   O22 7904   3.568   4.447  10.728 -0.2730  0.1574 -0.1620
   84SAPS   C22 7905   3.597   4.610  10.554 -0.0266 -0.5723 -0.1257
   84SAPS   H2R 7906   3.574   4.548  10.464  0.5514 -0.9694 -0.0043
   84SAPS   H2S 7907   3.563   4.715  10.546 -0.8508 -0.7380  1.0804
   84SAPS    C3 7908   3.267   4.414  10.757  0.5465  0.6784 -0.0131
   84SAPS    HX 7909   3.213   4.387  10.849  0.2564 -2.1475 -0.9574
   84SAPS    HY 7910   3.352   4.343  10.745 -1.4614 -1.9730  0.9787
   84SAPS   O31 7911   3.172   4.417  10.644  0.0932 -0.1880 -0.4051
   84SAPS   C31 7912   3.219   4.390  10.519 -0.3889 -0.0819  0.2002
   84SAPS   O32 7913   3.336   4.365  10.503 -0.2678  0.3147 -0.0119
   84SAPS   C32 7914   3.104   4.386  10.416 -0.5259  0.1505 -0.2928
   84SAPS   H2X 7915   3.055   4.485  10.422 -1.1404 -0.1269 -0.6303
   84SAPS   H2Y 7916   3.039   4.303  10.451 -0.8191  1.1673  1.6144
   84SAPS   C23 7917   3.753   4.602  10.567  0.4309 -0.6690  0.3206
   84SAPS   H3R 7918   3.784   4.496  10.581 -1.6183 -1.0783  2.0239
   84SAPS   H3S 7919   3.794   4.652  10.657  1.8191 -0.4730 -0.4048
   84SAPS   C24 7920   3.826   4.643  10.436 -0.6612  0.3411 -0.1203
   84SAPS   H4R 7921   3.811   4.567  10.356 -2.6719  1.9676 -1.3359
   84SAPS   H4S 7922   3.933   4.627  10.462 -0.7699 -1.0339 -0.4794
   84SAPS   C25 7923   3.795   4.781  10.382 -0.6128  1.2350 -0.3231
   84SAPS   H5R 7924   3.859   4.862  10.417 -0.7365  1.0235  0.4010
   84SAPS   C26 7925   3.710   4.810  10.284  0.6941 -0.7530 -0.6756
   84SAPS   H6R 7926   3.701   4.913  10.246  0.4424 -0.1899  0.8772
   84SAPS   C27 7927   3.623   4.710  10.219  0.3120  1.2875  0.0415
   84SAPS   H7R 7928   3.515   4.731  10.239 -0.3439 -0.8864 -1.0128
   84SAPS   H7S 7929   3.650   4.608  10.254  1.6109  2.2085  1.8085
   84SAPS   C28 7930   3.636   4.706  10.069  0.1821  0.1785 -0.3820
   84SAPS   H8R 7931   3.727   4.756  10.032 -0.3347 -0.3654 -2.4589
   84SAPS   C29 7932   3.557   4.646   9.985 -0.0246  0.8322  0.2492
   84SAPS   H9R 7933   3.582   4.653   9.878  1.6697  3.2130  0.7784
   84SAPS  C210 7934   3.434   4.561  10.019  0.0935  0.5094  0.2067
   84SAPS  H10R 7935   3.405   4.578  10.125 -1.2907  2.4269 -0.4455
   84SAPS  H10S 7936   3.464   4.454  10.021 -0.3897  0.3632 -0.1839
   84SAPS  C211 7937   3.310   4.585   9.945  0.8080 -0.9035 -0.0591
   84SAPS  H11R 7938   3.239   4.657   9.990  0.0213 -0.7463 -1.5266
   84SAPS  C212 7939   3.260   4.532   9.828  0.3316  0.5900 -0.7655
   84SAPS  H12R 7940   3.162   4.573   9.801 -1.8579 -3.2285  0.9528
   84SAPS  C213 7941   3.340   4.437   9.745  0.0342 -0.6396 -0.0946
   84SAPS  H13R 7942   3.289   4.338   9.743  1.2967 -1.3064  0.5998
   84SAPS  H13S 7943   3.435   4.410   9.794 -0.2767 -2.0590 -0.2440
   84SAPS  C214 7944   3.366   4.492   9.606  0.7064  0.0105  0.2310
   84SAPS  H14R 7945   3.441   4.572   9.607  0.2044  0.4978 -0.6911
   84SAPS  C215 7946   3.307   4.462   9.492  0.0430 -0.0385 -0.6519
   84SAPS  H15R 7947   3.345   4.511   9.401 -1.2752  0.7877 -0.7708
   84SAPS  C216 7948   3.199   4.360   9.463  0.8606  0.6473  0.5459
   84SAPS  H16R 7949   3.142   4.349   9.558 -0.2742  2.4579  0.0940
   84SAPS  H16S 7950   3.243   4.264   9.428  1.4520  1.7504 -1.8221
   84SAPS  C217 7951   3.094   4.405   9.357  0.2671 -0.8562  0.2622
   84SAPS  H17R 7952   3.046   4.499   9.390  1.8168 -0.5553  1.7471
   84SAPS  H17S 7953   3.016   4.325   9.357 -0.9687  0.3420 -1.0522
   84SAPS  C218 7954   3.148   4.414   9.207  0.8129 -0.3732  0.4328
   84SAPS  H18R 7955   3.236   4.481   9.203  2.3095 -2.3483 -0.3208
   84SAPS  H18S 7956   3.063   4.463   9.154  0.2586 -0.9168  0.8126
   84SAPS  C219 7957   3.192   4.287   9.142  0.1323  0.2207  0.1442
   84SAPS  H19R 7958   3.108   4.214   9.143  1.0621 -0.8440  0.4874
   84SAPS  H19S 7959   3.276   4.248   9.203 -2.5646 -0.9268  3.2921
   84SAPS  C220 7960   3.233   4.316   8.991 -0.1082 -0.5253  0.2772
   84SAPS  H20R 7961   3.199   4.415   8.954  0.5357  0.3288  1.9056
   84SAPS  H20S 7962   3.190   4.242   8.920  1.8425 -1.6569  0.2409
   84SAPS  H20T 7963   3.343   4.311   8.976 -0.1649 -0.4403 -0.1758
   84SAPS   C33 7964   3.156   4.351  10.280 -0.9222  0.5401 -0.0277
   84SAPS   H3X 7965   3.216   4.259  10.292 -0.7529  0.6948  0.3044
   84SAPS   H3Y 7966   3.228   4.421  10.231 -1.2580  0.5866 -0.4613
   84SAPS   C34 7967   3.043   4.338  10.171  0.2509 -0.0401 -0.9253
   84SAPS   H4X 7968   3.005   4.437  10.137  0.9999 -0.2461 -2.4288
   84SAPS   H4Y 7969   2.954   4.283  10.205  1.5922 -0.7691  1.5070
   84SAPS   C35 7970   3.093   4.246  10.054  0.0577  0.8159 -0.2168
   84SAPS   H5X 7971   3.099   4.137  10.077 -0.8134  0.5088 -1.4387
   84SAPS   H5Y 7972   3.192   4.273  10.013 -0.1244  0.2772 -1.0245
   84SAPS   C36 7973   2.993   4.242   9.934  0.6335 -0.4519 -0.3159
   84SAPS   H6X 7974   2.990   4.348   9.900  0.1143 -0.8949 -1.6514
   84SAPS   H6Y 7975   2.899   4.212   9.985  0.0351  0.5230 -0.8317
   84SAPS   C37 7976   3.042   4.147   9.821 -0.1541  0.3233 -0.1499
   84SAPS   H7X 7977   3.054   4.048   9.870 -0.8689  0.7859  0.9847
   84SAPS   H7Y 7978   3.137   4.192   9.784 -0.9520  0.8240 -1.5953
   84SAPS   C38 7979   2.944   4.149   9.705  0.2658  0.0874 -0.0745
   84SAPS   H8X 7980   2.934   4.249   9.660 -0.5575  0.5528  1.0971
   84SAPS   H8Y 7981   2.846   4.108   9.739 -0.2408 -1.3142 -3.0173
   84SAPS   C39 7982   3.005   4.069   9.585  0.2993  0.5261 -0.2458
   84SAPS   H9X 7983   3.007   3.970   9.634  0.8587  0.4802 -0.3579
   84SAPS   H9Y 7984   3.106   4.112   9.566 -0.8993  3.1552 -0.8970
   84SAPS  C310 7985   2.924   4.080   9.458 -0.0297  0.5394 -0.1912
   84SAPS  H10X 7986   2.899   4.180   9.419  0.0324  0.6302  0.0026
   84SAPS  H10Y 7987   2.827   4.029   9.479  0.1265  1.3540  2.7839
   84SAPS  C311 7988   3.004   3.999   9.341  0.7028  0.3251 -0.9830
   84SAPS  H11X 7989   3.035   3.901   9.385  1.5833  1.1125  0.1834
   84SAPS  H11Y 7990   3.091   4.060   9.310 -0.1409  2.0714 -0.0441
   84SAPS  C312 7991   2.919   3.974   9.218  0.5588  0.2659 -0.6390
   84SAPS  H12X 7992   2.871   4.070   9.190  0.6496  0.7828  0.9210
   84SAPS  H12Y 7993   2.845   3.898   9.251 -0.6555  1.5087 -0.4696
   84SAPS  C313 7994   2.992   3.901   9.104  0.4067  0.6092 -0.0551
   84SAPS  H13X 7995   3.020   3.799   9.140 -0.9312  0.2809  0.0908
   84SAPS  H13Y 7996   3.084   3.958   9.080  1.6109 -1.2469  0.0020
   84SAPS  C314 7997   2.898   3.873   8.989  0.0893 -1.3058 -0.1063
   84SAPS  H14X 7998   2.861   3.974   8.963 -4.4880 -1.5733  4.5381
   84SAPS  H14Y 7999   2.811   3.807   9.012 -1.4104  0.2237 -1.2893
   84SAPS  C315 8000   2.981   3.807   8.876 -0.0644 -0.2771 -0.1056
   84SAPS  H15X 8001   2.910   3.772   8.798 -1.1371  1.2910  0.1579
   84SAPS  H15Y 8002   3.041   3.719   8.910  1.2601  0.1064 -1.4080
   84SAPS  C316 8003   3.058   3.913   8.802 -0.1843  0.4112 -0.2654
   84SAPS  H16X 8004   3.145   3.936   8.867 -0.1206 -2.6950  0.8135
   84SAPS  H16Y 8005   3.002   4.007   8.783 -1.4288 -0.2409  0.1090
   84SAPS  C317 8006   3.116   3.866   8.672  0.1178 -0.0664 -0.7489
   84SAPS  H17X 8007   3.036   3.866   8.595 -0.7277  0.9317  0.1339
   84SAPS  H17Y 8008   3.159   3.764   8.681 -0.7583 -0.4868 -1.2351
   84SAPS  C318 8009   3.216   3.978   8.637 -0.0513 -0.2410 -0.5776
   84SAPS  H18X 8010   3.165   4.075   8.650 -0.3655 -0.6924  1.8398
   84SAPS  H18Y 8011   3.238   3.966   8.528  0.6239  0.2967 -0.4986
   84SAPS  H18Z 8012   3.303   3.975   8.705 -0.4101  0.1484 -0.0992
   85SAPS     N 8013   0.594   6.219  11.067 -0.5831 -0.1137 -0.7314
   85SAPS   HN1 8014   0.512   6.242  11.007 -1.6849  1.7643  1.4520
   85SAPS   HN2 8015   0.645   6.304  11.096  2.1912 -1.8304 -0.3518
   85SAPS   HN3 8016   0.658   6.151  11.020  0.9182 -0.4342  1.6761
   85SAPS   C12 8017   0.548   6.152  11.193  0.0295 -0.0070 -0.0815
   85SAPS  H12A 8018   0.529   6.046  11.180  0.0000 -0.2266  1.6395
   85SAPS   C13 8019   0.664   6.146  11.298  0.5999  0.6633 -0.0929
   85SAPS  O13A 8020   0.767   6.217  11.278 -0.0786 -0.0298 -0.1517
   85SAPS  O13B 8021   0.664   6.068  11.398 -0.3880  0.6971  0.1053
   85SAPS   C11 8022   0.429   6.223  11.258 -0.6041 -0.5044  0.3157
   85SAPS  H11A 8023   0.469   6.326  11.270 -0.9390 -0.4201  0.7030
   85SAPS  H11B 8024   0.412   6.179  11.359  0.1986 -0.2971  0.5485
   85SAPS     P 8025   0.258   6.317  11.078  0.4213  0.1648 -0.0281
   85SAPS   O13 8026   0.121   6.291  11.029  0.9561  0.1278 -0.9544
   85SAPS   O14 8027   0.291   6.455  11.114 -0.2566  0.1145  0.0070
   85SAPS   O12 8028   0.309   6.210  11.185  0.2596 -0.2455 -0.0148
   85SAPS   O11 8029   0.361   6.277  10.966  0.0007 -0.1055 -0.1742
   85SAPS    C1 8030   0.331   6.291  10.825 -0.4002  0.6077  0.2859
   85SAPS    HA 8031   0.384   6.213  10.766 -0.2078 -0.3927  1.7495
   85SAPS    HB 8032   0.228   6.255  10.802 -0.9768  1.1561  1.9743
   85SAPS    C2 8033   0.363   6.429  10.780 -0.0433 -0.0608 -0.5623
   85SAPS    HS 8034   0.284   6.498  10.817 -0.2105  0.0293 -1.0903
   85SAPS   O21 8035   0.376   6.430  10.639  0.4232  0.3018 -0.1633
   85SAPS   C21 8036   0.276   6.379  10.568 -0.9239 -0.1434 -0.8556
   85SAPS   O22 8037   0.158   6.376  10.602 -0.2990  0.0533  0.0052
   85SAPS   C22 8038   0.334   6.353  10.432 -0.3624  0.7441  0.5196
   85SAPS   H2R 8039   0.378   6.448  10.394  0.4722  0.8936  1.8121
   85SAPS   H2S 8040   0.423   6.288  10.446 -2.4717 -2.3100  0.2712
   85SAPS    C3 8041   0.501   6.475  10.848  1.0681  0.3217  0.2648
   85SAPS    HX 8042   0.478   6.474  10.957  0.7862  0.2083  0.2032
   85SAPS    HY 8043   0.512   6.580  10.812 -0.0181  0.0640 -0.8469
   85SAPS   O31 8044   0.602   6.371  10.819  0.2887  0.3262 -0.2681
   85SAPS   C31 8045   0.680   6.396  10.711 -0.4594 -0.5672 -0.2443
   85SAPS   O32 8046   0.697   6.508  10.663  0.0792 -0.8965 -0.3603
   85SAPS   C32 8047   0.753   6.272  10.663 -0.6071 -1.0240  0.7349
   85SAPS   H2X 8048   0.674   6.197  10.641 -1.3264 -0.2314  0.5754
   85SAPS   H2Y 8049   0.822   6.251  10.747 -0.2599  0.5386  0.8585
   85SAPS   C23 8050   0.235   6.284  10.337  0.4173 -1.0052  0.1031
   85SAPS   H3R 8051   0.146   6.346  10.315 -1.3816 -3.5957 -0.0373
   85SAPS   H3S 8052   0.192   6.193  10.383  1.4024 -1.2427  0.5648
   85SAPS   C24 8053   0.290   6.247  10.199  0.1393 -0.0992 -0.1246
   85SAPS   H4R 8054   0.212   6.195  10.139 -0.9231  1.5986 -0.2335
   85SAPS   H4S 8055   0.379   6.181  10.213 -0.3973 -1.1527 -1.5407
   85SAPS   C25 8056   0.334   6.368  10.124  0.1145  0.6272  0.0458
   85SAPS   H5R 8057   0.396   6.435  10.185 -0.8851  1.6409 -0.0356
   85SAPS   C26 8058   0.307   6.402  10.002  0.5092 -0.4024 -0.2180
   85SAPS   H6R 8059   0.345   6.498   9.965 -2.9398  0.9302 -0.5072
   85SAPS   C27 8060   0.215   6.325   9.900 -1.0012  0.4748  0.1452
   85SAPS   H7R 8061   0.187   6.397   9.820 -0.1838 -0.4018 -0.9496
   85SAPS   H7S 8062   0.127   6.290   9.958 -2.1700  2.5470 -0.3590
   85SAPS   C28 8063   0.288   6.209   9.833 -0.1076  0.2614  1.2913
   85SAPS   H8R 8064   0.349   6.144   9.898 -1.9022 -4.1531 -1.2414
   85SAPS   C29 8065   0.283   6.174   9.706 -0.2604 -0.9297  0.6545
   85SAPS   H9R 8066   0.322   6.077   9.672 -2.5323 -1.8869  0.6465
   85SAPS  C210 8067   0.201   6.247   9.598 -0.6294  0.1924 -0.0667
   85SAPS  H10R 8068   0.098   6.277   9.627 -0.4311  0.5925  0.2159
   85SAPS  H10S 8069   0.180   6.170   9.521  2.2338 -0.7568  0.0503
   85SAPS  C211 8070   0.266   6.377   9.542  0.3282  0.3688  0.6089
   85SAPS  H11R 8071   0.319   6.445   9.611 -0.5231  1.4969  0.1657
   85SAPS  C212 8072   0.263   6.419   9.410 -1.2485 -0.1956  0.1585
   85SAPS  H12R 8073   0.316   6.512   9.384  0.1330 -1.0813 -0.2010
   85SAPS  C213 8074   0.201   6.342   9.293 -0.6432  0.2113 -0.4788
   85SAPS  H13R 8075   0.129   6.411   9.243  0.7250  0.7042 -1.8201
   85SAPS  H13S 8076   0.133   6.264   9.332 -2.0160  1.3992 -0.4413
   85SAPS  C214 8077   0.300   6.282   9.198 -0.0248  0.2834 -0.3490
   85SAPS  H14R 8078   0.402   6.276   9.239  0.5299  3.3576 -1.0954
   85SAPS  C215 8079   0.272   6.266   9.061 -0.1354 -0.0262  0.0401
   85SAPS  H15R 8080   0.354   6.224   9.000  0.8009  0.6986  0.7725
   85SAPS  C216 8081   0.144   6.287   8.985 -0.0712  0.1904 -0.2792
   85SAPS  H16R 8082   0.063   6.316   9.056 -1.1331 -1.4133 -0.8036
   85SAPS  H16S 8083   0.106   6.206   8.919 -1.7135  0.6255  0.0907
   85SAPS  C217 8084   0.163   6.409   8.892 -0.2304 -0.4431 -0.6329
   85SAPS  H17R 8085   0.244   6.384   8.820  1.2949 -1.4661  1.3937
   85SAPS  H17S 8086   0.205   6.499   8.942 -1.0798  0.4450 -1.4804
   85SAPS  C218 8087   0.033   6.458   8.817 -0.2112 -0.6104 -0.5883
   85SAPS  H18R 8088   0.061   6.549   8.760  1.3192  0.7660  2.2469
   85SAPS  H18S 8089  -0.037   6.492   8.896 -0.4791 -0.8788 -0.7071
   85SAPS  C219 8090  -0.030   6.345   8.734  0.2905  0.3983 -0.9475
   85SAPS  H19R 8091  -0.102   6.286   8.795  0.3949 -0.4298 -1.6069
   85SAPS  H19S 8092   0.048   6.269   8.713  1.4486  0.7076  1.9819
   85SAPS  C220 8093  -0.094   6.385   8.599  0.6545 -0.2001  0.4623
   85SAPS  H20R 8094  -0.028   6.439   8.527 -1.6047  2.5731  0.3632
   85SAPS  H20S 8095  -0.182   6.448   8.627  0.1879 -1.3183  1.5481
   85SAPS  H20T 8096  -0.140   6.300   8.544 -0.9663  1.3061 -0.5915
   85SAPS   C33 8097   0.832   6.293  10.533 -0.4008  0.6841 -0.6947
   85SAPS   H3X 8098   0.903   6.208  10.532 -1.5163 -0.2762  0.0571
   85SAPS   H3Y 8099   0.898   6.381  10.548  0.3042  0.3938 -2.0429
   85SAPS   C34 8100   0.741   6.295  10.404 -0.2184  0.3520  0.0983
   85SAPS   H4X 8101   0.687   6.392  10.399 -2.0282 -0.6428 -0.2392
   85SAPS   H4Y 8102   0.657   6.222  10.415 -1.6191  1.6847 -1.4440
   85SAPS   C35 8103   0.798   6.250  10.267  0.5256  0.0149 -0.5558
   85SAPS   H5X 8104   0.860   6.161  10.295  1.2817  0.4741 -0.7539
   85SAPS   H5Y 8105   0.869   6.324  10.223 -0.2331  1.0089 -0.1068
   85SAPS   C36 8106   0.694   6.215  10.158 -0.1690  0.3555  0.2352
   85SAPS   H6X 8107   0.645   6.309  10.127  0.0062 -0.2585 -2.0352
   85SAPS   H6Y 8108   0.619   6.149  10.207  0.9652 -0.7580  0.5176
   85SAPS   C37 8109   0.756   6.141  10.036 -0.5645  0.1492 -0.0298
   85SAPS   H7X 8110   0.824   6.063  10.076 -1.9227 -0.4221  1.1845
   85SAPS   H7Y 8111   0.819   6.219   9.988 -0.8278 -0.4387 -1.3402
   85SAPS   C38 8112   0.660   6.088   9.931 -0.5355 -0.2335  0.3218
   85SAPS   H8X 8113   0.589   6.169   9.906  0.9116  0.6624 -0.9727
   85SAPS   H8Y 8114   0.605   6.002   9.976 -2.1534 -0.0850 -1.3357
   85SAPS   C39 8115   0.732   6.032   9.806  0.1254 -0.3751 -0.0747
   85SAPS   H9X 8116   0.767   5.927   9.822  1.2436 -0.1194 -0.7317
   85SAPS   H9Y 8117   0.823   6.093   9.786 -0.4336  1.4023  2.5790
   85SAPS  C310 8118   0.642   6.039   9.681  0.4791 -0.3794 -0.4152
   85SAPS  H10X 8119   0.588   6.134   9.661  0.2700  0.1007  2.1765
   85SAPS  H10Y 8120   0.560   5.966   9.694 -1.3443  1.5772 -0.6138
   85SAPS  C311 8121   0.724   6.001   9.555  0.2404 -0.0935 -0.2591
   85SAPS  H11X 8122   0.761   5.897   9.565 -0.2975 -0.1729  1.1159
   85SAPS  H11Y 8123   0.815   6.063   9.544  0.5606 -0.8514 -2.0226
   85SAPS  C312 8124   0.627   6.000   9.440  0.1588  0.8294  0.6819
   85SAPS  H12X 8125   0.557   6.086   9.441  2.1417  2.5425 -1.1793
   85SAPS  H12Y 8126   0.562   5.910   9.452 -1.2773  1.3258 -2.8091
   85SAPS  C313 8127   0.684   5.987   9.299  0.8435 -0.0321 -0.2442
   85SAPS  H13X 8128   0.764   5.910   9.301 -0.5805 -1.6716 -3.0341
   85SAPS  H13Y 8129   0.742   6.078   9.276 -0.5802  0.6855 -1.0668
   85SAPS  C314 8130   0.579   5.947   9.193 -0.1900 -0.2984 -0.0895
   85SAPS  H14X 8131   0.502   6.026   9.181 -1.5921 -1.3261  1.9159
   85SAPS  H14Y 8132   0.522   5.862   9.235 -0.4752  1.3735  3.0493
   85SAPS  C315 8133   0.623   5.903   9.049 -0.5581  0.0194  0.0658
   85SAPS  H15X 8134   0.699   5.823   9.060 -0.4056  0.1471 -0.0602
   85SAPS  H15Y 8135   0.669   5.995   9.008 -2.2985  0.5041 -0.8588
   85SAPS  C316 8136   0.512   5.861   8.961 -0.4046 -0.1531 -0.5909
   85SAPS  H16X 8137   0.430   5.934   8.980  0.8129  0.5019  2.3776
   85SAPS  H16Y 8138   0.473   5.760   8.989 -0.3466 -0.0043  0.0288
   85SAPS  C317 8139   0.559   5.845   8.813  0.2403  0.2908  0.7943
   85SAPS  H17X 8140   0.645   5.776   8.804 -0.4846 -0.4868 -0.2462
   85SAPS  H17Y 8141   0.590   5.948   8.785 -1.7915  0.7820  0.2074
   85SAPS  C318 8142   0.455   5.802   8.717  1.1108 -0.1582  0.0047
   85SAPS  H18X 8143   0.483   5.848   8.619  2.7755 -0.4101  0.3511
   85SAPS  H18Y 8144   0.361   5.855   8.741  0.4708  1.4984 -5.3460
   85SAPS  H18Z 8145   0.427   5.695   8.724 -0.2987  0.0242 -2.2361
   86SAPS     N 8146   2.065   0.124  11.078 -0.2452  0.5910 -0.1541
   86SAPS   HN1 8147   2.032   0.202  11.018 -0.0763  2.4547  2.1116
   86SAPS   HN2 8148   2.044   0.152  11.176 -3.3777 -1.9834 -0.0045
   86SAPS   HN3 8149   2.166   0.117  11.056 -0.1755 -1.8608  0.8306
   86SAPS   C12 8150   1.977   0.004  11.036 -0.2610 -0.0745 -0.0744
   86SAPS  H12A 8151   1.996  -0.072  11.110  0.5496  1.6648  1.5293
   86SAPS   C13 8152   1.823   0.032  11.052  0.2027  0.4755  0.0091
   86SAPS  O13A 8153   1.786   0.135  11.108 -0.0503  0.3127  0.2301
   86SAPS  O13B 8154   1.742  -0.060  11.022  0.2474 -0.5277  0.3517
   86SAPS   C11 8155   2.014  -0.018  10.885 -0.4028 -0.1242 -0.0430
   86SAPS  H11A 8156   1.980   0.072  10.830 -0.9770 -0.2862  0.0420
   86SAPS  H11B 8157   1.950  -0.095  10.837 -0.5035 -0.4874  0.6741
   86SAPS     P 8158   2.208  -0.197  10.874 -0.0538 -0.0568 -0.1022
   86SAPS   O13 8159   2.349  -0.207  10.830  0.4392 -0.6699  0.2917
   86SAPS   O14 8160   2.168  -0.244  11.009 -0.8738  0.1901 -0.0186
   86SAPS   O12 8161   2.151  -0.052  10.852  0.3924 -0.2735 -0.4886
   86SAPS   O11 8162   2.115  -0.278  10.770  0.6008 -0.2365 -0.5934
   86SAPS    C1 8163   2.090  -0.239  10.639 -0.4094  0.1222 -0.5233
   86SAPS    HA 8164   2.031  -0.314  10.581 -0.0272 -1.2593  0.8551
   86SAPS    HB 8165   2.050  -0.137  10.622  3.0949  1.5105 -0.8367
   86SAPS    C2 8166   2.214  -0.246  10.549  0.3188  0.3244 -0.5817
   86SAPS    HS 8167   2.290  -0.169  10.572  1.4442 -0.2325 -2.2514
   86SAPS   O21 8168   2.176  -0.214  10.413 -0.4008  0.1103 -0.0988
   86SAPS   C21 8169   2.273  -0.179  10.328  0.3095  0.3537 -0.1622
   86SAPS   O22 8170   2.393  -0.160  10.354 -0.4105  1.2118  0.3909
   86SAPS   C22 8171   2.221  -0.197  10.186  0.1986 -0.4067 -0.8009
   86SAPS   H2R 8172   2.215  -0.303  10.154 -0.8969 -1.2326  1.9691
   86SAPS   H2S 8173   2.123  -0.145  10.190  0.7938  0.6039  1.2058
   86SAPS    C3 8174   2.284  -0.384  10.565  0.6384  0.1845  0.4808
   86SAPS    HX 8175   2.204  -0.456  10.535 -0.1690  1.3373 -0.1664
   86SAPS    HY 8176   2.305  -0.406  10.672  0.7857 -0.2655  0.3624
   86SAPS   O31 8177   2.389  -0.409  10.471  0.3575  0.0958 -0.6024
   86SAPS   C31 8178   2.513  -0.408  10.513  0.5682 -0.0334  0.4690
   86SAPS   O32 8179   2.556  -0.417  10.628 -0.5377 -0.1929 -0.4510
   86SAPS   C32 8180   2.600  -0.401  10.397 -0.2141  1.2313  0.3063
   86SAPS   H2X 8181   2.689  -0.338  10.418  0.2441  0.9349 -0.6805
   86SAPS   H2Y 8182   2.549  -0.356  10.309  0.6151 -0.5522 -1.1434
   86SAPS   C23 8183   2.315  -0.135  10.082  0.1849 -0.3829  0.0813
   86SAPS   H3R 8184   2.403  -0.202  10.092  0.9936  0.5963 -0.3799
   86SAPS   H3S 8185   2.357  -0.036  10.111  0.5443 -0.5774  0.2336
   86SAPS   C24 8186   2.267  -0.121   9.940 -0.1371 -0.0097 -0.0914
   86SAPS   H4R 8187   2.256  -0.218   9.887  0.6707 -1.4117  2.2190
   86SAPS   H4S 8188   2.344  -0.065   9.884 -2.7538  1.5030 -2.2934
   86SAPS   C25 8189   2.144  -0.030   9.924 -0.1665  0.2174  0.3683
   86SAPS   H5R 8190   2.138   0.049  10.000  2.8404 -1.6218  2.6316
   86SAPS   C26 8191   2.060  -0.034   9.819 -0.0474 -0.5767  0.1499
   86SAPS   H6R 8192   1.977   0.037   9.809 -0.8118 -1.2055  1.9188
   86SAPS   C27 8193   2.073  -0.115   9.693 -0.4252  0.1549  0.2537
   86SAPS   H7R 8194   1.978  -0.172   9.684 -0.2006 -0.0426 -0.9436
   86SAPS   H7S 8195   2.155  -0.189   9.699 -1.6879 -1.2051  1.0955
   86SAPS   C28 8196   2.097  -0.014   9.586  0.7975  0.7967  0.4042
   86SAPS   H8R 8197   2.197   0.027   9.571  1.5774 -0.6104  1.6242
   86SAPS   C29 8198   2.007   0.028   9.491 -0.2183 -0.1130 -0.5639
   86SAPS   H9R 8199   2.046   0.100   9.418 -0.0596  0.3758  0.0001
   86SAPS  C210 8200   1.863  -0.006   9.467  0.0074  0.2797  0.0652
   86SAPS  H10R 8201   1.810  -0.036   9.560 -0.6223  0.4369 -0.2362
   86SAPS  H10S 8202   1.854  -0.089   9.394 -0.5545  0.6967 -0.3477
   86SAPS  C211 8203   1.771   0.099   9.411 -0.3795 -0.4690 -0.3174
   86SAPS  H11R 8204   1.725   0.081   9.312 -0.1033 -3.6463  0.0878
   86SAPS  C212 8205   1.725   0.208   9.468 -0.7687  0.5253  0.3334
   86SAPS  H12R 8206   1.679   0.295   9.419  0.4909  0.1986 -1.4879
   86SAPS  C213 8207   1.751   0.230   9.614  0.2131 -0.0851  0.0706
   86SAPS  H13R 8208   1.850   0.190   9.647  0.3531  0.0049 -0.2415
   86SAPS  H13S 8209   1.680   0.167   9.672  0.9895  0.3031  1.4829
   86SAPS  C214 8210   1.744   0.369   9.672  0.2136 -0.1458 -0.5121
   86SAPS  H14R 8211   1.732   0.454   9.602 -0.1873  0.9323  0.8358
   86SAPS  C215 8212   1.740   0.392   9.808  0.3138 -0.3339 -0.1466
   86SAPS  H15R 8213   1.739   0.495   9.847 -0.4833 -0.8145  1.1152
   86SAPS  C216 8214   1.745   0.280   9.908  0.5169 -0.3840  0.0035
   86SAPS  H16R 8215   1.772   0.178   9.873 -0.2796 -0.7241  0.3612
   86SAPS  H16S 8216   1.648   0.276   9.962 -0.3449  0.7265 -1.4483
   86SAPS  C217 8217   1.854   0.318  10.010 -0.2987  0.0591  0.0078
   86SAPS  H17R 8218   1.825   0.413  10.060  1.4001  1.2496 -1.2205
   86SAPS  H17S 8219   1.948   0.352   9.960 -0.9626  2.4859  0.3283
   86SAPS  C218 8220   1.873   0.206  10.114  0.2143  0.4640  0.0902
   86SAPS  H18R 8221   1.891   0.116  10.051  0.2784 -0.9574  2.1124
   86SAPS  H18S 8222   1.775   0.177  10.157  1.1030 -2.1911  0.4254
   86SAPS  C219 8223   1.969   0.234  10.222  0.1205  0.0916  0.5187
   86SAPS  H19R 8224   1.934   0.320  10.284  0.7278  0.3344  0.5370
   86SAPS  H19S 8225   2.063   0.261  10.168  1.8741 -2.0286  2.4065
   86SAPS  C220 8226   2.001   0.121  10.320 -0.9438 -0.3126 -0.4136
   86SAPS  H20R 8227   2.062   0.179  10.393 -0.4881 -0.9580 -0.2797
   86SAPS  H20S 8228   2.056   0.045  10.261 -1.6888  0.4119 -2.0852
   86SAPS  H20T 8229   1.910   0.080  10.368 -0.5388  0.5396  1.1031
   86SAPS   C33 8230   2.663  -0.530  10.348  0.2655 -0.1039  0.4144
   86SAPS   H3X 8231   2.690  -0.593  10.436  0.7552  1.5951  1.5021
   86SAPS   H3Y 8232   2.752  -0.515  10.284 -0.6407  0.7496 -0.6464
   86SAPS   C34 8233   2.570  -0.614  10.257  0.3841 -0.2003  0.2841
   86SAPS   H4X 8234   2.528  -0.547  10.179  1.7288 -1.3980 -1.5320
   86SAPS   H4Y 8235   2.493  -0.666  10.318  0.0559 -1.0745 -0.8486
   86SAPS   C35 8236   2.642  -0.730  10.184  0.1943 -0.5470  0.5594
   86SAPS   H5X 8237   2.565  -0.803  10.153  1.3933 -1.4865 -0.2666
   86SAPS   H5Y 8238   2.696  -0.793  10.258  0.7954  1.3721  1.8089
   86SAPS   C36 8239   2.729  -0.695  10.063  0.4016  0.3713  0.6851
   86SAPS   H6X 8240   2.832  -0.677  10.101  0.6669  3.6536 -1.3405
   86SAPS   H6Y 8241   2.690  -0.605  10.011 -3.7489 -0.9101  1.4297
   86SAPS   C37 8242   2.723  -0.805   9.956 -0.0613  0.2456 -0.2964
   86SAPS   H7X 8243   2.625  -0.823   9.908 -1.1812 -0.8930  2.3126
   86SAPS   H7Y 8244   2.749  -0.907   9.992 -0.4529  0.0266 -0.6396
   86SAPS   C38 8245   2.817  -0.754   9.842 -0.5979 -0.2576  0.1752
   86SAPS   H8X 8246   2.913  -0.721   9.885 -0.8174  0.0231  0.4554
   86SAPS   H8Y 8247   2.766  -0.660   9.811  1.1032  0.4352 -0.5391
   86SAPS   C39 8248   2.832  -0.861   9.736  0.6785 -0.0092 -0.1402
   86SAPS   H9X 8249   2.732  -0.905   9.713  0.5691 -0.0097  0.3309
   86SAPS   H9Y 8250   2.894  -0.948   9.766 -1.3161 -0.9915  1.3016
   86SAPS  C310 8251   2.895  -0.799   9.603  0.8343 -0.1620 -0.0144
   86SAPS  H10X 8252   2.810  -0.739   9.564  2.2094 -0.7359 -4.0646
   86SAPS  H10Y 8253   2.918  -0.873   9.524  2.8761 -0.9977  1.3178
   86SAPS  C311 8254   3.018  -0.712   9.621 -0.3647  0.6380  0.2717
   86SAPS  H11X 8255   3.110  -0.769   9.648 -1.2629 -0.7042  0.5485
   86SAPS  H11Y 8256   3.004  -0.640   9.705 -0.8055  0.1107  0.6517
   86SAPS  C312 8257   3.039  -0.629   9.494 -0.2614  0.0101  0.5233
   86SAPS  H12X 8258   2.960  -0.552   9.482  0.4854  0.8429  0.8909
   86SAPS  H12Y 8259   3.028  -0.693   9.404 -0.9690  0.0656  0.5702
   86SAPS  C313 8260   3.182  -0.569   9.480 -0.1096 -0.5176  0.1896
   86SAPS  H13X 8261   3.247  -0.657   9.460  1.6711 -0.3003  4.5817
   86SAPS  H13Y 8262   3.208  -0.525   9.579 -2.5800  1.5102 -0.0012
   86SAPS  C314 8263   3.186  -0.473   9.359 -0.4716  0.7735 -0.0104
   86SAPS  H14X 8264   3.284  -0.420   9.358 -0.2142  0.3107 -1.6066
   86SAPS  H14Y 8265   3.099  -0.404   9.371 -1.1215 -0.3092  1.5070
   86SAPS  C315 8266   3.195  -0.553   9.226  0.4739 -0.7115 -0.5318
   86SAPS  H15X 8267   3.087  -0.577   9.227 -0.0232  1.4338 -0.7908
   86SAPS  H15Y 8268   3.251  -0.649   9.233 -1.4831 -1.8061  0.3421
   86SAPS  C316 8269   3.231  -0.462   9.118 -0.0753 -0.1052  0.2742
   86SAPS  H16X 8270   3.341  -0.468   9.102 -0.1031  1.0417 -0.4723
   86SAPS  H16Y 8271   3.207  -0.360   9.154 -0.5350  0.8695 -2.6483
   86SAPS  C317 8272   3.163  -0.502   8.982 -0.1385 -0.1822  0.0387
   86SAPS  H17X 8273   3.204  -0.432   8.906 -1.2540 -1.2409 -1.5640
   86SAPS  H17Y 8274   3.054  -0.486   8.992  0.6774  3.5935  4.4754
   86SAPS  C318 8275   3.175  -0.643   8.943 -0.6889  0.4649 -0.1513
   86SAPS  H18X 8276   3.279  -0.683   8.951 -0.6769  0.8179  1.4350
   86SAPS  H18Y 8277   3.156  -0.657   8.834  2.1234 -1.2848 -0.4688
   86SAPS  H18Z 8278   3.110  -0.703   9.009 -0.2704 -0.6995 -0.7841
   87SAPS     N 8279   3.224   0.610  10.876  0.4992 -0.0243  0.6823
   87SAPS   HN1 8280   3.253   0.693  10.820  1.1131  1.2397  2.8032
   87SAPS   HN2 8281   3.304   0.550  10.903  1.8882  1.0640 -0.9235
   87SAPS   HN3 8282   3.156   0.559  10.816  0.2020 -0.4630  1.3834
   87SAPS   C12 8283   3.164   0.653  10.999  0.1244  0.5469 -1.5027
   87SAPS  H12A 8284   3.139   0.562  11.051 -0.5041  1.1560 -0.7222
   87SAPS   C13 8285   3.248   0.748  11.088  0.0443 -0.2996 -0.6631
   87SAPS  O13A 8286   3.373   0.756  11.076  0.7202 -0.8535  0.2504
   87SAPS  O13B 8287   3.193   0.778  11.202 -0.1848 -0.6179  0.4083
   87SAPS   C11 8288   3.027   0.719  10.974 -0.0377  0.2043  0.2877
   87SAPS  H11A 8289   3.047   0.819  10.929  1.3402  0.1016  0.6619
   87SAPS  H11B 8290   2.972   0.724  11.071  0.5974  0.9301  0.6157
   87SAPS     P 8291   2.791   0.652  10.880 -0.3330  0.4312 -0.1339
   87SAPS   O13 8292   2.740   0.555  10.979 -0.1692  0.1719  0.0921
   87SAPS   O14 8293   2.732   0.790  10.893  0.5237 -0.0577 -0.7624
   87SAPS   O12 8294   2.953   0.648  10.875  0.3600  0.2902 -0.0212
   87SAPS   O11 8295   2.776   0.593  10.730 -0.0317 -0.1361 -0.0252
   87SAPS    C1 8296   2.710   0.660  10.631  0.2218  0.1947  0.4027
   87SAPS    HA 8297   2.686   0.760  10.672  0.1812 -1.2893  4.1666
   87SAPS    HB 8298   2.776   0.665  10.542 -0.0820  0.5617  0.1945
   87SAPS    C2 8299   2.577   0.592  10.600  0.0815 -0.2929  0.2566
   87SAPS    HS 8300   2.531   0.569  10.699  3.0180 -1.7703  1.3278
   87SAPS   O21 8301   2.613   0.466  10.528  0.6180  0.0052 -0.0317
   87SAPS   C21 8302   2.519   0.385  10.508 -0.6342 -0.0730 -0.1751
   87SAPS   O22 8303   2.411   0.396  10.556 -0.1459 -0.0970  0.3572
   87SAPS   C22 8304   2.557   0.263  10.428  0.3755  0.6632 -0.0679
   87SAPS   H2R 8305   2.641   0.289  10.360  1.4228 -2.4742 -0.0608
   87SAPS   H2S 8306   2.580   0.180  10.499  1.8303 -0.4435 -1.8002
   87SAPS    C3 8307   2.493   0.680  10.514  0.2773 -0.1388  0.3121
   87SAPS    HX 8308   2.477   0.774  10.571 -0.2544  0.0465 -0.1429
   87SAPS    HY 8309   2.390   0.641  10.509  0.1558  0.1334  0.6512
   87SAPS   O31 8310   2.536   0.699  10.383 -0.1245 -0.8236 -0.0075
   87SAPS   C31 8311   2.469   0.781  10.314  1.2720  0.5008  0.8368
   87SAPS   O32 8312   2.378   0.849  10.359 -0.0896  0.4621 -0.5420
   87SAPS   C32 8313   2.520   0.772  10.172 -0.3068 -0.0003  0.1342
   87SAPS   H2X 8314   2.497   0.668  10.140 -0.1794  0.7037 -2.3244
   87SAPS   H2Y 8315   2.628   0.791  10.156 -0.2721 -0.4913 -0.2490
   87SAPS   C23 8316   2.452   0.212  10.334  0.0310  0.2834 -0.5050
   87SAPS   H3R 8317   2.354   0.187  10.381  0.3589 -2.2564 -1.0966
   87SAPS   H3S 8318   2.486   0.113  10.296 -1.2073 -0.6716  0.8121
   87SAPS   C24 8319   2.432   0.289  10.202  0.0196 -0.6022  0.5283
   87SAPS   H4R 8320   2.377   0.213  10.142 -0.8951  1.4423 -1.2889
   87SAPS   H4S 8321   2.528   0.317  10.154 -0.9797  2.4824  0.2576
   87SAPS   C25 8322   2.346   0.411  10.209 -0.6617 -0.3590  0.8417
   87SAPS   H5R 8323   2.348   0.461  10.307  0.2431  1.7983 -0.2363
   87SAPS   C26 8324   2.281   0.459  10.097 -0.1823 -0.0792  0.0230
   87SAPS   H6R 8325   2.222   0.552  10.098 -1.6622 -0.9944 -0.1955
   87SAPS   C27 8326   2.276   0.397   9.960 -0.3719  0.4179  0.3134
   87SAPS   H7R 8327   2.183   0.340   9.938 -0.0256 -0.0180 -0.0348
   87SAPS   H7S 8328   2.356   0.320   9.950  0.9205  1.6200  1.3552
   87SAPS   C28 8329   2.301   0.494   9.845 -0.2461 -0.0069 -0.2376
   87SAPS   H8R 8330   2.384   0.564   9.865 -1.8159  2.1549 -1.0950
   87SAPS   C29 8331   2.253   0.480   9.718 -0.1028 -0.4402  0.1960
   87SAPS   H9R 8332   2.276   0.554   9.641 -2.2314  0.0164 -0.0430
   87SAPS  C210 8333   2.153   0.368   9.670 -0.2365  0.9095 -0.2836
   87SAPS  H10R 8334   2.080   0.345   9.750 -0.1362  0.6863 -0.2543
   87SAPS  H10S 8335   2.208   0.274   9.647  3.3244  2.1657  2.5593
   87SAPS  C211 8336   2.091   0.415   9.536 -0.5493 -0.6740 -0.3868
   87SAPS  H11R 8337   1.985   0.443   9.546  0.3104  1.9884  1.6884
   87SAPS  C212 8338   2.154   0.424   9.415 -0.5261 -0.8010 -0.6194
   87SAPS  H12R 8339   2.087   0.455   9.334  1.9613  1.8544 -1.7119
   87SAPS  C213 8340   2.293   0.401   9.368 -0.5302  0.1580  0.5784
   87SAPS  H13R 8341   2.289   0.322   9.290  0.5420 -0.4016  1.0749
   87SAPS  H13S 8342   2.365   0.362   9.443 -1.2268 -0.9582  0.6684
   87SAPS  C214 8343   2.365   0.524   9.313  0.0966 -0.1753  0.2433
   87SAPS  H14R 8344   2.377   0.593   9.399 -1.3649 -3.0388  2.8552
   87SAPS  C215 8345   2.409   0.556   9.186  0.6453  0.2222  0.5350
   87SAPS  H15R 8346   2.451   0.655   9.165 -1.3265  1.0759  0.6105
   87SAPS  C216 8347   2.411   0.456   9.076  0.0498  0.3830  0.0088
   87SAPS  H16R 8348   2.409   0.354   9.119  5.1146  0.9409  1.7896
   87SAPS  H16S 8349   2.502   0.480   9.018 -0.3738  3.1080  0.3905
   87SAPS  C217 8350   2.292   0.486   8.985 -0.0736  0.1061  0.0624
   87SAPS  H17R 8351   2.202   0.446   9.037 -0.1254 -2.0035 -1.6043
   87SAPS  H17S 8352   2.313   0.429   8.892 -0.3100  0.9092 -0.4905
   87SAPS  C218 8353   2.271   0.630   8.939 -0.3735  0.3238  0.6614
   87SAPS  H18R 8354   2.360   0.663   8.881 -1.9377 -0.1599 -2.0632
   87SAPS  H18S 8355   2.260   0.699   9.025 -3.9516  3.1037 -1.8791
   87SAPS  C219 8356   2.150   0.650   8.851 -0.1221  0.7748  0.0017
   87SAPS  H19R 8357   2.060   0.637   8.915 -0.0292 -0.1711 -0.0611
   87SAPS  H19S 8358   2.144   0.576   8.768 -0.8372 -0.2786  0.9881
   87SAPS  C220 8359   2.139   0.796   8.803 -0.0793 -0.2693 -0.1910
   87SAPS  H20R 8360   2.134   0.869   8.887 -0.8064  0.3127 -0.7306
   87SAPS  H20S 8361   2.046   0.816   8.745 -0.0805  2.2923  0.6370
   87SAPS  H20T 8362   2.234   0.822   8.753 -0.1849  0.2180 -0.1441
   87SAPS   C33 8363   2.434   0.854  10.081 -0.1503  0.1401  0.1300
   87SAPS   H3X 8364   2.429   0.963  10.098  0.0639  0.1309  0.2432
   87SAPS   H3Y 8365   2.331   0.811  10.077 -1.4879  3.2247  0.0685
   87SAPS   C34 8366   2.493   0.840   9.946 -0.0498 -0.5628  0.7370
   87SAPS   H4X 8367   2.493   0.733   9.913  1.2065  0.5933 -3.2447
   87SAPS   H4Y 8368   2.594   0.886   9.952 -1.3070  2.7019 -1.5589
   87SAPS   C35 8369   2.399   0.903   9.836 -0.0040 -0.1921  0.5390
   87SAPS   H5X 8370   2.383   1.013   9.845 -0.2736 -0.0582 -1.3577
   87SAPS   H5Y 8371   2.295   0.865   9.848 -0.5927  0.9222 -0.9027
   87SAPS   C36 8372   2.461   0.876   9.691  0.5873 -0.1597 -0.6261
   87SAPS   H6X 8373   2.380   0.897   9.618  0.6284  1.2544 -0.2778
   87SAPS   H6Y 8374   2.503   0.773   9.682  2.0948  0.2572  1.4278
   87SAPS   C37 8375   2.559   0.982   9.643  0.3419 -0.0649 -0.3232
   87SAPS   H7X 8376   2.633   0.975   9.725 -0.6373 -2.7201  0.3785
   87SAPS   H7Y 8377   2.527   1.088   9.632  0.6943  0.5275  3.6060
   87SAPS   C38 8378   2.634   0.950   9.523 -0.5480  0.0146  0.9737
   87SAPS   H8X 8379   2.567   0.937   9.435  0.7070 -0.1475  0.0417
   87SAPS   H8Y 8380   2.689   0.853   9.527 -1.6889 -0.5861  2.4695
   87SAPS   C39 8381   2.754   1.044   9.493  0.5853  0.4766 -0.2178
   87SAPS   H9X 8382   2.820   1.032   9.582 -0.1865  0.1640  0.3167
   87SAPS   H9Y 8383   2.721   1.150   9.492 -2.1606 -0.3583 -0.3431
   87SAPS  C310 8384   2.839   1.021   9.363  0.0172 -0.2325 -0.5928
   87SAPS  H10X 8385   2.892   0.924   9.374 -2.3713 -1.4094  1.1261
   87SAPS  H10Y 8386   2.938   1.069   9.349 -0.8343  0.9849 -2.5788
   87SAPS  C311 8387   2.769   1.041   9.220  0.1229  0.6437  0.9700
   87SAPS  H11X 8388   2.741   1.148   9.211  0.7696  0.6675 -0.8333
   87SAPS  H11Y 8389   2.668   0.994   9.229  0.7304 -1.4177 -2.1850
   87SAPS  C312 8390   2.852   1.001   9.094 -0.3202  0.0688  0.3874
   87SAPS  H12X 8391   2.943   1.061   9.074 -1.3707  1.6487  0.2961
   87SAPS  H12Y 8392   2.786   1.024   9.008  2.0748  1.7010 -1.0884
   87SAPS  C313 8393   2.901   0.857   9.092  0.7356  0.0933  0.2045
   87SAPS  H13X 8394   2.961   0.836   9.182  0.4592 -0.5330  0.2486
   87SAPS  H13Y 8395   2.966   0.846   9.003  1.1892  0.8498  0.4370
   87SAPS  C314 8396   2.797   0.749   9.076  0.2682  0.2492 -0.0509
   87SAPS  H14X 8397   2.716   0.744   9.152 -0.4514  1.5563 -0.7176
   87SAPS  H14Y 8398   2.858   0.657   9.086 -0.4074 -0.4374 -1.9904
   87SAPS  C315 8399   2.731   0.745   8.936 -0.8247 -0.3478 -0.4614
   87SAPS  H15X 8400   2.691   0.844   8.907  2.2579  1.8692  2.5017
   87SAPS  H15Y 8401   2.646   0.676   8.953 -0.6816 -0.2361  0.7479
   87SAPS  C316 8402   2.824   0.693   8.825 -0.1381 -0.4255 -0.3460
   87SAPS  H16X 8403   2.861   0.595   8.862 -2.9080  0.2299  4.6889
   87SAPS  H16Y 8404   2.912   0.760   8.814  0.5933 -1.2572  0.3768
   87SAPS  C317 8405   2.751   0.659   8.697 -0.1336 -0.1338 -0.4198
   87SAPS  H17X 8406   2.713   0.555   8.703 -2.2311  0.4059 -3.1031
   87SAPS  H17Y 8407   2.838   0.660   8.627  1.4154  1.1030  1.4647
   87SAPS  C318 8408   2.642   0.765   8.658  0.0944 -0.5613  0.5263
   87SAPS  H18X 8409   2.600   0.752   8.556  0.0969  2.5989  0.0663
   87SAPS  H18Y 8410   2.693   0.864   8.656  0.5320 -0.7630  1.6666
   87SAPS  H18Z 8411   2.555   0.757   8.726 -0.2901 -3.4373 -0.2324
   88SAPS     N 8412   5.499   4.429  11.053  0.0367  0.5093 -0.6736
   88SAPS   HN1 8413   5.576   4.449  11.120  0.2911 -2.4719 -0.0353
   88SAPS   HN2 8414   5.480   4.328  11.069 -1.4860  0.9305  0.3174
   88SAPS   HN3 8415   5.538   4.443  10.958 -0.4407  0.6095 -0.8551
   88SAPS   C12 8416   5.377   4.508  11.079  0.4380  0.2533  0.6760
   88SAPS  H12A 8417   5.294   4.456  11.035  1.7844 -0.1936 -1.4018
   88SAPS   C13 8418   5.345   4.515  11.232  0.0131  0.5583  0.3343
   88SAPS  O13A 8419   5.430   4.482  11.318  0.4834  0.1073  0.6089
   88SAPS  O13B 8420   5.235   4.569  11.268 -0.0763  0.0024  0.0014
   88SAPS   C11 8421   5.399   4.657  11.032  0.0132 -0.3810 -0.4858
   88SAPS  H11A 8422   5.461   4.710  11.108 -0.6980 -0.5492  0.2201
   88SAPS  H11B 8423   5.297   4.699  11.035 -0.3758 -1.3709  2.9982
   88SAPS     P 8424   5.364   4.670  10.773  0.2702  0.2012 -0.0288
   88SAPS   O13 8425   5.461   4.678  10.661 -0.2141 -0.1847 -0.0393
   88SAPS   O14 8426   5.275   4.552  10.780 -0.3548 -0.2208 -0.5481
   88SAPS   O12 8427   5.456   4.665  10.904  1.1542 -0.2750 -0.2290
   88SAPS   O11 8428   5.291   4.804  10.789  1.0580 -0.5655 -0.4590
   88SAPS    C1 8429   5.149   4.815  10.810 -0.3067 -0.7634 -0.1902
   88SAPS    HA 8430   5.107   4.719  10.848 -1.2497 -0.4545 -0.4298
   88SAPS    HB 8431   5.130   4.904  10.875 -0.3694 -1.0130  0.1380
   88SAPS    C2 8432   5.072   4.842  10.688  0.7880  0.3692  0.7298
   88SAPS    HS 8433   4.974   4.890  10.710  1.4074  1.6712  0.7243
   88SAPS   O21 8434   5.067   4.727  10.603 -0.0024 -0.4944 -0.2346
   88SAPS   C21 8435   4.964   4.648  10.628  0.1329  0.1906 -0.3037
   88SAPS   O22 8436   4.871   4.673  10.709 -0.1158  0.9161 -0.0686
   88SAPS   C22 8437   4.963   4.527  10.531 -0.2569  1.0203  0.3462
   88SAPS   H2R 8438   5.024   4.530  10.438  1.2623  1.1667  1.3267
   88SAPS   H2S 8439   5.015   4.450  10.592 -2.0046 -0.4266  0.0798
   88SAPS    C3 8440   5.142   4.963  10.609 -0.2807  0.0374 -0.6726
   88SAPS    HX 8441   5.248   4.935  10.589  0.9767  3.0116  1.5104
   88SAPS    HY 8442   5.135   5.040  10.688  0.5001  0.3420 -0.8935
   88SAPS   O31 8443   5.069   4.987  10.487  0.7233  0.0472  0.2604
   88SAPS   C31 8444   5.110   4.911  10.380 -0.3868  1.0165  0.6953
   88SAPS   O32 8445   5.212   4.843  10.378 -0.5186  0.0437 -0.4142
   88SAPS   C32 8446   5.025   4.938  10.265 -0.3296  0.5755 -0.1326
   88SAPS   H2X 8447   5.026   5.046  10.238 -0.3450  0.7490  0.5555
   88SAPS   H2Y 8448   4.920   4.912  10.292  0.3296 -1.2307  0.8013
   88SAPS   C23 8449   4.817   4.488  10.492 -0.3927 -0.0412  0.0419
   88SAPS   H3R 8450   4.745   4.497  10.576  1.5556 -2.0063  2.0124
   88SAPS   H3S 8451   4.813   4.381  10.463  2.5843 -0.0584 -0.5047
   88SAPS   C24 8452   4.780   4.586  10.376  0.4566 -0.1713  0.4733
   88SAPS   H4R 8453   4.842   4.557  10.289  0.7505 -1.0823  0.9830
   88SAPS   H4S 8454   4.791   4.685  10.426 -0.3579  0.2468 -0.1462
   88SAPS   C25 8455   4.628   4.567  10.346 -0.0615 -0.1223 -0.5431
   88SAPS   H5R 8456   4.573   4.542  10.438  0.4512  0.3954 -0.0907
   88SAPS   C26 8457   4.560   4.596  10.235  0.8942  0.1458  0.5173
   88SAPS   H6R 8458   4.452   4.571  10.237 -0.1021  4.1800  1.5132
   88SAPS   C27 8459   4.619   4.658  10.105  0.0065  0.0748  0.2836
   88SAPS   H7R 8460   4.695   4.728  10.147 -1.5393  1.2758  1.1295
   88SAPS   H7S 8461   4.540   4.715  10.053  2.1255  3.5080  0.6932
   88SAPS   C28 8462   4.683   4.561  10.011  0.0446  0.0725  0.5329
   88SAPS   H8R 8463   4.742   4.482  10.059  1.9067  1.3881  0.4328
   88SAPS   C29 8464   4.664   4.551   9.873  0.6503  0.2575  0.3115
   88SAPS   H9R 8465   4.721   4.473   9.819  0.6880 -1.4579  2.7505
   88SAPS  C210 8466   4.579   4.640   9.789  0.0239  0.5137 -0.1488
   88SAPS  H10R 8467   4.577   4.744   9.827 -1.1623 -0.0981  1.4954
   88SAPS  H10S 8468   4.469   4.622   9.797  0.1821 -0.5815 -0.3959
   88SAPS  C211 8469   4.622   4.654   9.645 -0.0431  0.2398  0.5637
   88SAPS  H11R 8470   4.729   4.678   9.636  0.0476 -0.7795 -1.2644
   88SAPS  C212 8471   4.551   4.642   9.530  0.3643  0.2163  0.2084
   88SAPS  H12R 8472   4.608   4.644   9.436 -0.0425 -1.3049 -0.0815
   88SAPS  C213 8473   4.409   4.612   9.507  0.2926  0.2499 -0.0011
   88SAPS  H13R 8474   4.372   4.704   9.457 -1.6548 -1.4394 -1.7448
   88SAPS  H13S 8475   4.353   4.606   9.603  1.6147 -0.5317  0.7448
   88SAPS  C214 8476   4.391   4.496   9.416 -0.1970  0.1385 -0.1274
   88SAPS  H14R 8477   4.417   4.397   9.458 -0.3874 -0.7695 -2.0902
   88SAPS  C215 8478   4.329   4.499   9.297  0.1559  0.1328 -0.4990
   88SAPS  H15R 8479   4.315   4.403   9.245 -0.6829  0.1597 -0.3207
   88SAPS  C216 8480   4.265   4.621   9.228 -0.3067  0.7274 -0.0851
   88SAPS  H16R 8481   4.347   4.695   9.225  0.9825 -0.6341  1.0697
   88SAPS  H16S 8482   4.178   4.656   9.288 -0.6585  0.9539 -0.7210
   88SAPS  C217 8483   4.212   4.575   9.095  0.2626  0.7595  0.2335
   88SAPS  H17R 8484   4.146   4.648   9.044  1.4718  0.3491 -1.9668
   88SAPS  H17S 8485   4.147   4.486   9.101  2.7047 -1.1035  0.0100
   88SAPS  C218 8486   4.323   4.539   8.996 -0.1567 -0.0240 -0.5922
   88SAPS  H18R 8487   4.377   4.453   9.040 -1.3855 -1.1382 -1.2468
   88SAPS  H18S 8488   4.398   4.621   8.984 -0.1002  0.1818  1.0207
   88SAPS  C219 8489   4.265   4.497   8.860 -0.5457 -0.1511  0.3440
   88SAPS  H19R 8490   4.228   4.589   8.810  0.6716 -0.2244 -0.7177
   88SAPS  H19S 8491   4.175   4.433   8.872 -0.6957  0.3567  2.1208
   88SAPS  C220 8492   4.360   4.436   8.756 -0.5233 -0.3670 -0.5223
   88SAPS  H20R 8493   4.421   4.352   8.796 -1.0454 -0.1767  0.6677
   88SAPS  H20S 8494   4.427   4.518   8.721 -0.8290  0.3060  0.4852
   88SAPS  H20T 8495   4.294   4.398   8.674 -1.0504 -0.0321 -0.2517
   88SAPS   C33 8496   5.063   4.857  10.134 -0.3187  0.1491 -0.0406
   88SAPS   H3X 8497   5.030   4.751  10.141 -0.4280  0.1699 -0.2390
   88SAPS   H3Y 8498   5.173   4.867  10.127 -0.7085  4.2201 -2.3969
   88SAPS   C34 8499   5.001   4.918  10.006  0.4965  0.4463  0.2398
   88SAPS   H4X 8500   5.001   5.029  10.012  1.3322  0.5051 -0.6696
   88SAPS   H4Y 8501   4.893   4.891  10.000  0.9548 -1.6456  1.1233
   88SAPS   C35 8502   5.073   4.875   9.879 -0.2257 -0.0157 -0.2576
   88SAPS   H5X 8503   5.051   4.766   9.882 -3.6525  0.6326 -0.2204
   88SAPS   H5Y 8504   5.184   4.885   9.875  0.0654 -1.0034  3.1952
   88SAPS   C36 8505   5.013   4.938   9.759  0.5460 -0.2225  0.2207
   88SAPS   H6X 8506   5.037   5.041   9.725 -0.8867 -0.2491 -0.9210
   88SAPS   H6Y 8507   4.902   4.946   9.769  0.6639  1.6340  0.2216
   88SAPS   C37 8508   5.039   4.847   9.631 -0.0197 -0.1253 -0.8743
   88SAPS   H7X 8509   4.979   4.754   9.647  0.9732 -0.5319  0.6388
   88SAPS   H7Y 8510   5.148   4.829   9.619 -0.1392  0.8019 -3.7903
   88SAPS   C38 8511   4.987   4.926   9.502 -0.2576  0.3764 -0.1889
   88SAPS   H8X 8512   5.015   5.033   9.501 -0.1125  0.3448 -3.5010
   88SAPS   H8Y 8513   4.876   4.924   9.510 -0.1396 -0.1845  1.6539
   88SAPS   C39 8514   5.036   4.864   9.372 -0.0731  0.2978  0.5420
   88SAPS   H9X 8515   5.142   4.841   9.396  0.0331 -0.6239 -0.7645
   88SAPS   H9Y 8516   5.046   4.947   9.300  1.7642 -1.1720 -0.9341
   88SAPS  C310 8517   4.965   4.738   9.322  0.1925 -0.7559 -0.8733
   88SAPS  H10X 8518   4.865   4.744   9.369  0.0880  0.8686 -1.2786
   88SAPS  H10Y 8519   5.012   4.650   9.371  1.5437  0.6795  0.4835
   88SAPS  C311 8520   4.949   4.723   9.172 -0.2209  0.8265  0.3613
   88SAPS  H11X 8521   5.051   4.716   9.127 -0.6168 -2.3261 -0.1686
   88SAPS  H11Y 8522   4.896   4.808   9.126  1.2881  0.9917 -1.1321
   88SAPS  C312 8523   4.870   4.600   9.131 -0.1365  0.5154 -0.1700
   88SAPS  H12X 8524   4.811   4.569   9.220 -2.4043 -0.1813 -1.8761
   88SAPS  H12Y 8525   4.937   4.512   9.122 -0.8498 -0.0478 -0.0029
   88SAPS  C313 8526   4.789   4.606   9.009 -0.4993 -0.1945 -0.4641
   88SAPS  H13X 8527   4.847   4.666   8.935  0.2085  0.2419  0.4299
   88SAPS  H13Y 8528   4.700   4.670   9.030  0.7198  1.3910 -0.0402
   88SAPS  C314 8529   4.732   4.476   8.950  0.0662  0.5136 -0.6670
   88SAPS  H14X 8530   4.799   4.423   8.879 -0.0103 -2.6481  1.5136
   88SAPS  H14Y 8531   4.644   4.499   8.887 -0.7683  1.8118  0.9572
   88SAPS  C315 8532   4.692   4.381   9.063 -0.3237 -0.5635 -0.6121
   88SAPS  H15X 8533   4.631   4.443   9.133  1.3063  0.5259 -0.1360
   88SAPS  H15Y 8534   4.777   4.326   9.109  0.8137  1.1216 -0.6284
   88SAPS  C316 8535   4.606   4.267   9.013  0.2337 -1.3403  0.2379
   88SAPS  H16X 8536   4.659   4.198   8.943  0.1908 -2.0091  0.8670
   88SAPS  H16Y 8537   4.518   4.306   8.958  0.1961 -2.8934 -0.8276
   88SAPS  C317 8538   4.538   4.193   9.131 -0.3782 -0.3182 -0.5239
   88SAPS  H17X 8539   4.497   4.104   9.079  2.0033 -1.2775 -0.8179
   88SAPS  H17Y 8540   4.453   4.261   9.156  1.3394  1.6940 -0.0441
   88SAPS  C318 8541   4.626   4.147   9.242 -0.1099 -0.9842 -0.2098
   88SAPS  H18X 8542   4.573   4.116   9.335  1.1291  0.2355  0.9262
   88SAPS  H18Y 8543   4.697   4.228   9.271 -2.2392  0.3056  1.5390
   88SAPS  H18Z 8544   4.690   4.064   9.205 -0.0026 -0.3464 -1.4901
   89SAPS     N 8545   5.152   1.226  10.819  0.0601  0.6717  0.3338
   89SAPS   HN1 8546   5.245   1.239  10.864  0.6402 -0.1279 -0.6062
   89SAPS   HN2 8547   5.112   1.316  10.786 -2.1790 -0.4176  0.0297
   89SAPS   HN3 8548   5.082   1.190  10.887 -0.3632 -1.3275 -1.1289
   89SAPS   C12 8549   5.175   1.125  10.706 -0.1158  0.0121 -0.5165
   89SAPS  H12A 8550   5.249   1.167  10.639 -0.1652  0.0107 -0.5719
   89SAPS   C13 8551   5.229   0.988  10.757  0.9050 -0.7698 -0.4141
   89SAPS  O13A 8552   5.247   0.958  10.879 -0.8703  0.0287 -0.1324
   89SAPS  O13B 8553   5.261   0.905  10.667  0.5803 -1.2040  0.2269
   89SAPS   C11 8554   5.041   1.102  10.620 -0.0181  0.1621  0.4620
   89SAPS  H11A 8555   5.066   1.033  10.536 -3.7450 -0.1401 -0.5269
   89SAPS  H11B 8556   5.001   1.190  10.564 -2.1144 -2.3120 -2.1331
   89SAPS     P 8557   4.812   0.976  10.641 -0.1278 -0.3278 -0.2247
   89SAPS   O13 8558   4.825   0.836  10.679 -0.5499 -0.0863  0.5109
   89SAPS   O14 8559   4.693   1.053  10.694 -0.7859 -0.2624 -0.1111
   89SAPS   O12 8560   4.937   1.054  10.700 -0.1333 -0.0519 -0.2539
   89SAPS   O11 8561   4.817   0.995  10.486  0.2384  0.3924 -0.0508
   89SAPS    C1 8562   4.739   1.093  10.420 -0.2279  0.6809  0.5220
   89SAPS    HA 8563   4.628   1.081  10.427 -0.3409  1.2570 -0.1803
   89SAPS    HB 8564   4.758   1.194  10.462  3.9901 -0.2384  1.0589
   89SAPS    C2 8565   4.770   1.107  10.269 -0.0935  0.0483 -0.4772
   89SAPS    HS 8566   4.707   1.192  10.235 -0.3325  0.3833  0.7771
   89SAPS   O21 8567   4.745   0.983  10.208 -0.0069  0.0199 -0.0779
   89SAPS   C21 8568   4.657   0.988  10.112 -0.0772 -1.0684 -0.4387
   89SAPS   O22 8569   4.590   1.083  10.069 -0.3783  0.1194 -0.4548
   89SAPS   C22 8570   4.646   0.846  10.047 -0.1763  0.1914 -0.0457
   89SAPS   H2R 8571   4.748   0.815  10.015  0.2130  2.2832 -0.9268
   89SAPS   H2S 8572   4.607   0.782  10.129 -2.8838  0.1855 -1.3008
   89SAPS    C3 8573   4.921   1.137  10.253  0.4697 -0.1023  0.3793
   89SAPS    HX 8574   4.988   1.052  10.279 -0.3265 -1.5067 -1.9803
   89SAPS    HY 8575   4.948   1.217  10.325  2.0558 -0.0489 -0.2635
   89SAPS   O31 8576   4.949   1.169  10.114  0.0293  0.2531 -0.6709
   89SAPS   C31 8577   4.949   1.299  10.080 -0.5634  0.1519 -0.1784
   89SAPS   O32 8578   4.936   1.396  10.154  0.2362 -0.1342  0.3509
   89SAPS   C32 8579   4.975   1.301   9.927  0.5611 -0.1225 -0.0884
   89SAPS   H2X 8580   4.882   1.256   9.884  2.0293 -2.1686 -1.2265
   89SAPS   H2Y 8581   5.060   1.230   9.921  1.9191  1.4139  0.8432
   89SAPS   C23 8582   4.560   0.842   9.922 -0.3462  0.7752  0.5741
   89SAPS   H3R 8583   4.607   0.894   9.835  1.2129 -0.5633  0.5919
   89SAPS   H3S 8584   4.459   0.885   9.936 -0.7685  1.0339 -2.8116
   89SAPS   C24 8585   4.539   0.694   9.880 -0.1850  0.0314 -0.4315
   89SAPS   H4R 8586   4.451   0.704   9.813 -0.4987 -1.0892 -0.1945
   89SAPS   H4S 8587   4.512   0.633   9.969  0.4112 -0.2232 -0.4198
   89SAPS   C25 8588   4.656   0.636   9.800 -0.0525  0.6343  0.4235
   89SAPS   H5R 8589   4.732   0.582   9.858  0.9027  1.5301  0.0214
   89SAPS   C26 8590   4.679   0.657   9.666 -1.2016 -1.1922  0.5724
   89SAPS   H6R 8591   4.772   0.616   9.624 -0.7729  1.5727 -1.3552
   89SAPS   C27 8592   4.594   0.737   9.566 -0.3327 -0.2320  0.5390
   89SAPS   H7R 8593   4.652   0.810   9.504  0.3467 -1.3083 -0.1154
   89SAPS   H7S 8594   4.518   0.802   9.614 -1.8364 -0.1501 -1.8339
   89SAPS   C28 8595   4.532   0.639   9.464  0.5657  0.0680  0.5845
   89SAPS   H8R 8596   4.449   0.581   9.507  0.8669 -0.0265  1.0374
   89SAPS   C29 8597   4.555   0.626   9.328 -0.3824 -0.3730  0.0871
   89SAPS   H9R 8598   4.508   0.541   9.275  0.9016 -1.5328  0.7757
   89SAPS  C210 8599   4.669   0.706   9.259  0.5670  0.3978 -0.2406
   89SAPS  H10R 8600   4.748   0.716   9.337 -2.1633 -0.4279  2.7750
   89SAPS  H10S 8601   4.629   0.808   9.243 -2.5161 -0.5632  0.9561
   89SAPS  C211 8602   4.737   0.646   9.137 -0.3543  0.5482  0.0215
   89SAPS  H11R 8603   4.847   0.645   9.135 -0.3521 -1.5487  0.3188
   89SAPS  C212 8604   4.681   0.615   9.021  0.4698  0.0152 -0.5557
   89SAPS  H12R 8605   4.741   0.573   8.939 -0.8225  0.1582 -1.5915
   89SAPS  C213 8606   4.530   0.631   8.989 -0.7063 -0.3388 -0.2622
   89SAPS  H13R 8607   4.469   0.657   9.077  0.3839  0.8249  0.1648
   89SAPS  H13S 8608   4.485   0.536   8.952 -1.3898  0.0701 -0.4849
   89SAPS  C214 8609   4.525   0.733   8.876 -0.2329 -0.2436  0.1476
   89SAPS  H14R 8610   4.572   0.829   8.900 -1.1960  0.0252  1.0068
   89SAPS  C215 8611   4.458   0.726   8.759 -0.3306  0.3364 -0.3042
   89SAPS  H15R 8612   4.471   0.812   8.693  0.8015  1.5149  1.4101
   89SAPS  C216 8613   4.374   0.614   8.707  0.1560  0.2970  0.0522
   89SAPS  H16R 8614   4.375   0.517   8.760  1.7108 -0.7756 -1.8945
   89SAPS  H16S 8615   4.412   0.597   8.604  0.0013  1.0773 -0.1349
   89SAPS  C217 8616   4.229   0.659   8.692 -0.0384 -0.3236 -0.6376
   89SAPS  H17R 8617   4.183   0.671   8.792  1.2334  0.9743 -0.1856
   89SAPS  H17S 8618   4.171   0.569   8.659  2.2989 -2.0973 -0.0742
   89SAPS  C218 8619   4.194   0.782   8.600  0.1687 -0.4469  0.1011
   89SAPS  H18R 8620   4.239   0.778   8.498  2.5877 -3.6252  1.2192
   89SAPS  H18S 8621   4.240   0.874   8.641 -0.0148 -0.9192  1.4032
   89SAPS  C219 8622   4.038   0.804   8.599  0.3237  0.5188  0.2575
   89SAPS  H19R 8623   4.007   0.888   8.533  2.7909  1.4922  0.2931
   89SAPS  H19S 8624   4.001   0.824   8.702 -0.6800 -1.9414  0.4137
   89SAPS  C220 8625   3.950   0.689   8.555  0.0754 -0.2052 -0.4674
   89SAPS  H20R 8626   3.997   0.645   8.464  1.0662 -2.3199  1.0274
   89SAPS  H20S 8627   3.845   0.709   8.526  0.2417  1.0561 -0.2250
   89SAPS  H20T 8628   3.957   0.614   8.636 -0.0873 -0.0164 -0.2785
   89SAPS   C33 8629   5.006   1.434   9.850  0.0542  0.3596  0.9675
   89SAPS   H3X 8630   5.074   1.507   9.899  2.3240 -0.3664 -1.0117
   89SAPS   H3Y 8631   4.900   1.469   9.852  0.6563  2.2986 -0.0583
   89SAPS   C34 8632   5.047   1.397   9.704  0.0561 -0.1047  0.0548
   89SAPS   H4X 8633   5.110   1.306   9.710  0.0758  0.0693  3.5048
   89SAPS   H4Y 8634   5.111   1.474   9.656 -0.5947 -0.5976 -1.6506
   89SAPS   C35 8635   4.926   1.378   9.609  0.7851 -0.1731 -0.3691
   89SAPS   H5X 8636   4.872   1.473   9.591  2.7450  0.8517 -0.9632
   89SAPS   H5Y 8637   4.859   1.305   9.659  0.9783 -0.3632 -0.3863
   89SAPS   C36 8638   4.963   1.312   9.471 -0.5973  0.2004  0.8211
   89SAPS   H6X 8639   4.879   1.244   9.445 -0.9445  1.3669 -1.2542
   89SAPS   H6Y 8640   5.057   1.252   9.475  0.2124  1.5134  2.3981
   89SAPS   C37 8641   4.991   1.418   9.368  0.1950  0.7151 -0.0936
   89SAPS   H7X 8642   5.095   1.457   9.373  0.1383  0.6788  1.5875
   89SAPS   H7Y 8643   4.930   1.509   9.379  0.9600  1.3613 -1.0754
   89SAPS   C38 8644   4.979   1.362   9.221  0.4316 -0.1604  0.0144
   89SAPS   H8X 8645   4.879   1.315   9.217  0.6438 -0.5898 -0.2958
   89SAPS   H8Y 8646   5.055   1.282   9.217  0.2964 -0.2687 -0.5273
   89SAPS   C39 8647   5.022   1.458   9.108 -0.3516  0.4057 -0.2942
   89SAPS   H9X 8648   5.119   1.506   9.132 -0.6648  0.1066  1.6198
   89SAPS   H9Y 8649   4.946   1.539   9.105 -0.6558  0.1225 -0.2282
   89SAPS  C310 8650   5.024   1.397   8.966  1.3203  0.7826 -0.3640
   89SAPS  H10X 8651   4.926   1.352   8.942  1.9228 -1.6002  1.4866
   89SAPS  H10Y 8652   5.109   1.326   8.969  0.8442  0.1663 -1.3900
   89SAPS  C311 8653   5.048   1.506   8.859 -0.7089 -0.3699  0.3191
   89SAPS  H11X 8654   5.144   1.557   8.880  0.1453 -1.4171 -0.9383
   89SAPS  H11Y 8655   4.962   1.574   8.876 -0.2037 -0.0290  1.5393
   89SAPS  C312 8656   5.044   1.462   8.711  0.3873  0.4647  0.8043
   89SAPS  H12X 8657   4.942   1.418   8.705  0.2285  0.7476  1.3377
   89SAPS  H12Y 8658   5.114   1.377   8.696 -1.0002 -0.7656  1.1709
   89SAPS  C313 8659   5.053   1.579   8.615 -0.2847  0.1020 -0.1209
   89SAPS  H13X 8660   5.159   1.609   8.602  0.0318 -0.1066  1.8402
   89SAPS  H13Y 8661   4.988   1.659   8.657 -0.0310 -0.6780  1.8047
   89SAPS  C314 8662   4.998   1.558   8.472 -0.1738 -0.4476 -0.6331
   89SAPS  H14X 8663   4.888   1.546   8.481 -0.0809 -0.5182  0.5456
   89SAPS  H14Y 8664   5.055   1.470   8.436 -1.0860 -2.0957  1.8001
   89SAPS  C315 8665   5.027   1.684   8.381 -0.1221  0.2038  0.1998
   89SAPS  H15X 8666   4.988   1.657   8.280  1.8978 -0.7927 -0.3300
   89SAPS  H15Y 8667   5.134   1.712   8.380  0.1558 -0.8464 -1.0164
   89SAPS  C316 8668   4.946   1.813   8.418  0.2869  0.2829  0.4299
   89SAPS  H16X 8669   4.985   1.846   8.517  3.9371 -1.1465 -0.4734
   89SAPS  H16Y 8670   4.844   1.775   8.438  0.8483  0.0181  3.0246
   89SAPS  C317 8671   4.951   1.920   8.304 -0.1778  0.3055 -0.3237
   89SAPS  H17X 8672   4.897   2.006   8.350  2.9985  1.8206  0.6993
   89SAPS  H17Y 8673   4.893   1.882   8.217 -1.6865 -0.1108  0.8346
   89SAPS  C318 8674   5.091   1.959   8.260 -0.2385  0.0186 -0.6953
   89SAPS  H18X 8675   5.135   1.886   8.189 -1.7275  2.7476 -4.6261
   89SAPS  H18Y 8676   5.162   1.962   8.346  0.5327  0.3573 -1.3292
   89SAPS  H18Z 8677   5.092   2.052   8.198 -0.3876 -0.1624 -0.9673
   90SAPS     N 8678   6.461   1.267  10.725 -0.1102  0.2807  0.7760
   90SAPS   HN1 8679   6.375   1.235  10.774  0.2275 -1.4920  0.2478
   90SAPS   HN2 8680   6.452   1.370  10.716 -0.4060 -0.0142 -2.8372
   90SAPS   HN3 8681   6.468   1.229  10.628  1.6548  0.5198  0.7848
   90SAPS   C12 8682   6.586   1.227  10.799  0.1640 -0.3033 -0.1762
   90SAPS  H12A 8683   6.665   1.273  10.740 -0.5672  2.8878  1.1959
   90SAPS   C13 8684   6.601   1.300  10.936 -0.3510 -0.0211 -0.0681
   90SAPS  O13A 8685   6.510   1.367  10.991 -0.1930  0.6673 -0.4123
   90SAPS  O13B 8686   6.717   1.286  10.985  0.0408 -0.1624  0.2166
   90SAPS   C11 8687   6.582   1.064  10.813  0.1483 -0.5907  0.2878
   90SAPS  H11A 8688   6.508   1.044  10.893 -0.9538  0.9908 -0.2939
   90SAPS  H11B 8689   6.685   1.031  10.838  0.4817  0.2731  0.0834
   90SAPS     P 8690   6.606   0.864  10.656 -0.0286  0.1065  0.4866
   90SAPS   O13 8691   6.750   0.873  10.667 -0.0804 -0.1422 -0.0948
   90SAPS   O14 8692   6.544   0.747  10.727  0.5077 -0.3115  0.0282
   90SAPS   O12 8693   6.530   0.995  10.700  0.2670  0.3220 -0.3579
   90SAPS   O11 8694   6.580   0.847  10.501 -0.1239  0.4388 -0.0590
   90SAPS    C1 8695   6.445   0.851  10.442 -0.9453  0.2176 -0.1964
   90SAPS    HA 8696   6.371   0.868  10.522 -0.9190 -1.7112  0.2604
   90SAPS    HB 8697   6.445   0.931  10.364  0.6424 -1.1975 -1.6820
   90SAPS    C2 8698   6.403   0.723  10.374  0.4266  0.2122  0.7502
   90SAPS    HS 8699   6.427   0.644  10.449  3.6488 -0.8341 -1.2731
   90SAPS   O21 8700   6.480   0.709  10.253 -0.3678  0.8701  0.4928
   90SAPS   C21 8701   6.467   0.595  10.184 -0.3821  0.1162  0.2041
   90SAPS   O22 8702   6.406   0.496  10.219  0.2612  0.8483 -0.2427
   90SAPS   C22 8703   6.547   0.616  10.052  0.2866 -0.1597  0.7199
   90SAPS   H2R 8704   6.492   0.696   9.996 -1.0597 -0.6100  1.3741
   90SAPS   H2S 8705   6.644   0.661  10.079  0.2094  1.1120 -1.0241
   90SAPS    C3 8706   6.251   0.715  10.347 -0.3379  0.0232  0.2839
   90SAPS    HX 8707   6.203   0.689  10.443 -1.0658  2.5695  0.6437
   90SAPS    HY 8708   6.225   0.635  10.274 -2.2830 -0.0856  1.0638
   90SAPS   O31 8709   6.200   0.840  10.304 -0.3305  0.0923 -0.0531
   90SAPS   C31 8710   6.182   0.859  10.174  0.4543 -0.2715 -0.0330
   90SAPS   O32 8711   6.236   0.797  10.085  0.2460 -0.4685 -0.2732
   90SAPS   C32 8712   6.092   0.980  10.152 -0.3001 -0.3067  0.2622
   90SAPS   H2X 8713   6.133   1.070  10.203 -1.4511  1.0236 -1.1001
   90SAPS   H2Y 8714   5.991   0.966  10.197 -0.5838 -0.1588 -0.3351
   90SAPS   C23 8715   6.568   0.478   9.973 -0.0650  0.6254  0.9375
   90SAPS   H3R 8716   6.474   0.442   9.926  0.5396 -0.7722  0.7726
   90SAPS   H3S 8717   6.590   0.404  10.053 -0.9878 -1.0428 -0.3261
   90SAPS   C24 8718   6.685   0.478   9.868  0.0548 -0.7005 -0.2228
   90SAPS   H4R 8719   6.785   0.472   9.916  0.9030  2.5057 -1.4143
   90SAPS   H4S 8720   6.681   0.581   9.826  0.3679 -0.5517  0.1086
   90SAPS   C25 8721   6.681   0.359   9.767 -0.4008  0.3096 -0.0019
   90SAPS   H5R 8722   6.681   0.262   9.819  0.6254  0.2904 -0.0270
   90SAPS   C26 8723   6.678   0.359   9.633 -0.5428  0.2338 -0.7089
   90SAPS   H6R 8724   6.687   0.264   9.579  2.7343 -0.7671  1.4062
   90SAPS   C27 8725   6.681   0.478   9.536 -0.3280  0.4230  0.4462
   90SAPS   H7R 8726   6.764   0.456   9.465  1.3398  0.8167  2.2521
   90SAPS   H7S 8727   6.709   0.571   9.590 -2.0273  0.8341  0.6532
   90SAPS   C28 8728   6.550   0.491   9.469 -0.1502  0.1766  0.1071
   90SAPS   H8R 8729   6.471   0.477   9.545 -0.1722 -0.0671  0.0395
   90SAPS   C29 8730   6.527   0.521   9.339  0.9243  0.3546  0.5676
   90SAPS   H9R 8731   6.424   0.544   9.310  0.6506  1.0575  2.0338
   90SAPS  C210 8732   6.620   0.559   9.227  0.1662  0.0758 -0.0377
   90SAPS  H10R 8733   6.570   0.531   9.132 -1.8311  3.5558 -0.0905
   90SAPS  H10S 8734   6.699   0.481   9.223  0.0086 -0.2394  2.3187
   90SAPS  C211 8735   6.680   0.700   9.242  0.0134  0.6288  0.3910
   90SAPS  H11R 8736   6.738   0.721   9.333  1.7236  0.5521 -0.6751
   90SAPS  C212 8737   6.637   0.812   9.184  0.7072  0.3144  0.9586
   90SAPS  H12R 8738   6.698   0.902   9.199 -0.1311  1.3716 -1.7427
   90SAPS  C213 8739   6.527   0.815   9.076  0.9101 -0.9686  0.1795
   90SAPS  H13R 8740   6.436   0.772   9.123  0.1947 -0.8753 -1.1188
   90SAPS  H13S 8741   6.561   0.762   8.985  0.0862  0.0910 -0.7716
   90SAPS  C214 8742   6.498   0.952   9.030 -0.5935 -0.5395 -0.0811
   90SAPS  H14R 8743   6.462   1.021   9.108  1.1668  0.7492 -0.3943
   90SAPS  C215 8744   6.523   1.006   8.907  0.8694  0.8032 -0.1841
   90SAPS  H15R 8745   6.474   1.101   8.881 -2.1354 -0.8723 -0.8381
   90SAPS  C216 8746   6.573   0.938   8.786 -0.1729  1.1035 -0.4536
   90SAPS  H16R 8747   6.500   0.963   8.706 -2.3971  0.5013  1.3354
   90SAPS  H16S 8748   6.544   0.831   8.789  0.3181  0.9714 -0.3754
   90SAPS  C217 8749   6.720   0.942   8.747 -0.5555  0.7407 -0.0445
   90SAPS  H17R 8750   6.781   0.874   8.811  0.1406  2.1439  0.8040
   90SAPS  H17S 8751   6.766   1.041   8.767 -1.1380  0.9044  0.4726
   90SAPS  C218 8752   6.745   0.901   8.600  0.2989  0.0732 -0.1546
   90SAPS  H18R 8753   6.685   0.971   8.538 -2.1892 -1.7744  0.0587
   90SAPS  H18S 8754   6.702   0.798   8.598  1.4310 -0.3773 -1.2548
   90SAPS  C219 8755   6.890   0.902   8.559 -0.2647 -0.3536 -0.1151
   90SAPS  H19R 8756   6.933   1.000   8.588 -0.9474  0.6825 -2.4636
   90SAPS  H19S 8757   6.894   0.904   8.448 -0.1787  0.9030 -0.0934
   90SAPS  C220 8758   6.975   0.790   8.614 -0.0671  0.1339  0.5741
   90SAPS  H20R 8759   6.984   0.791   8.724  1.8720 -1.1120  0.4562
   90SAPS  H20S 8760   7.072   0.811   8.564  0.2567  1.2961  1.6929
   90SAPS  H20T 8761   6.933   0.692   8.581 -1.3016  0.9315 -0.2567
   90SAPS   C33 8762   6.081   1.018  10.000 -0.5322 -0.1192 -0.6058
   90SAPS   H3X 8763   6.184   1.033   9.962  0.1388 -1.1356  0.7423
   90SAPS   H3Y 8764   6.037   1.120   9.999  2.4403  1.2215 -0.6836
   90SAPS   C34 8765   5.986   0.935   9.923 -0.6082 -0.0815  0.0686
   90SAPS   H4X 8766   5.886   0.950   9.967 -0.5085 -0.5362  0.4453
   90SAPS   H4Y 8767   6.002   0.828   9.946  1.0039 -0.2810 -1.8289
   90SAPS   C35 8768   5.993   0.964   9.771  0.5953 -0.1886  0.8899
   90SAPS   H5X 8769   6.086   0.917   9.731 -1.0815 -2.0951 -0.9110
   90SAPS   H5Y 8770   6.006   1.072   9.751  0.6641 -0.3470  0.0492
   90SAPS   C36 8771   5.881   0.900   9.688  0.3536 -0.1299  0.2117
   90SAPS   H6X 8772   5.794   0.865   9.746  0.1317  0.1781  0.0644
   90SAPS   H6Y 8773   5.924   0.805   9.649  0.9810 -0.5699  1.9116
   90SAPS   C37 8774   5.823   0.995   9.581 -0.1127  0.5600 -0.7881
   90SAPS   H7X 8775   5.914   1.046   9.541  2.1625 -2.4296  0.3662
   90SAPS   H7Y 8776   5.756   1.076   9.617 -1.5091 -1.0781  0.3431
   90SAPS   C38 8777   5.758   0.931   9.459  0.2797 -0.1047 -0.5122
   90SAPS   H8X 8778   5.679   0.858   9.485 -0.7251  1.5470  1.1356
   90SAPS   H8Y 8779   5.834   0.868   9.408  0.7985 -0.4905  0.7350
   90SAPS   C39 8780   5.700   1.037   9.362  0.3452  0.5495 -0.3580
   90SAPS   H9X 8781   5.768   1.123   9.344  0.4030  0.9643  1.7111
   90SAPS   H9Y 8782   5.603   1.069   9.407 -1.0361 -1.4922 -1.8278
   90SAPS  C310 8783   5.677   0.974   9.224  0.1986  0.6134  0.2420
   90SAPS  H10X 8784   5.609   0.887   9.235 -2.0009  2.1788 -0.6981
   90SAPS  H10Y 8785   5.774   0.943   9.180 -0.6482 -1.2443 -0.3690
   90SAPS  C311 8786   5.605   1.081   9.135 -0.3780  0.0469 -0.5910
   90SAPS  H11X 8787   5.672   1.168   9.119 -1.0670  0.8584  0.7907
   90SAPS  H11Y 8788   5.515   1.127   9.180  0.1808 -1.1458  1.8585
   90SAPS  C312 8789   5.563   1.024   8.998  0.3813 -0.2701 -0.5320
   90SAPS  H12X 8790   5.498   0.934   9.000  2.1036 -1.5261 -0.0196
   90SAPS  H12Y 8791   5.647   0.984   8.936  0.4167  2.1994 -2.1479
   90SAPS  C313 8792   5.474   1.119   8.919 -0.2144  0.0685  0.5281
   90SAPS  H13X 8793   5.532   1.207   8.882  1.9031 -1.5370 -0.0577
   90SAPS  H13Y 8794   5.403   1.159   8.994  0.0571 -2.0469  1.9280
   90SAPS  C314 8795   5.405   1.064   8.787  1.4136 -0.3561  0.2087
   90SAPS  H14X 8796   5.357   1.145   8.729  0.7361 -0.6639  0.3363
   90SAPS  H14Y 8797   5.336   0.987   8.827  0.8134 -0.6764 -1.4054
   90SAPS  C315 8798   5.499   0.993   8.685 -0.1249 -0.6507 -0.0960
   90SAPS  H15X 8799   5.449   0.993   8.585  1.0961 -0.1307 -0.7222
   90SAPS  H15Y 8800   5.510   0.886   8.713 -1.8345 -1.2721 -1.6815
   90SAPS  C316 8801   5.629   1.071   8.676 -0.4440 -0.0714  0.6013
   90SAPS  H16X 8802   5.675   1.091   8.775  0.0036  0.3948  0.3030
   90SAPS  H16Y 8803   5.601   1.171   8.639 -0.6411 -0.0005  0.9396
   90SAPS  C317 8804   5.739   1.015   8.589 -0.1951  0.0825 -0.1425
   90SAPS  H17X 8805   5.712   0.918   8.542 -2.8307  1.1243 -0.9179
   90SAPS  H17Y 8806   5.821   0.995   8.661  0.0632 -0.2363 -0.5243
   90SAPS  C318 8807   5.798   1.119   8.491  0.7365  0.7774 -0.0589
   90SAPS  H18X 8808   5.728   1.134   8.406  3.5209  0.1818 -2.5113
   90SAPS  H18Y 8809   5.890   1.078   8.444  0.1864  0.0378 -0.4866
   90SAPS  H18Z 8810   5.823   1.219   8.532 -1.2390  0.2799  2.4753
   91SAPS     N 8811   5.215   0.123   5.684 -0.2414  0.0952  0.0756
   91SAPS   HN1 8812   5.251   0.197   5.620 -1.0128  0.5364  0.1430
   91SAPS   HN2 8813   5.206   0.156   5.783  0.7030  0.5561  0.0143
   91SAPS   HN3 8814   5.293   0.055   5.696  0.6346  0.8187 -1.4302
   91SAPS   C12 8815   5.088   0.073   5.634 -0.4952  0.4499  0.9102
   91SAPS  H12A 8816   5.029   0.158   5.601 -1.7087  0.4207  2.9284
   91SAPS   C13 8817   5.100  -0.018   5.507  0.7460  0.0825  0.5454
   91SAPS  O13A 8818   5.204  -0.000   5.433  0.3527  0.2791  0.5592
   91SAPS  O13B 8819   4.987  -0.033   5.447  0.3924  0.3353 -0.4026
   91SAPS   C11 8820   5.011   0.012   5.755 -0.1458 -0.4288 -0.5293
   91SAPS  H11A 8821   4.914  -0.022   5.715 -0.2346  0.6500 -1.2621
   91SAPS  H11B 8822   4.980   0.092   5.826  0.0071  0.6539 -1.6631
   91SAPS     P 8823   5.047  -0.153   5.960 -0.2157 -0.0402 -0.6672
   91SAPS   O13 8824   4.905  -0.179   5.972 -0.1456  0.3993 -0.1921
   91SAPS   O14 8825   5.145  -0.260   5.989 -0.3778 -1.1293 -0.1153
   91SAPS   O12 8826   5.081  -0.094   5.821 -0.6032  0.5292  0.3054
   91SAPS   O11 8827   5.077  -0.036   6.065 -0.1861 -0.1553  0.5199
   91SAPS    C1 8828   5.175  -0.052   6.172 -0.4740 -0.5088  0.6268
   91SAPS    HA 8829   5.247  -0.129   6.137 -0.8404 -0.7599  0.4308
   91SAPS    HB 8830   5.225   0.047   6.184 -0.9162 -0.3284  1.0045
   91SAPS    C2 8831   5.120  -0.090   6.318  0.3996 -0.3287 -0.1378
   91SAPS    HS 8832   5.123  -0.201   6.321  0.5635 -0.5263 -4.4102
   91SAPS   O21 8833   4.985  -0.039   6.327  0.3058  0.1386  0.7798
   91SAPS   C21 8834   4.894  -0.116   6.377 -0.6032 -0.3656 -0.5428
   91SAPS   O22 8835   4.919  -0.232   6.417  0.5425 -0.5394 -0.0229
   91SAPS   C22 8836   4.753  -0.057   6.365  0.1293 -0.2226 -0.3800
   91SAPS   H2R 8837   4.762   0.047   6.405 -1.9085 -0.6637  1.3054
   91SAPS   H2S 8838   4.739  -0.059   6.255  1.8236 -3.8858 -0.5924
   91SAPS    C3 8839   5.213  -0.032   6.436  1.1367  0.5452  1.0349
   91SAPS    HX 8840   5.225   0.078   6.422 -2.3931  0.9175  0.3859
   91SAPS    HY 8841   5.300  -0.100   6.430 -0.8794 -1.9602 -0.6244
   91SAPS   O31 8842   5.147  -0.050   6.564 -0.2310 -0.2914 -0.1349
   91SAPS   C31 8843   5.151  -0.161   6.639  0.1314 -0.8617  0.3398
   91SAPS   O32 8844   5.222  -0.259   6.616  0.0782  0.1259  0.2279
   91SAPS   C32 8845   5.061  -0.137   6.770  0.3553 -0.4422 -0.1117
   91SAPS   H2X 8846   4.973  -0.076   6.739  0.1624 -0.8744 -0.4151
   91SAPS   H2Y 8847   5.118  -0.073   6.841  1.0146  2.2254 -2.9241
   91SAPS   C23 8848   4.654  -0.148   6.435  0.5158 -0.0072 -0.1595
   91SAPS   H3R 8849   4.668  -0.253   6.402  3.0918  0.2987 -0.1651
   91SAPS   H3S 8850   4.553  -0.108   6.411  0.7916  0.2816 -0.8534
   91SAPS   C24 8851   4.659  -0.132   6.582  0.1276  0.7360 -0.6505
   91SAPS   H4R 8852   4.643  -0.026   6.610 -0.5807 -0.0618  2.1687
   91SAPS   H4S 8853   4.758  -0.167   6.616 -0.2886 -0.4983 -0.6701
   91SAPS   C25 8854   4.556  -0.209   6.658 -0.3593 -1.0985 -0.5913
   91SAPS   H5R 8855   4.519  -0.301   6.611  2.0814 -2.4535  0.0706
   91SAPS   C26 8856   4.519  -0.195   6.784 -0.4117  0.1094  0.5767
   91SAPS   H6R 8857   4.439  -0.264   6.814 -0.8317 -0.1721 -1.1354
   91SAPS   C27 8858   4.558  -0.091   6.886 -0.1308  0.1775  0.7850
   91SAPS   H7R 8859   4.600   0.001   6.840  0.4712 -0.3667  0.2406
   91SAPS   H7S 8860   4.643  -0.134   6.943  1.3818  2.2090  0.0999
   91SAPS   C28 8861   4.446  -0.043   6.972 -0.9555  0.0743  0.6559
   91SAPS   H8R 8862   4.359  -0.012   6.912 -0.5679 -1.1811 -0.5973
   91SAPS   C29 8863   4.445  -0.034   7.107 -0.2146  0.3395 -0.6334
   91SAPS   H9R 8864   4.353   0.006   7.152 -1.7841 -0.6374 -2.8739
   91SAPS  C210 8865   4.553  -0.068   7.209 -0.1482  0.7475  0.0974
   91SAPS  H10R 8866   4.633  -0.133   7.168 -0.7328 -0.2651  0.5589
   91SAPS  H10S 8867   4.516  -0.133   7.290  1.5193  0.3226  0.5245
   91SAPS  C211 8868   4.619   0.057   7.263 -0.2682 -0.9915 -0.1665
   91SAPS  H11R 8869   4.626   0.132   7.182  0.1877  0.7545  1.4541
   91SAPS  C212 8870   4.672   0.082   7.388  0.3522 -0.7202 -0.4470
   91SAPS  H12R 8871   4.701   0.184   7.416 -0.1919  0.3754 -3.6696
   91SAPS  C213 8872   4.671  -0.011   7.509 -0.4012 -0.2762  0.5336
   91SAPS  H13R 8873   4.742  -0.090   7.478  0.8820  1.3414 -0.7227
   91SAPS  H13S 8874   4.570  -0.054   7.525 -0.4718  0.3457  1.8536
   91SAPS  C214 8875   4.723   0.036   7.638 -0.2437 -0.2028 -1.0493
   91SAPS  H14R 8876   4.712   0.144   7.657 -0.9331 -0.7156  1.7617
   91SAPS  C215 8877   4.784  -0.028   7.737  0.0032  0.0906  0.2369
   91SAPS  H15R 8878   4.815   0.032   7.824  0.2268  0.1500  0.1162
   91SAPS  C216 8879   4.823  -0.170   7.760 -0.0063 -0.2389 -0.5059
   91SAPS  H16R 8880   4.784  -0.244   7.686 -0.4944 -0.4273 -0.0650
   91SAPS  H16S 8881   4.787  -0.209   7.858 -0.4484 -0.6710 -0.8338
   91SAPS  C217 8882   4.974  -0.183   7.760  0.1744 -0.8212  0.1153
   91SAPS  H17R 8883   5.025  -0.122   7.838  0.9284  0.0218 -1.0155
   91SAPS  H17S 8884   5.015  -0.156   7.661 -0.1811  1.1103  0.4813
   91SAPS  C218 8885   5.018  -0.333   7.802  0.5523  0.6149 -0.4434
   91SAPS  H18R 8886   4.963  -0.397   7.730  1.4889  0.0383 -0.6576
   91SAPS  H18S 8887   4.986  -0.346   7.908  0.7665 -1.1949 -0.5948
   91SAPS  C219 8888   5.160  -0.366   7.776  0.0771  0.4976 -0.1776
   91SAPS  H19R 8889   5.224  -0.299   7.837  1.0816 -0.3124 -0.3170
   91SAPS  H19S 8890   5.185  -0.365   7.668  0.5499 -1.9449 -0.1219
   91SAPS  C220 8891   5.194  -0.506   7.819 -0.5787 -0.3416  0.0213
   91SAPS  H20R 8892   5.298  -0.534   7.788 -0.0245  1.4313  0.2390
   91SAPS  H20S 8893   5.139  -0.583   7.761  1.5816  0.4459 -3.2294
   91SAPS  H20T 8894   5.174  -0.529   7.926 -0.1969  1.3035  0.4606
   91SAPS   C33 8895   5.015  -0.262   6.852 -0.5377  0.0720 -0.4878
   91SAPS   H3X 8896   5.109  -0.321   6.864 -0.2715  0.7821  0.9397
   91SAPS   H3Y 8897   4.938  -0.314   6.791 -1.9212 -0.2018  1.4736
   91SAPS   C34 8898   4.962  -0.229   6.992  0.4285 -0.1782 -0.8271
   91SAPS   H4X 8899   4.910  -0.323   7.021  0.6497  0.0212  0.2160
   91SAPS   H4Y 8900   4.884  -0.150   7.000  0.7988 -0.0136  1.4705
   91SAPS   C35 8901   5.065  -0.201   7.103 -0.6341  0.1942 -0.8711
   91SAPS   H5X 8902   5.112  -0.101   7.091 -1.3197  0.6142 -0.1027
   91SAPS   H5Y 8903   5.143  -0.280   7.101 -2.6382 -1.8702 -0.4976
   91SAPS   C36 8904   5.001  -0.213   7.246 -1.1126  0.1847  0.0714
   91SAPS   H6X 8905   4.977  -0.321   7.256 -1.2646  0.0758 -1.3304
   91SAPS   H6Y 8906   4.909  -0.152   7.242 -0.8249  0.6989  1.2017
   91SAPS   C37 8907   5.080  -0.146   7.364  0.8413  0.1241  0.3666
   91SAPS   H7X 8908   5.018  -0.176   7.451 -0.6260 -0.6653 -0.9267
   91SAPS   H7Y 8909   5.065  -0.036   7.354 -0.9808  0.0213  1.7145
   91SAPS   C38 8910   5.243  -0.174   7.376  0.8121 -0.4943 -0.4345
   91SAPS   H8X 8911   5.281  -0.146   7.275 -3.0650  0.7742 -1.6486
   91SAPS   H8Y 8912   5.237  -0.284   7.387 -0.9398 -0.3474  0.3115
   91SAPS   C39 8913   5.315  -0.109   7.495 -0.3760  0.0879  0.5444
   91SAPS   H9X 8914   5.254  -0.123   7.587 -1.0244  0.6819  0.2112
   91SAPS   H9Y 8915   5.314   0.002   7.490 -0.3354  0.0771  0.3159
   91SAPS  C310 8916   5.454  -0.167   7.525 -0.6062 -0.5519 -0.2922
   91SAPS  H10X 8917   5.482  -0.234   7.441  1.4726 -2.7044  2.0482
   91SAPS  H10Y 8918   5.440  -0.237   7.610 -0.4223  2.7903  2.5963
   91SAPS  C311 8919   5.572  -0.070   7.546  0.4106  0.4204 -0.4655
   91SAPS  H11X 8920   5.657  -0.133   7.581 -0.6030 -0.8895 -0.3072
   91SAPS  H11Y 8921   5.545  -0.004   7.631 -0.6972 -1.3373  0.5827
   91SAPS  C312 8922   5.592   0.026   7.423 -0.2155  0.2631  0.0835
   91SAPS  H12X 8923   5.634   0.121   7.463  0.6101  0.1333 -0.4714
   91SAPS  H12Y 8924   5.491   0.049   7.382 -0.1348  0.8339  0.2006
   91SAPS  C313 8925   5.666  -0.049   7.315 -0.6986 -0.5796  0.2228
   91SAPS  H13X 8926   5.615  -0.144   7.289 -1.6403  0.1882 -0.7536
   91SAPS  H13Y 8927   5.774  -0.059   7.341 -0.8141 -3.0824 -0.1345
   91SAPS  C314 8928   5.646   0.036   7.189  0.5320  0.2570 -1.0161
   91SAPS  H14X 8929   5.681   0.141   7.201 -1.5867  0.6862  1.8560
   91SAPS  H14Y 8930   5.536   0.046   7.177  0.1482  0.1152  1.9799
   91SAPS  C315 8931   5.708  -0.022   7.063  0.2266 -0.7054 -0.2935
   91SAPS  H15X 8932   5.808  -0.057   7.097  0.4713  0.2801  0.0272
   91SAPS  H15Y 8933   5.715   0.056   6.985 -1.4514 -0.0051  0.2410
   91SAPS  C316 8934   5.636  -0.141   6.999 -0.3180 -0.1066  0.6796
   91SAPS  H16X 8935   5.604  -0.211   7.079 -2.2800  1.2143  1.0909
   91SAPS  H16Y 8936   5.714  -0.195   6.942 -2.0513 -0.5811 -1.3165
   91SAPS  C317 8937   5.509  -0.116   6.921 -0.2874 -0.5504  0.0462
   91SAPS  H17X 8938   5.516  -0.066   6.822 -0.3440 -0.7371 -0.0509
   91SAPS  H17Y 8939   5.455  -0.043   6.986  1.9831  1.8858 -0.7158
   91SAPS  C318 8940   5.426  -0.244   6.931  0.3599 -0.0591  0.4812
   91SAPS  H18X 8941   5.474  -0.335   6.889  0.3914  0.0731  0.2291
   91SAPS  H18Y 8942   5.326  -0.236   6.883  1.9117  1.2701 -2.7094
   91SAPS  H18Z 8943   5.413  -0.272   7.038 -1.5233 -0.4787  0.1622
   92SAPS     N 8944   4.340   4.078   6.215 -0.0084  0.1276 -0.5623
   92SAPS   HN1 8945   4.301   4.034   6.301  1.8057 -0.3240  0.0557
   92SAPS   HN2 8946   4.271   4.073   6.137 -0.0706  2.0636 -0.6629
   92SAPS   HN3 8947   4.423   4.018   6.195  0.7334  0.3832  1.6392
   92SAPS   C12 8948   4.376   4.218   6.237  0.5040  0.1663 -0.3455
   92SAPS  H12A 8949   4.433   4.218   6.329  0.2159 -0.3070 -0.1648
   92SAPS   C13 8950   4.470   4.274   6.132 -0.0991 -0.5594  0.8944
   92SAPS  O13A 8951   4.520   4.194   6.048 -0.1960 -0.0530  0.3976
   92SAPS  O13B 8952   4.511   4.389   6.142  0.3979  0.3566 -0.7034
   92SAPS   C11 8953   4.246   4.301   6.251  0.3826 -1.1756 -0.1286
   92SAPS  H11A 8954   4.174   4.287   6.167  1.7130  0.2193 -1.5291
   92SAPS  H11B 8955   4.283   4.405   6.252  1.1253 -1.4386 -0.5629
   92SAPS     P 8956   4.165   4.358   6.486  0.2126  0.2299  0.2518
   92SAPS   O13 8957   4.074   4.458   6.429 -0.5900  0.3213 -0.1880
   92SAPS   O14 8958   4.129   4.284   6.605  0.0807 -0.2796  0.1131
   92SAPS   O12 8959   4.186   4.253   6.377 -0.2292  0.1998 -0.4893
   92SAPS   O11 8960   4.309   4.422   6.489 -0.0224 -0.3426  0.1949
   92SAPS    C1 8961   4.411   4.385   6.581  0.1443  0.1692 -0.0750
   92SAPS    HA 8962   4.406   4.281   6.617  0.2858  0.4657  0.8288
   92SAPS    HB 8963   4.501   4.392   6.516 -1.4713  0.2960 -2.3690
   92SAPS    C2 8964   4.421   4.483   6.703  0.5023 -0.0560 -0.1264
   92SAPS    HS 8965   4.509   4.463   6.769  0.6575  0.3163 -0.2227
   92SAPS   O21 8966   4.303   4.473   6.789 -0.1393  0.1241 -0.0116
   92SAPS   C21 8967   4.291   4.360   6.849 -0.3585  0.3019  0.4080
   92SAPS   O22 8968   4.363   4.261   6.843 -0.0068 -0.4782  0.3017
   92SAPS   C22 8969   4.162   4.363   6.928  0.5671  0.9035  0.0369
   92SAPS   H2R 8970   4.165   4.459   6.984 -1.1411  1.9755 -1.6680
   92SAPS   H2S 8971   4.076   4.361   6.858 -0.6359 -1.5960  1.5031
   92SAPS    C3 8972   4.432   4.634   6.656  1.1041 -0.2205  0.2593
   92SAPS    HX 8973   4.333   4.666   6.617  0.8129  1.4353  2.2065
   92SAPS    HY 8974   4.506   4.636   6.574  0.9259  0.2731  0.1052
   92SAPS   O31 8975   4.462   4.719   6.769  0.2606  0.0996  0.3405
   92SAPS   C31 8976   4.517   4.833   6.727  0.0490 -0.6443  0.3384
   92SAPS   O32 8977   4.537   4.863   6.608 -0.0581 -0.1853 -0.0637
   92SAPS   C32 8978   4.563   4.917   6.849  0.3028  0.6682 -1.0002
   92SAPS   H2X 8979   4.630   4.852   6.910 -1.3389 -0.5068 -0.3955
   92SAPS   H2Y 8980   4.478   4.915   6.922  0.9205  0.1014 -0.2837
   92SAPS   C23 8981   4.153   4.238   7.022  0.3335  0.2584  0.2030
   92SAPS   H3R 8982   4.256   4.210   7.055  0.3611  0.8841  0.6516
   92SAPS   H3S 8983   4.127   4.147   6.964 -1.4814 -1.1796  3.1697
   92SAPS   C24 8984   4.061   4.258   7.143  0.3262  0.0087  0.0503
   92SAPS   H4R 8985   4.086   4.341   7.212  0.3415 -0.0238  0.0834
   92SAPS   H4S 8986   4.072   4.166   7.205 -2.4768 -0.8582 -0.6917
   92SAPS   C25 8987   3.916   4.280   7.100 -0.5452  0.2406 -0.0413
   92SAPS   H5R 8988   3.886   4.231   7.007  0.0873 -0.9619  0.3775
   92SAPS   C26 8989   3.824   4.331   7.184  0.6189  0.1632  0.4328
   92SAPS   H6R 8990   3.717   4.323   7.159  0.5551 -0.8321  0.9978
   92SAPS   C27 8991   3.842   4.372   7.330 -0.3284  0.6188  0.3189
   92SAPS   H7R 8992   3.932   4.317   7.365 -0.1841 -0.7252 -2.0462
   92SAPS   H7S 8993   3.765   4.332   7.400 -0.6116 -0.2996 -0.5137
   92SAPS   C28 8994   3.871   4.519   7.338  0.4350  0.0647  0.5975
   92SAPS   H8R 8995   3.816   4.570   7.258  0.3439 -1.9346 -0.6697
   92SAPS   C29 8996   3.940   4.586   7.432  0.1723 -0.4832  0.8886
   92SAPS   H9R 8997   3.955   4.695   7.429  1.3972 -0.6795 -1.4081
   92SAPS  C210 8998   4.013   4.515   7.542  0.2738 -0.7906  0.1646
   92SAPS  H10R 8999   3.976   4.410   7.543  0.2646 -0.7937  1.6260
   92SAPS  H10S 9000   3.985   4.574   7.632  0.0315  0.1088 -0.4958
   92SAPS  C211 9001   4.156   4.508   7.534 -0.4840 -0.7125  0.7109
   92SAPS  H11R 9002   4.209   4.537   7.442 -0.5060 -0.7162  0.6968
   92SAPS  C212 9003   4.237   4.455   7.629 -0.5784  0.3908  0.1326
   92SAPS  H12R 9004   4.347   4.462   7.627 -0.4638 -1.0859  0.5337
   92SAPS  C213 9005   4.199   4.393   7.759  0.4002 -0.0459  0.0274
   92SAPS  H13R 9006   4.090   4.405   7.776  0.7494  1.8168  1.0567
   92SAPS  H13S 9007   4.240   4.459   7.838 -1.1022  1.8687 -0.7668
   92SAPS  C214 9008   4.228   4.245   7.784  0.4598  0.3447  0.2707
   92SAPS  H14R 9009   4.173   4.187   7.708 -0.5823  1.7735 -0.0897
   92SAPS  C215 9010   4.315   4.195   7.874 -0.4169 -0.6344 -0.2765
   92SAPS  H15R 9011   4.330   4.086   7.878 -1.3622 -0.8203 -1.3990
   92SAPS  C216 9012   4.398   4.266   7.975 -0.6209  0.4041  0.3234
   92SAPS  H16R 9013   4.388   4.376   7.960  0.1877  0.6911  1.8671
   92SAPS  H16S 9014   4.504   4.238   7.961 -1.8047 -4.2128 -0.2213
   92SAPS  C217 9015   4.343   4.235   8.115 -0.1298  0.6637 -0.1250
   92SAPS  H17R 9016   4.427   4.271   8.179  1.1761 -0.4659 -1.1617
   92SAPS  H17S 9017   4.340   4.126   8.140 -0.4690  0.8423  0.6208
   92SAPS  C218 9018   4.211   4.302   8.136 -0.2006  0.4684  0.0411
   92SAPS  H18R 9019   4.144   4.280   8.050 -0.0476 -2.5264  0.6074
   92SAPS  H18S 9020   4.240   4.409   8.138 -0.8309  0.7054 -2.2232
   92SAPS  C219 9021   4.144   4.263   8.271  0.4552  0.0834  0.2161
   92SAPS  H19R 9022   4.140   4.153   8.286  0.1460  0.0351 -0.2150
   92SAPS  H19S 9023   4.040   4.302   8.267 -0.4165 -2.2185  0.0291
   92SAPS  C220 9024   4.217   4.327   8.390 -0.2146  0.1202 -0.6878
   92SAPS  H20R 9025   4.274   4.253   8.451 -0.4762  1.4568  1.2227
   92SAPS  H20S 9026   4.141   4.381   8.451  0.8780 -0.2200  1.0172
   92SAPS  H20T 9027   4.293   4.403   8.364  0.3325 -0.7717 -1.7363
   92SAPS   C33 9028   4.614   5.059   6.822 -0.3529  0.2718  0.5218
   92SAPS   H3X 9029   4.541   5.108   6.754  1.0314  1.9546  0.2081
   92SAPS   H3Y 9030   4.705   5.067   6.758 -1.5613  0.1679 -1.2380
   92SAPS   C34 9031   4.613   5.154   6.946  0.0229  0.0495 -0.0931
   92SAPS   H4X 9032   4.506   5.178   6.965 -0.4188 -0.6617 -1.5745
   92SAPS   H4Y 9033   4.657   5.252   6.917 -1.4805  0.5901 -0.6214
   92SAPS   C35 9034   4.691   5.104   7.070  0.5576 -0.4234 -0.4888
   92SAPS   H5X 9035   4.799   5.126   7.055  0.0456  1.8303 -1.0384
   92SAPS   H5Y 9036   4.676   4.997   7.097 -0.6683 -0.0732  0.2491
   92SAPS   C36 9037   4.662   5.187   7.200  0.3720 -0.2521 -0.1101
   92SAPS   H6X 9038   4.557   5.201   7.233 -0.0147  0.9559 -1.7669
   92SAPS   H6Y 9039   4.699   5.290   7.186  2.3480 -0.7044  1.5540
   92SAPS   C37 9040   4.744   5.143   7.320 -0.0930  0.1779  0.0257
   92SAPS   H7X 9041   4.853   5.135   7.302 -0.1931 -0.8602 -0.1578
   92SAPS   H7Y 9042   4.717   5.036   7.337 -0.7750  0.4522  0.6880
   92SAPS   C38 9043   4.746   5.236   7.446 -0.5531  0.2969  0.0509
   92SAPS   H8X 9044   4.762   5.340   7.411  0.8768 -0.1187 -0.5796
   92SAPS   H8Y 9045   4.837   5.212   7.506 -0.6004 -0.5595 -0.2192
   92SAPS   C39 9046   4.623   5.205   7.545  0.7682 -0.3859 -0.0721
   92SAPS   H9X 9047   4.634   5.100   7.580  1.1603 -1.5549 -3.5120
   92SAPS   H9Y 9048   4.542   5.224   7.472 -0.3810 -0.0266  1.2560
   92SAPS  C310 9049   4.613   5.299   7.665 -0.4711 -0.0497 -0.1743
   92SAPS  H10X 9050   4.512   5.281   7.709  0.4540 -0.5524  1.8022
   92SAPS  H10Y 9051   4.621   5.403   7.628  1.2241 -0.3516 -0.7202
   92SAPS  C311 9052   4.732   5.291   7.758  0.5243  0.3506 -0.2185
   92SAPS  H11X 9053   4.737   5.392   7.804 -0.4396 -0.1718  1.0657
   92SAPS  H11Y 9054   4.829   5.279   7.703 -0.0312  2.1547 -1.6345
   92SAPS  C312 9055   4.715   5.183   7.865 -0.8050 -0.4075  1.6017
   92SAPS  H12X 9056   4.674   5.092   7.816 -1.0555  0.6847 -0.2589
   92SAPS  H12Y 9057   4.642   5.214   7.943 -1.6138  1.9515 -0.0520
   92SAPS  C313 9058   4.852   5.134   7.913  0.1425 -0.0871 -0.8989
   92SAPS  H13X 9059   4.901   5.214   7.972 -1.0387 -0.2467  0.3253
   92SAPS  H13Y 9060   4.911   5.103   7.825  2.3695 -0.2376  0.6082
   92SAPS  C314 9061   4.838   5.012   8.012 -0.3303 -0.1611  0.1913
   92SAPS  H14X 9062   4.776   4.937   7.959 -0.5496 -0.2650  0.5868
   92SAPS  H14Y 9063   4.798   5.041   8.112  1.1115  1.5599  0.3004
   92SAPS  C315 9064   4.967   4.948   8.039  0.5764 -0.5023 -0.6115
   92SAPS  H15X 9065   5.036   5.024   8.082 -1.7902  0.9712  0.6870
   92SAPS  H15Y 9066   5.008   4.915   7.941 -0.5391 -0.3666 -1.1257
   92SAPS  C316 9067   4.962   4.827   8.135 -0.4283  0.6390  0.4223
   92SAPS  H16X 9068   5.064   4.791   8.160  0.1083  0.9931 -1.2016
   92SAPS  H16Y 9069   4.913   4.739   8.088 -0.2664  0.0057  1.4058
   92SAPS  C317 9070   4.874   4.855   8.271  0.3041 -0.5672 -0.3468
   92SAPS  H17X 9071   4.863   4.755   8.319 -3.3720  2.1519  4.9646
   92SAPS  H17Y 9072   4.768   4.872   8.243  0.8448  1.2216 -1.3556
   92SAPS  C318 9073   4.923   4.965   8.359 -0.0113 -0.1302 -0.1654
   92SAPS  H18X 9074   5.022   4.941   8.402 -1.4011  2.8616  5.1307
   92SAPS  H18Y 9075   4.860   4.964   8.451  0.5803  1.1405  0.2722
   92SAPS  H18Z 9076   4.930   5.066   8.313 -0.3051 -0.6020 -1.2732
   93SAPS     N 9077   4.500   5.667   6.166  0.1899  0.1914 -0.2372
   93SAPS   HN1 9078   4.600   5.668   6.198  0.0608  0.0480  0.1764
   93SAPS   HN2 9079   4.482   5.678   6.064  0.3345 -0.2673 -0.3137
   93SAPS   HN3 9080   4.449   5.745   6.212 -0.7294 -0.1604 -0.6640
   93SAPS   C12 9081   4.437   5.541   6.223 -0.0744  0.2713  0.0827
   93SAPS  H12A 9082   4.355   5.564   6.290 -0.1689  0.5845 -0.1432
   93SAPS   C13 9083   4.389   5.435   6.117  0.6481  0.0505  0.7008
   93SAPS  O13A 9084   4.359   5.481   6.002 -0.1808  0.0805 -0.0582
   93SAPS  O13B 9085   4.338   5.330   6.165 -0.0732  0.0191 -0.6422
   93SAPS   C11 9086   4.543   5.480   6.327 -0.4851  0.2659 -0.4656
   93SAPS  H11A 9087   4.627   5.447   6.262 -1.5133 -0.1451 -1.6139
   93SAPS  H11B 9088   4.498   5.388   6.371  2.4921 -1.1834 -0.3491
   93SAPS     P 9089   4.730   5.649   6.420 -0.2902 -0.0403 -0.3918
   93SAPS   O13 9090   4.735   5.690   6.278 -0.4676 -0.8129 -0.2362
   93SAPS   O14 9091   4.732   5.754   6.523 -0.6763  0.2203  1.0627
   93SAPS   O12 9092   4.588   5.572   6.432 -0.3492 -0.3261 -0.1770
   93SAPS   O11 9093   4.845   5.542   6.437  0.0260  0.1421 -0.0052
   93SAPS    C1 9094   4.826   5.437   6.539 -0.1125  0.1653  0.3902
   93SAPS    HA 9095   4.720   5.418   6.566  0.2754 -0.8403  1.2290
   93SAPS    HB 9096   4.863   5.341   6.496  1.8990  0.4953  1.3038
   93SAPS    C2 9097   4.905   5.448   6.665 -0.1666 -0.7786  0.1467
   93SAPS    HS 9098   4.885   5.359   6.729 -0.8309  0.0284  1.0728
   93SAPS   O21 9099   4.869   5.566   6.731  0.1762  0.3920  0.4616
   93SAPS   C21 9100   4.756   5.568   6.800 -0.1686  0.4288  0.5239
   93SAPS   O22 9101   4.667   5.485   6.790 -0.5332 -0.3380  0.3322
   93SAPS   C22 9102   4.760   5.692   6.888 -0.7466  0.0126  0.8848
   93SAPS   H2R 9103   4.771   5.784   6.826  0.6748 -0.2226  0.7695
   93SAPS   H2S 9104   4.668   5.692   6.950 -2.1693 -3.8674 -1.0571
   93SAPS    C3 9105   5.057   5.443   6.634 -0.0625 -0.6283  0.3551
   93SAPS    HX 9106   5.085   5.537   6.582 -0.2946 -0.7501  0.0069
   93SAPS    HY 9107   5.080   5.360   6.564  1.0080  0.0939 -0.1625
   93SAPS   O31 9108   5.139   5.437   6.754  0.4402 -0.0856 -0.4960
   93SAPS   C31 9109   5.146   5.316   6.805 -0.3207  0.0392 -0.2233
   93SAPS   O32 9110   5.106   5.213   6.752  0.7229 -0.2187  0.1424
   93SAPS   C32 9111   5.193   5.319   6.945 -0.7653 -0.2951 -0.1137
   93SAPS   H2X 9112   5.144   5.407   6.992  2.3782  0.4965  1.7968
   93SAPS   H2Y 9113   5.302   5.341   6.939 -0.7504 -0.5347 -0.8092
   93SAPS   C23 9114   4.883   5.700   6.982 -0.1372 -0.1066 -0.3653
   93SAPS   H3R 9115   4.903   5.804   7.016  0.1457 -0.3652  0.2551
   93SAPS   H3S 9116   4.978   5.691   6.926  0.9841  0.8657  1.3507
   93SAPS   C24 9117   4.881   5.610   7.100  0.4065 -0.0653  0.7648
   93SAPS   H4R 9118   4.986   5.610   7.136  0.0561 -2.0423  1.8126
   93SAPS   H4S 9119   4.857   5.505   7.071  1.7775 -0.6629  1.7364
   93SAPS   C25 9120   4.794   5.655   7.216  0.8472  0.5328  0.6228
   93SAPS   H5R 9121   4.696   5.697   7.187  1.1869 -0.4454 -2.1194
   93SAPS   C26 9122   4.826   5.650   7.341 -0.7788  0.3582 -0.5559
   93SAPS   H6R 9123   4.740   5.660   7.409  1.1660  0.5578  1.9561
   93SAPS   C27 9124   4.962   5.603   7.387 -0.0735  0.7608 -0.1869
   93SAPS   H7R 9125   5.038   5.682   7.368 -0.0762  1.1623  1.3271
   93SAPS   H7S 9126   4.991   5.507   7.340 -0.2390  0.8032 -0.3759
   93SAPS   C28 9127   4.971   5.570   7.534  0.1289 -0.1297  0.2979
   93SAPS   H8R 9128   4.991   5.467   7.565  0.5601 -0.4066 -0.8750
   93SAPS   C29 9129   4.974   5.657   7.639  0.6012  0.5289  0.8767
   93SAPS   H9R 9130   4.977   5.612   7.739 -3.3476 -0.8733  0.4638
   93SAPS  C210 9131   4.947   5.804   7.630 -1.1567 -0.6098 -0.0479
   93SAPS  H10R 9132   4.903   5.832   7.729  1.8354 -0.2637  1.2464
   93SAPS  H10S 9133   4.867   5.826   7.557 -1.1509  1.7769  0.5963
   93SAPS  C211 9134   5.061   5.902   7.607  0.1260 -0.3002  0.3317
   93SAPS  H11R 9135   5.065   5.940   7.504 -0.9957 -0.0428  0.3698
   93SAPS  C212 9136   5.150   5.925   7.701  0.1026 -0.0751 -0.5837
   93SAPS  H12R 9137   5.218   6.008   7.678 -2.5414  2.6784  1.0533
   93SAPS  C213 9138   5.146   5.874   7.840 -0.2842 -0.3289 -0.3657
   93SAPS  H13R 9139   5.167   5.765   7.840  1.2778 -0.0512  0.1722
   93SAPS  H13S 9140   5.045   5.895   7.881 -0.4960  0.8757 -1.4622
   93SAPS  C214 9141   5.262   5.944   7.915  0.2262 -0.8295 -0.2699
   93SAPS  H14R 9142   5.358   5.948   7.863 -0.1196  1.3110 -0.8273
   93SAPS  C215 9143   5.250   5.989   8.046  0.0960 -0.0614  0.7738
   93SAPS  H15R 9144   5.333   6.039   8.097 -0.0777  1.7054 -0.6344
   93SAPS  C216 9145   5.129   5.992   8.134 -0.1215  0.5382 -0.2320
   93SAPS  H16R 9146   5.036   5.949   8.090  0.2799 -1.2883  0.7110
   93SAPS  H16S 9147   5.099   6.095   8.165 -0.9358  0.3056 -0.2412
   93SAPS  C217 9148   5.157   5.904   8.262 -1.0184  0.0056 -0.0836
   93SAPS  H17R 9149   5.184   5.801   8.230 -0.2832  0.0002  0.5377
   93SAPS  H17S 9150   5.061   5.892   8.317 -2.2108 -1.7205 -2.4393
   93SAPS  C218 9151   5.268   5.966   8.349  0.6183 -0.0947  0.3712
   93SAPS  H18R 9152   5.236   6.070   8.374 -0.9561 -1.3441  3.9163
   93SAPS  H18S 9153   5.357   5.983   8.284  0.9661 -2.5727  0.1381
   93SAPS  C219 9154   5.291   5.897   8.489 -0.9572 -0.2836 -0.3519
   93SAPS  H19R 9155   5.339   5.798   8.471  0.0875  0.3605 -1.1882
   93SAPS  H19S 9156   5.201   5.887   8.553  0.1565 -1.8081  1.0275
   93SAPS  C220 9157   5.394   5.977   8.569  0.3970  0.1107 -0.3946
   93SAPS  H20R 9158   5.412   5.931   8.668  0.4921  0.9884 -0.0004
   93SAPS  H20S 9159   5.360   6.083   8.569  0.4687  0.1639 -2.3630
   93SAPS  H20T 9160   5.498   5.976   8.531 -0.2610  2.3359 -2.4311
   93SAPS   C33 9161   5.158   5.206   7.041  0.5912 -0.7991 -0.2810
   93SAPS   H3X 9162   5.223   5.118   7.019  0.4414 -1.1799  0.7777
   93SAPS   H3Y 9163   5.049   5.183   7.041  0.0526  1.6430 -0.8590
   93SAPS   C34 9164   5.189   5.253   7.182 -0.5887  0.0134  0.3689
   93SAPS   H4X 9165   5.117   5.335   7.205  1.2788  1.2176  2.1631
   93SAPS   H4Y 9166   5.292   5.294   7.189 -0.1566 -0.7828 -1.1857
   93SAPS   C35 9167   5.173   5.136   7.286  0.3531  0.0586  1.2071
   93SAPS   H5X 9168   5.229   5.042   7.266  0.6334  0.9764 -2.6794
   93SAPS   H5Y 9169   5.072   5.090   7.287  0.9716 -1.3572  0.7072
   93SAPS   C36 9170   5.220   5.188   7.422 -0.0978  0.2388 -0.7168
   93SAPS   H6X 9171   5.143   5.260   7.455 -0.2618 -1.1189  2.0448
   93SAPS   H6Y 9172   5.327   5.219   7.413  0.6631 -2.4140 -1.3074
   93SAPS   C37 9173   5.208   5.070   7.527  0.1570 -0.8820  0.3140
   93SAPS   H7X 9174   5.260   4.983   7.482  1.7301 -0.1814  0.7658
   93SAPS   H7Y 9175   5.100   5.044   7.515 -0.5677  2.6198 -1.2771
   93SAPS   C38 9176   5.225   5.105   7.680  0.5219  0.6709  0.2805
   93SAPS   H8X 9177   5.332   5.127   7.698  0.6622 -0.1223  0.4301
   93SAPS   H8Y 9178   5.183   5.023   7.742 -1.4034 -0.8640 -2.8845
   93SAPS   C39 9179   5.173   5.246   7.718  0.3505 -0.3398  0.8445
   93SAPS   H9X 9180   5.067   5.257   7.689  0.6206  1.8434  0.5529
   93SAPS   H9Y 9181   5.232   5.318   7.657  1.2752 -1.4977  0.3539
   93SAPS  C310 9182   5.191   5.267   7.869  0.0815 -0.3971  0.1369
   93SAPS  H10X 9183   5.299   5.258   7.893  0.3339 -2.3835 -1.6318
   93SAPS  H10Y 9184   5.145   5.180   7.922  1.2346 -1.9690 -1.4142
   93SAPS  C311 9185   5.119   5.399   7.925 -0.3471 -0.0719  1.2801
   93SAPS  H11X 9186   5.016   5.406   7.883 -0.2848  1.2975  1.3611
   93SAPS  H11Y 9187   5.173   5.490   7.893 -0.5648 -1.6194 -4.0938
   93SAPS  C312 9188   5.113   5.405   8.077 -0.6242  0.3093  0.0980
   93SAPS  H12X 9189   5.208   5.356   8.107  0.9118  2.4101 -1.1770
   93SAPS  H12Y 9190   5.027   5.342   8.104 -0.7932 -1.2553 -3.7242
   93SAPS  C313 9191   5.107   5.544   8.141 -0.0453  0.2235  0.1150
   93SAPS  H13X 9192   5.200   5.600   8.115  1.4553 -2.7825 -1.3120
   93SAPS  H13Y 9193   5.102   5.520   8.249  0.1303  0.4739  0.1786
   93SAPS  C314 9194   4.996   5.633   8.080 -0.6394  0.0633 -0.2111
   93SAPS  H14X 9195   4.989   5.637   7.969 -1.0477 -0.0863 -0.1889
   93SAPS  H14Y 9196   5.008   5.740   8.107  0.8678 -0.7452  2.4451
   93SAPS  C315 9197   4.854   5.589   8.130  0.2942 -0.2865 -0.1303
   93SAPS  H15X 9198   4.853   5.596   8.241 -1.3661  1.2757 -0.2245
   93SAPS  H15Y 9199   4.841   5.481   8.108 -2.2440  0.3548 -2.0025
   93SAPS  C316 9200   4.744   5.671   8.066 -0.0693 -0.6692  0.2324
   93SAPS  H16X 9201   4.750   5.655   7.956  0.9288 -2.3738  0.5127
   93SAPS  H16Y 9202   4.755   5.780   8.084 -0.2096 -0.3026 -1.7718
   93SAPS  C317 9203   4.609   5.623   8.115 -0.3551  0.0585  0.5678
   93SAPS  H17X 9204   4.528   5.692   8.082  1.2050  1.5079 -0.2558
   93SAPS  H17Y 9205   4.605   5.609   8.225  1.2995  2.0427  0.8993
   93SAPS  C318 9206   4.564   5.486   8.058 -0.1019  0.3140 -0.4424
   93SAPS  H18X 9207   4.598   5.476   7.953  1.0399  0.4262 -0.0890
   93SAPS  H18Y 9208   4.453   5.483   8.065 -0.0843  1.8216  0.7753
   93SAPS  H18Z 9209   4.617   5.407   8.116 -1.3460  1.5057  2.4249
   94SAPS     N 9210   5.360   0.579   5.756  0.2235  0.6915 -0.0019
   94SAPS   HN1 9211   5.442   0.570   5.693  1.0683  2.6968  0.7665
   94SAPS   HN2 9212   5.366   0.668   5.811 -0.1433  0.3671  0.5692
   94SAPS   HN3 9213   5.350   0.492   5.812 -1.6817  0.3375 -0.8649
   94SAPS   C12 9214   5.239   0.576   5.666  0.5367  0.0493  0.1192
   94SAPS  H12A 9215   5.243   0.665   5.605 -1.1263  0.2221  0.2371
   94SAPS   C13 9216   5.219   0.442   5.578 -0.3634 -0.7089 -0.0753
   94SAPS  O13A 9217   5.309   0.356   5.578 -0.2360 -0.1409 -0.3950
   94SAPS  O13B 9218   5.114   0.422   5.514  0.1258  0.7076  0.1636
   94SAPS   C11 9219   5.114   0.577   5.763  0.3023  0.5068 -0.1582
   94SAPS  H11A 9220   5.024   0.591   5.700 -0.3357 -1.4684  0.2800
   94SAPS  H11B 9221   5.128   0.671   5.820 -3.0142  2.2524 -2.0684
   94SAPS     P 9222   4.990   0.434   5.931  0.0617  0.4674  0.2561
   94SAPS   O13 9223   4.910   0.556   5.957  0.2735  0.4695  0.1685
   94SAPS   O14 9224   4.908   0.327   5.868  0.0554 -0.3666 -0.6853
   94SAPS   O12 9225   5.114   0.462   5.853  0.9965 -0.2124 -0.1656
   94SAPS   O11 9226   5.043   0.372   6.073 -0.2366  0.1486  0.3409
   94SAPS    C1 9227   5.142   0.460   6.142 -0.3973 -0.5511  0.0899
   94SAPS    HA 9228   5.235   0.479   6.084 -0.4866 -0.9056 -0.1705
   94SAPS    HB 9229   5.105   0.560   6.174  1.2091  0.1282 -0.0909
   94SAPS    C2 9230   5.202   0.403   6.277 -0.4030  0.2855  0.2610
   94SAPS    HS 9231   5.257   0.491   6.314  1.4572 -0.5911 -0.3676
   94SAPS   O21 9232   5.284   0.289   6.239  0.0094 -0.2926 -0.2092
   94SAPS   C21 9233   5.413   0.308   6.223 -0.1819  0.5697  0.2636
   94SAPS   O22 9234   5.469   0.414   6.223 -0.3678  0.6767  0.2355
   94SAPS   C22 9235   5.472   0.181   6.188  0.0858 -0.2678  0.1529
   94SAPS   H2R 9236   5.432   0.093   6.243  0.1289 -0.7771 -0.6301
   94SAPS   H2S 9237   5.445   0.160   6.083 -1.0241  0.8516  0.2091
   94SAPS    C3 9238   5.081   0.362   6.358 -1.0236 -0.3163  0.1052
   94SAPS    HX 9239   5.038   0.287   6.289 -1.3689  1.0207 -1.1612
   94SAPS    HY 9240   5.018   0.453   6.360 -0.8764 -0.2300  0.9823
   94SAPS   O31 9241   5.110   0.313   6.492 -0.5666 -0.5620  0.5933
   94SAPS   C31 9242   5.007   0.263   6.555  0.5777  0.5921  0.2667
   94SAPS   O32 9243   4.893   0.246   6.507 -0.1642 -0.1019  0.4182
   94SAPS   C32 9244   5.041   0.243   6.698 -0.6396  0.3370 -0.1748
   94SAPS   H2X 9245   5.125   0.314   6.719  0.3897 -0.9190 -0.0024
   94SAPS   H2Y 9246   5.079   0.139   6.711  1.3950  0.7303 -2.6051
   94SAPS   C23 9247   5.627   0.167   6.200 -0.2495 -0.7578 -0.2413
   94SAPS   H3R 9248   5.684   0.239   6.138 -0.6706 -0.0080  0.2385
   94SAPS   H3S 9249   5.648   0.072   6.146  1.0241  0.1410 -1.3408
   94SAPS   C24 9250   5.687   0.165   6.340  0.6547 -0.7197  0.1477
   94SAPS   H4R 9251   5.664   0.261   6.391  1.0203 -1.1329  1.1022
   94SAPS   H4S 9252   5.796   0.143   6.331  0.8515 -0.2838  1.3383
   94SAPS   C25 9253   5.624   0.044   6.404  0.7370  0.0310  0.1708
   94SAPS   H5R 9254   5.633  -0.050   6.348  1.6035  0.6087 -0.6621
   94SAPS   C26 9255   5.569   0.038   6.529  0.3177 -0.1714  0.1524
   94SAPS   H6R 9256   5.551  -0.068   6.553 -0.1821  0.2757  1.8194
   94SAPS   C27 9257   5.571   0.149   6.630 -0.4605  0.4198  0.2419
   94SAPS   H7R 9258   5.657   0.218   6.621  0.3524 -0.1796  2.9175
   94SAPS   H7S 9259   5.568   0.116   6.736 -3.4038 -1.1923 -0.2783
   94SAPS   C28 9260   5.447   0.230   6.614  0.1363 -0.7080  0.2379
   94SAPS   H8R 9261   5.375   0.208   6.534  0.6189  1.2060 -0.7397
   94SAPS   C29 9262   5.400   0.317   6.702  0.0032 -0.1283 -0.2629
   94SAPS   H9R 9263   5.299   0.355   6.687 -0.1229  0.7188  2.4040
   94SAPS  C210 9264   5.458   0.354   6.835 -0.4602 -0.0491  0.1481
   94SAPS  H10R 9265   5.447   0.464   6.836 -1.3184 -0.1352  0.6528
   94SAPS  H10S 9266   5.566   0.333   6.846 -0.2993  0.9322  0.4958
   94SAPS  C211 9267   5.388   0.287   6.946  0.4026  1.0167 -0.1899
   94SAPS  H11R 9268   5.350   0.185   6.930  1.0293  0.2006  3.0838
   94SAPS  C212 9269   5.352   0.339   7.062 -0.1721 -0.2972  0.0022
   94SAPS  H12R 9270   5.290   0.279   7.130 -0.2439  0.2698  0.4396
   94SAPS  C213 9271   5.394   0.477   7.118  0.4103  0.3226  0.3559
   94SAPS  H13R 9272   5.304   0.532   7.152 -0.1083  0.6383 -1.4906
   94SAPS  H13S 9273   5.436   0.547   7.042  0.6978 -0.0264  0.1873
   94SAPS  C214 9274   5.484   0.439   7.241  0.6586  0.0552  0.5375
   94SAPS  H14R 9275   5.559   0.365   7.211 -0.1784 -0.4814 -0.2637
   94SAPS  C215 9276   5.492   0.491   7.367  0.1001  0.1509 -0.4630
   94SAPS  H15R 9277   5.576   0.454   7.427 -1.2425 -1.0994  0.7030
   94SAPS  C216 9278   5.403   0.593   7.426 -0.5660 -0.1019 -0.1680
   94SAPS  H16R 9279   5.309   0.609   7.368 -1.4046  0.1026  1.2131
   94SAPS  H16S 9280   5.456   0.689   7.411 -0.9895  0.3793  1.3010
   94SAPS  C217 9281   5.354   0.581   7.573 -0.0446 -0.3527 -0.2838
   94SAPS  H17R 9282   5.435   0.556   7.645 -0.8862  0.8318  1.1204
   94SAPS  H17S 9283   5.279   0.499   7.582 -1.4918  0.9360 -0.2343
   94SAPS  C218 9284   5.304   0.712   7.633  0.1435 -0.0399 -0.9271
   94SAPS  H18R 9285   5.231   0.745   7.556 -0.7604 -0.9363 -0.4677
   94SAPS  H18S 9286   5.379   0.791   7.653  2.1016 -1.9131 -0.6736
   94SAPS  C219 9287   5.228   0.689   7.767  0.5176  0.7207  0.9391
   94SAPS  H19R 9288   5.160   0.602   7.756 -0.6521  1.5281  1.6987
   94SAPS  H19S 9289   5.165   0.780   7.775  0.8704  1.2220 -1.5444
   94SAPS  C220 9290   5.308   0.678   7.894  0.0899  0.0833 -0.4994
   94SAPS  H20R 9291   5.369   0.766   7.922  3.0223 -1.7945 -0.8509
   94SAPS  H20S 9292   5.376   0.590   7.893  1.0858  0.6378  4.6606
   94SAPS  H20T 9293   5.242   0.680   7.984 -2.0450 -1.1488 -1.9913
   94SAPS   C33 9294   4.922   0.277   6.794 -0.2115 -0.0133  0.2420
   94SAPS   H3X 9295   4.875   0.181   6.823  0.9785 -0.5847  0.3007
   94SAPS   H3Y 9296   4.848   0.348   6.751  0.0883  0.1590  0.0140
   94SAPS   C34 9297   4.976   0.341   6.922  0.0843 -0.3325 -0.8397
   94SAPS   H4X 9298   5.023   0.438   6.894 -1.4657  0.5463 -0.4702
   94SAPS   H4Y 9299   5.058   0.283   6.968  1.4652  0.8207 -1.7867
   94SAPS   C35 9300   4.867   0.353   7.025  0.3198  0.0077  0.1884
   94SAPS   H5X 9301   4.826   0.254   7.052 -0.8604 -0.1971 -2.2344
   94SAPS   H5Y 9302   4.782   0.415   6.989 -0.4049 -1.5895 -0.8754
   94SAPS   C36 9303   4.923   0.430   7.154  0.2979  0.0107  0.6701
   94SAPS   H6X 9304   4.951   0.531   7.119  0.4330  0.6188  2.4615
   94SAPS   H6Y 9305   5.023   0.394   7.187  0.7679  0.2577 -0.4780
   94SAPS   C37 9306   4.830   0.425   7.272  0.1600  0.4506  0.0112
   94SAPS   H7X 9307   4.799   0.320   7.288 -1.4472  1.2280  2.2844
   94SAPS   H7Y 9308   4.740   0.480   7.236  1.2320  2.5971  0.5048
   94SAPS   C38 9309   4.879   0.508   7.394  0.4026 -0.1818 -0.5927
   94SAPS   H8X 9310   4.791   0.516   7.463  0.8967  1.2739 -0.1041
   94SAPS   H8Y 9311   4.891   0.612   7.355  1.1057  0.9970  2.5740
   94SAPS   C39 9312   5.014   0.463   7.459  0.3380 -0.2099 -0.0740
   94SAPS   H9X 9313   5.062   0.540   7.524  0.3197 -0.1641 -0.1143
   94SAPS   H9Y 9314   5.089   0.455   7.377  0.5751 -1.1233  0.2270
   94SAPS  C310 9315   5.004   0.324   7.535  0.4494  0.0215  0.7368
   94SAPS  H10X 9316   4.961   0.255   7.459 -1.5325  0.5402  1.3575
   94SAPS  H10Y 9317   4.931   0.330   7.618 -1.9896  0.1611 -1.3573
   94SAPS  C311 9318   5.135   0.284   7.594 -0.1639  0.3250 -0.1241
   94SAPS  H11X 9319   5.167   0.378   7.645  0.8854 -0.0401 -0.1044
   94SAPS  H11Y 9320   5.211   0.250   7.521  2.0295  0.6007  1.9650
   94SAPS  C312 9321   5.140   0.179   7.711 -0.1157  0.1464  0.0526
   94SAPS  H12X 9322   5.108   0.083   7.667  2.0506  1.0398 -3.7078
   94SAPS  H12Y 9323   5.065   0.203   7.790  0.3678  1.8557  0.0156
   94SAPS  C313 9324   5.285   0.144   7.751  0.5676 -1.4292 -0.8443
   94SAPS  H13X 9325   5.338   0.235   7.787  0.8039 -1.3584 -1.3728
   94SAPS  H13Y 9326   5.350   0.086   7.682  2.1246 -2.3144  1.2789
   94SAPS  C314 9327   5.283   0.044   7.870  0.6276  0.5134 -0.1052
   94SAPS  H14X 9328   5.234  -0.051   7.839  1.1715  0.5784 -1.1845
   94SAPS  H14Y 9329   5.240   0.090   7.962 -2.3415 -2.6890  0.2285
   94SAPS  C315 9330   5.424  -0.017   7.899  0.6706  0.8776  0.4854
   94SAPS  H15X 9331   5.497   0.065   7.916  1.5365 -0.1943  2.1756
   94SAPS  H15Y 9332   5.464  -0.076   7.814 -0.9329  1.2779 -0.5592
   94SAPS  C316 9333   5.446  -0.091   8.024  0.6787  0.3086  0.1646
   94SAPS  H16X 9334   5.397  -0.191   8.026  1.0142  0.1074 -1.4454
   94SAPS  H16Y 9335   5.413  -0.038   8.116 -2.3449 -0.5979 -0.3500
   94SAPS  C317 9336   5.594  -0.121   8.068 -0.1705 -0.1393 -0.9018
   94SAPS  H17X 9337   5.652  -0.158   7.981 -0.7918 -0.9536 -0.9748
   94SAPS  H17Y 9338   5.583  -0.208   8.136 -1.1512  0.8297  0.1944
   94SAPS  C318 9339   5.678  -0.017   8.140 -0.1281 -0.1648 -0.2700
   94SAPS  H18X 9340   5.621   0.048   8.209  0.9087 -1.7635  2.1845
   94SAPS  H18Y 9341   5.711   0.057   8.064  2.8657  1.0506  2.0840
   94SAPS  H18Z 9342   5.758  -0.075   8.192 -0.7006 -1.2260 -0.5567
   95SAPS     N 9343   1.224   3.966   5.955 -0.7345  0.1965  0.2295
   95SAPS   HN1 9344   1.174   4.009   5.876 -0.6076 -0.3071 -0.1262
   95SAPS   HN2 9345   1.238   3.866   5.929 -3.9479 -0.7340  1.8488
   95SAPS   HN3 9346   1.156   3.967   6.034 -1.6601 -2.5440 -0.4958
   95SAPS   C12 9347   1.349   4.026   5.991 -0.3120 -0.1135  0.5010
   95SAPS  H12A 9348   1.378   3.967   6.077  0.0494 -0.1535  0.3485
   95SAPS   C13 9349   1.461   4.004   5.883  0.4620  1.0172 -0.1786
   95SAPS  O13A 9350   1.440   3.932   5.780  0.5661  0.3412 -0.4660
   95SAPS  O13B 9351   1.570   4.064   5.901  0.3885  0.2208  0.0478
   95SAPS   C11 9352   1.329   4.175   6.032  0.2594 -0.2378  0.3995
   95SAPS  H11A 9353   1.282   4.223   5.943 -0.6535  0.1436  1.0773
   95SAPS  H11B 9354   1.428   4.223   6.047  0.0027  0.1487  0.9170
   95SAPS     P 9355   1.289   4.242   6.291 -0.1187  0.0953 -0.4150
   95SAPS   O13 9356   1.381   4.141   6.355  0.2445  0.6214  0.7617
   95SAPS   O14 9357   1.342   4.380   6.270 -0.3354 -0.4573 -0.1660
   95SAPS   O12 9358   1.246   4.187   6.150 -0.6138 -0.2347  0.1454
   95SAPS   O11 9359   1.157   4.253   6.369  0.6686 -0.2948  1.0656
   95SAPS    C1 9360   1.047   4.337   6.331  0.0340 -0.6336  0.1951
   95SAPS    HA 9361   1.046   4.367   6.224 -4.0461 -0.7437  0.1125
   95SAPS    HB 9362   0.950   4.286   6.349 -1.3434  1.8469 -0.0178
   95SAPS    C2 9363   1.038   4.460   6.416 -0.4332 -0.4003  0.3390
   95SAPS    HS 9364   1.132   4.513   6.387  0.3918 -1.9957  0.0255
   95SAPS   O21 9365   1.032   4.421   6.553  0.5598  0.4374  0.0992
   95SAPS   C21 9366   1.144   4.426   6.630 -0.1654  0.4984 -0.1831
   95SAPS   O22 9367   1.251   4.465   6.597 -0.0519 -0.6568  0.5374
   95SAPS   C22 9368   1.096   4.383   6.774 -0.1190  0.4106 -0.1945
   95SAPS   H2R 9369   1.012   4.452   6.796  1.0107  1.5460  0.5956
   95SAPS   H2S 9370   1.054   4.280   6.765 -1.3134  0.7334  1.3907
   95SAPS    C3 9371   0.921   4.558   6.378  0.1475  0.6957  0.7823
   95SAPS    HX 9372   0.820   4.512   6.374 -0.8020  2.7961 -0.3458
   95SAPS    HY 9373   0.930   4.575   6.268  0.7501 -1.1145  0.5367
   95SAPS   O31 9374   0.935   4.683   6.458 -0.4018  0.0917 -0.3621
   95SAPS   C31 9375   0.857   4.685   6.566  0.1458  0.7942  0.4784
   95SAPS   O32 9376   0.784   4.587   6.598 -0.2656 -0.5272 -0.2391
   95SAPS   C32 9377   0.873   4.819   6.639  1.3164  0.4991 -0.6650
   95SAPS   H2X 9378   0.843   4.891   6.560  1.8792 -0.0632 -1.3938
   95SAPS   H2Y 9379   0.982   4.822   6.660  0.8370  1.7399  1.9537
   95SAPS   C23 9380   1.198   4.407   6.885 -0.1204 -0.5625 -0.3324
   95SAPS   H3R 9381   1.300   4.378   6.850 -0.0981 -0.3772 -0.4221
   95SAPS   H3S 9382   1.166   4.336   6.964 -0.6371 -0.1079 -0.1324
   95SAPS   C24 9383   1.190   4.541   6.935  0.6016  0.2735 -0.2402
   95SAPS   H4R 9384   1.099   4.577   6.987  0.4767 -0.8330  0.3014
   95SAPS   H4S 9385   1.220   4.611   6.854 -0.4730 -0.2457 -1.0928
   95SAPS   C25 9386   1.305   4.572   7.022  1.4133  0.0050  0.6476
   95SAPS   H5R 9387   1.401   4.602   6.978 -0.1523  1.1459 -2.0947
   95SAPS   C26 9388   1.306   4.565   7.159 -0.1236 -0.2521  0.1511
   95SAPS   H6R 9389   1.401   4.591   7.207  1.1220  2.0687 -3.3742
   95SAPS   C27 9390   1.194   4.528   7.240 -0.0702 -0.6060  0.4623
   95SAPS   H7R 9391   1.100   4.512   7.183  0.4217 -2.3875  0.1401
   95SAPS   H7S 9392   1.171   4.625   7.289 -1.2601 -1.3160  1.3371
   95SAPS   C28 9393   1.223   4.423   7.347  0.2133  0.2490 -0.3121
   95SAPS   H8R 9394   1.202   4.322   7.310  1.3492 -0.4981  1.0057
   95SAPS   C29 9395   1.294   4.436   7.460 -0.4251 -0.0022 -0.0248
   95SAPS   H9R 9396   1.292   4.356   7.536 -1.7447 -0.8472 -0.9405
   95SAPS  C210 9397   1.359   4.563   7.513 -0.2179 -0.4963 -0.0410
   95SAPS  H10R 9398   1.276   4.633   7.537 -1.1409 -1.4333 -0.4694
   95SAPS  H10S 9399   1.419   4.612   7.434  0.0343 -0.9183 -0.1112
   95SAPS  C211 9400   1.432   4.536   7.640  0.5220 -0.0626 -0.4263
   95SAPS  H11R 9401   1.541   4.526   7.631  0.3244 -1.1164 -1.8180
   95SAPS  C212 9402   1.384   4.516   7.772  0.6762  0.8133 -0.4485
   95SAPS  H12R 9403   1.451   4.504   7.859  1.3869 -1.1091 -1.2484
   95SAPS  C213 9404   1.241   4.519   7.819 -0.0403 -0.5178 -0.0675
   95SAPS  H13R 9405   1.171   4.510   7.733  0.0776  2.9208 -0.5794
   95SAPS  H13S 9406   1.223   4.619   7.862  1.0549 -0.7925  1.0684
   95SAPS  C214 9407   1.194   4.411   7.910 -0.2258  0.7710 -0.4185
   95SAPS  H14R 9408   1.165   4.314   7.867 -2.1161  0.2831  1.8184
   95SAPS  C215 9409   1.197   4.413   8.046  0.1007  0.2707  0.3268
   95SAPS  H15R 9410   1.163   4.327   8.104  1.4984  1.7430  3.4280
   95SAPS  C216 9411   1.246   4.533   8.132  0.0884  0.0554  0.2678
   95SAPS  H16R 9412   1.179   4.618   8.104 -2.2128 -1.3257  1.3990
   95SAPS  H16S 9413   1.347   4.572   8.106  0.1936 -1.1522 -1.2329
   95SAPS  C217 9414   1.234   4.509   8.280  0.3256 -0.0308 -0.3588
   95SAPS  H17R 9415   1.143   4.447   8.293  1.2389 -1.7994 -1.9072
   95SAPS  H17S 9416   1.219   4.601   8.340  0.7126 -1.6337  2.2571
   95SAPS  C218 9417   1.357   4.439   8.346 -0.0988 -0.1576 -0.9265
   95SAPS  H18R 9418   1.420   4.525   8.379 -2.9361  1.5339  0.2741
   95SAPS  H18S 9419   1.416   4.380   8.272 -0.9967 -1.6241 -0.4875
   95SAPS  C219 9420   1.319   4.358   8.472 -1.0893  0.9458  0.5217
   95SAPS  H19R 9421   1.406   4.295   8.498 -0.3276  0.4607 -2.9637
   95SAPS  H19S 9422   1.228   4.293   8.467 -0.0934 -0.5609  1.5615
   95SAPS  C220 9423   1.290   4.455   8.593 -0.1811 -0.2387  0.1271
   95SAPS  H20R 9424   1.278   4.391   8.683  0.0459 -0.8847 -0.2994
   95SAPS  H20S 9425   1.198   4.513   8.571  0.5261  0.9044  0.1580
   95SAPS  H20T 9426   1.377   4.524   8.596 -0.1378 -0.2306 -0.9111
   95SAPS   C33 9427   0.789   4.832   6.773 -1.0341  0.5442 -0.3251
   95SAPS   H3X 9428   0.680   4.813   6.767 -1.0746  0.2568  1.1665
   95SAPS   H3Y 9429   0.795   4.941   6.793  0.9054 -0.0042  2.2358
   95SAPS   C34 9430   0.853   4.756   6.884 -0.1408 -0.0526  0.4941
   95SAPS   H4X 9431   0.944   4.810   6.918 -0.8097  0.3281  1.7359
   95SAPS   H4Y 9432   0.875   4.654   6.847 -1.7083 -0.2703  0.1220
   95SAPS   C35 9433   0.769   4.738   7.014 -0.7950 -0.6012 -0.3169
   95SAPS   H5X 9434   0.675   4.682   6.994 -0.8734 -0.4308 -0.4154
   95SAPS   H5Y 9435   0.745   4.837   7.057 -0.5120 -1.1132  1.0419
   95SAPS   C36 9436   0.840   4.663   7.118  0.2647 -0.5566 -0.4344
   95SAPS   H6X 9437   0.942   4.701   7.140  0.1170  0.2220 -1.0963
   95SAPS   H6Y 9438   0.858   4.560   7.079 -0.3956 -0.6994 -0.3656
   95SAPS   C37 9439   0.771   4.664   7.255  0.1335 -0.1059  0.3411
   95SAPS   H7X 9440   0.680   4.600   7.258  0.1197 -0.1185 -0.2911
   95SAPS   H7Y 9441   0.749   4.770   7.283  1.6647  0.1090  0.7736
   95SAPS   C38 9442   0.862   4.611   7.368  1.0180  0.0085 -0.7150
   95SAPS   H8X 9443   0.955   4.670   7.376  1.5855 -0.5673 -2.7567
   95SAPS   H8Y 9444   0.888   4.505   7.347  0.5038 -0.0055 -1.3243
   95SAPS   C39 9445   0.781   4.626   7.499 -0.0402  0.1426 -0.7463
   95SAPS   H9X 9446   0.690   4.563   7.491  0.2264 -0.6348  1.8096
   95SAPS   H9Y 9447   0.751   4.731   7.520  0.2211  0.3909 -1.6132
   95SAPS  C310 9448   0.855   4.585   7.627 -0.6271  0.9630 -0.7973
   95SAPS  H10X 9449   0.954   4.633   7.644 -0.3308 -0.4678  1.6982
   95SAPS  H10Y 9450   0.881   4.478   7.619 -0.2536  0.8631  1.4322
   95SAPS  C311 9451   0.777   4.581   7.756  0.2051 -0.1326  0.7143
   95SAPS  H11X 9452   0.709   4.494   7.750  0.5577 -0.2936 -1.5991
   95SAPS  H11Y 9453   0.711   4.670   7.747  0.0546 -0.3472 -0.4544
   95SAPS  C312 9454   0.867   4.575   7.878  0.2049  0.4926  0.5722
   95SAPS  H12X 9455   0.945   4.653   7.864 -0.8910  2.0413  2.6447
   95SAPS  H12Y 9456   0.919   4.477   7.876 -0.7177  0.0125 -0.1642
   95SAPS  C313 9457   0.804   4.599   8.015  0.2226 -0.7124 -0.4111
   95SAPS  H13X 9458   0.710   4.539   8.020 -1.7865  2.4688  2.6483
   95SAPS  H13Y 9459   0.774   4.703   8.037 -1.2841 -0.7753 -2.0078
   95SAPS  C314 9460   0.893   4.546   8.122 -0.2508 -1.1268 -0.9117
   95SAPS  H14X 9461   0.979   4.612   8.141 -1.2429 -0.8377  3.1835
   95SAPS  H14Y 9462   0.945   4.455   8.085 -0.4000 -1.0320 -1.3597
   95SAPS  C315 9463   0.812   4.507   8.242 -0.6882  0.0722 -0.1040
   95SAPS  H15X 9464   0.887   4.449   8.300  1.0566 -0.2078 -2.5744
   95SAPS  H15Y 9465   0.724   4.442   8.221 -1.2553  1.2500 -1.4717
   95SAPS  C316 9466   0.750   4.621   8.327  0.0992  0.1651 -0.0461
   95SAPS  H16X 9467   0.693   4.578   8.412 -1.7261 -2.1058 -2.3214
   95SAPS  H16Y 9468   0.669   4.668   8.267  0.1365 -1.6908 -1.5885
   95SAPS  C317 9469   0.847   4.738   8.356  0.3116 -0.3578 -0.1002
   95SAPS  H17X 9470   0.909   4.779   8.273 -0.5448  1.4321  0.1053
   95SAPS  H17Y 9471   0.935   4.707   8.416  1.4565  2.0982 -0.4189
   95SAPS  C318 9472   0.785   4.855   8.428 -0.5144 -0.3931 -0.0372
   95SAPS  H18X 9473   0.851   4.944   8.426  1.9276 -2.0801  2.5051
   95SAPS  H18Y 9474   0.761   4.834   8.535 -0.3359 -0.8574 -0.0888
   95SAPS  H18Z 9475   0.688   4.887   8.383 -0.4247  1.2516  0.8898
   96SAPS     N 9476   1.364   5.799   6.361  0.5647  0.9060 -0.2319
   96SAPS   HN1 9477   1.317   5.721   6.411  2.1929  0.8722  1.2891
   96SAPS   HN2 9478   1.461   5.810   6.399  1.6038 -1.6409 -2.0115
   96SAPS   HN3 9479   1.320   5.892   6.372  2.7784  2.1923 -1.6925
   96SAPS   C12 9480   1.379   5.769   6.213  0.7764  0.1499  0.3303
   96SAPS  H12A 9481   1.284   5.727   6.186  1.1173 -0.1474 -0.4127
   96SAPS   C13 9482   1.416   5.891   6.131 -0.1425  0.7730 -0.1112
   96SAPS  O13A 9483   1.444   5.999   6.186  0.0503  0.2915  0.1946
   96SAPS  O13B 9484   1.423   5.871   6.007  0.3994 -0.2011  0.3070
   96SAPS   C11 9485   1.497   5.663   6.196 -0.5902 -0.6294  0.0889
   96SAPS  H11A 9486   1.477   5.622   6.094 -0.5079 -0.8674  0.1694
   96SAPS  H11B 9487   1.489   5.572   6.259  0.9553 -0.0917  1.0726
   96SAPS     P 9488   1.719   5.737   6.320  0.1468  0.0957 -0.2962
   96SAPS   O13 9489   1.753   5.605   6.368 -0.2883  0.3277 -0.0994
   96SAPS   O14 9490   1.825   5.824   6.269  0.3365  0.2449  0.6260
   96SAPS   O12 9491   1.629   5.718   6.199  0.4396  0.2252  0.2171
   96SAPS   O11 9492   1.626   5.810   6.427 -0.6440  0.1826  0.4666
   96SAPS    C1 9493   1.653   5.940   6.481 -0.0938  0.4748 -0.2678
   96SAPS    HA 9494   1.700   6.009   6.408 -0.1689  0.0868 -0.6867
   96SAPS    HB 9495   1.553   5.983   6.503  0.1372  0.4780  0.8427
   96SAPS    C2 9496   1.742   5.930   6.593 -0.3617 -0.0834 -0.0426
   96SAPS    HS 9497   1.840   5.888   6.563  0.2576  0.4616  1.1546
   96SAPS   O21 9498   1.672   5.851   6.696 -0.3397  0.3632 -0.0995
   96SAPS   C21 9499   1.755   5.760   6.750  0.4825 -0.7172 -0.2717
   96SAPS   O22 9500   1.871   5.736   6.728 -0.4468 -0.1589 -0.3047
   96SAPS   C22 9501   1.685   5.698   6.872 -0.4173  0.1713 -0.5452
   96SAPS   H2R 9502   1.584   5.744   6.884 -1.7152 -2.2204 -1.9324
   96SAPS   H2S 9503   1.657   5.592   6.855  2.8081 -1.1050  1.6651
   96SAPS    C3 9504   1.768   6.072   6.647  0.0001 -0.1646 -0.4846
   96SAPS    HX 9505   1.670   6.114   6.680 -0.0764  0.8348 -1.9538
   96SAPS    HY 9506   1.802   6.136   6.563 -0.9968  0.8989 -0.0877
   96SAPS   O31 9507   1.862   6.073   6.760 -0.8923  0.6699 -0.2385
   96SAPS   C31 9508   1.989   6.078   6.725  0.2057  0.0232 -0.4503
   96SAPS   O32 9509   2.031   6.061   6.608 -0.4012 -0.1399 -0.8906
   96SAPS   C32 9510   2.069   6.106   6.856 -0.0454  0.6614 -0.1782
   96SAPS   H2X 9511   2.070   6.017   6.923  2.2078 -1.0548 -2.3892
   96SAPS   H2Y 9512   2.024   6.194   6.906  0.9194  0.3147  1.3647
   96SAPS   C23 9513   1.770   5.689   7.003  0.2154  0.4572 -0.1729
   96SAPS   H3R 9514   1.863   5.630   6.987 -1.7642 -2.3505 -1.8286
   96SAPS   H3S 9515   1.711   5.634   7.079 -0.5164  3.4517  1.4943
   96SAPS   C24 9516   1.793   5.830   7.058 -0.0071 -0.7466  0.3416
   96SAPS   H4R 9517   1.828   5.900   6.979 -0.5255  0.8448  1.4749
   96SAPS   H4S 9518   1.879   5.823   7.128  1.1190  3.3599 -0.4757
   96SAPS   C25 9519   1.672   5.890   7.122  0.0111  0.1539 -0.7345
   96SAPS   H5R 9520   1.625   5.972   7.066 -0.7480 -0.5341 -1.1233
   96SAPS   C26 9521   1.619   5.859   7.238 -0.4974  0.3943 -0.0595
   96SAPS   H6R 9522   1.538   5.923   7.275 -1.4115  0.8316 -2.6758
   96SAPS   C27 9523   1.662   5.749   7.329  0.3341 -0.2344 -0.2972
   96SAPS   H7R 9524   1.726   5.677   7.274  1.0379 -1.1762  1.7046
   96SAPS   H7S 9525   1.569   5.690   7.343 -0.4977  0.7888 -1.4194
   96SAPS   C28 9526   1.743   5.761   7.454 -0.5366  0.1808  0.0955
   96SAPS   H8R 9527   1.840   5.807   7.428 -0.8418  0.7636 -0.0263
   96SAPS   C29 9528   1.711   5.729   7.579  0.1001  0.2542  0.6338
   96SAPS   H9R 9529   1.786   5.747   7.658  0.1785 -0.3743  0.7086
   96SAPS  C210 9530   1.574   5.674   7.630  0.0472  0.0533 -0.2583
   96SAPS  H10R 9531   1.586   5.595   7.707  0.4524 -1.0770 -1.4499
   96SAPS  H10S 9532   1.516   5.627   7.548  0.5084  2.5240 -2.0613
   96SAPS  C211 9533   1.502   5.801   7.682 -0.4586 -0.0804 -0.4583
   96SAPS  H11R 9534   1.508   5.889   7.617  0.0811 -0.3486 -0.7725
   96SAPS  C212 9535   1.434   5.798   7.794 -0.0945  0.5296  0.1617
   96SAPS  H12R 9536   1.375   5.886   7.824  0.8913  1.2806 -0.0766
   96SAPS  C213 9537   1.406   5.678   7.882 -0.9416 -0.7031  0.9713
   96SAPS  H13R 9538   1.370   5.710   7.982 -2.0618  0.0135  0.3422
   96SAPS  H13S 9539   1.497   5.614   7.890 -0.0408  0.0508 -2.2862
   96SAPS  C214 9540   1.309   5.577   7.826 -0.1268  0.3606  0.0137
   96SAPS  H14R 9541   1.298   5.586   7.717 -0.4716  2.5785  0.1906
   96SAPS  C215 9542   1.246   5.475   7.892 -0.8526  0.7630 -0.1872
   96SAPS  H15R 9543   1.174   5.417   7.833 -1.6375  1.4126  0.1155
   96SAPS  C216 9544   1.262   5.427   8.031  0.0964  0.0746 -0.0059
   96SAPS  H16R 9545   1.368   5.443   8.059  0.3040 -0.8379 -0.2466
   96SAPS  H16S 9546   1.253   5.316   8.038  0.0172  0.0502 -0.4814
   96SAPS  C217 9547   1.175   5.497   8.138 -0.4525  0.3037  0.0327
   96SAPS  H17R 9548   1.071   5.460   8.147 -0.1984 -0.5411 -0.4796
   96SAPS  H17S 9549   1.184   5.608   8.130  0.0604  0.4235  1.9510
   96SAPS  C218 9550   1.240   5.452   8.276 -0.0955 -0.0740 -0.4166
   96SAPS  H18R 9551   1.347   5.481   8.286 -0.6422  3.0399 -2.7100
   96SAPS  H18S 9552   1.229   5.342   8.282 -0.3745 -0.0688 -0.8369
   96SAPS  C219 9553   1.169   5.507   8.397  0.4201  0.0387  0.6744
   96SAPS  H19R 9554   1.065   5.470   8.383  0.6884  0.1630 -1.8721
   96SAPS  H19S 9555   1.164   5.618   8.383  0.8217 -0.0353 -0.0761
   96SAPS  C220 9556   1.221   5.465   8.531 -1.4447 -0.5111  0.3456
   96SAPS  H20R 9557   1.332   5.464   8.526 -1.4611  1.8167 -1.7619
   96SAPS  H20S 9558   1.188   5.359   8.532  0.5936 -1.1669  0.3920
   96SAPS  H20T 9559   1.173   5.509   8.621 -0.5994  1.3297 -0.0986
   96SAPS   C33 9560   2.217   6.129   6.817 -0.8954 -0.5433 -0.1963
   96SAPS   H3X 9561   2.229   6.218   6.750 -0.1003 -1.4144 -1.2235
   96SAPS   H3Y 9562   2.256   6.040   6.764 -1.2428  0.0932 -1.5643
   96SAPS   C34 9563   2.315   6.165   6.932 -0.4999  0.2002  0.1918
   96SAPS   H4X 9564   2.279   6.253   6.989 -1.4993  1.4438 -2.2360
   96SAPS   H4Y 9565   2.413   6.184   6.884 -1.3524  2.1406 -0.8572
   96SAPS   C35 9566   2.317   6.052   7.036  0.2030  0.1316 -0.3437
   96SAPS   H5X 9567   2.358   5.959   6.991  0.1621 -0.6855  1.2800
   96SAPS   H5Y 9568   2.218   6.026   7.077  0.5576 -1.0134 -0.1974
   96SAPS   C36 9569   2.418   6.079   7.156  0.4332  0.3520 -1.1074
   96SAPS   H6X 9570   2.521   6.099   7.117  0.4575  0.5160 -0.9606
   96SAPS   H6Y 9571   2.422   5.978   7.200 -0.2484 -0.2579 -2.4191
   96SAPS   C37 9572   2.371   6.191   7.249  0.0290 -1.1235 -0.2410
   96SAPS   H7X 9573   2.266   6.178   7.284  0.8644 -1.6286  2.1706
   96SAPS   H7Y 9574   2.369   6.291   7.199  1.2539 -0.2465  1.4060
   96SAPS   C38 9575   2.444   6.202   7.383 -0.4086  0.4472 -0.1725
   96SAPS   H8X 9576   2.545   6.246   7.366 -0.8122  1.5314  0.1605
   96SAPS   H8Y 9577   2.446   6.101   7.428 -1.7847  0.0572 -0.9760
   96SAPS   C39 9578   2.367   6.288   7.483 -0.0693 -0.4588  0.0298
   96SAPS   H9X 9579   2.265   6.247   7.497 -0.1509  0.3922  2.0860
   96SAPS   H9Y 9580   2.354   6.394   7.451  0.1428 -0.4809 -0.1330
   96SAPS  C310 9581   2.441   6.305   7.618  0.0719 -0.4171  0.6688
   96SAPS  H10X 9582   2.412   6.407   7.653 -1.3409  0.5074 -2.9862
   96SAPS  H10Y 9583   2.550   6.312   7.599 -0.3256  1.4653 -1.0032
   96SAPS  C311 9584   2.415   6.189   7.718 -0.0009 -0.3558 -0.4516
   96SAPS  H11X 9585   2.461   6.101   7.670  1.1776 -0.7296  1.2931
   96SAPS  H11Y 9586   2.304   6.185   7.733  0.0739  1.5933  0.8940
   96SAPS  C312 9587   2.487   6.215   7.851  0.5255  0.0664  0.0239
   96SAPS  H12X 9588   2.448   6.306   7.901 -0.2116  0.1304 -0.6556
   96SAPS  H12Y 9589   2.593   6.240   7.828  0.9347 -1.5106  0.1134
   96SAPS  C313 9590   2.500   6.085   7.951  0.2381 -0.1754 -0.3739
   96SAPS  H13X 9591   2.561   6.099   8.043 -1.3687 -1.6327  0.9647
   96SAPS  H13Y 9592   2.535   6.009   7.878  4.1960  0.6733  0.5604
   96SAPS  C314 9593   2.364   6.049   8.006 -0.8315 -0.0305 -0.2794
   96SAPS  H14X 9594   2.337   5.943   7.991  0.3106 -0.5270  1.0129
   96SAPS  H14Y 9595   2.282   6.108   7.960 -0.4611  0.1474 -0.7134
   96SAPS  C315 9596   2.348   6.070   8.164 -0.4560 -0.8740  1.1290
   96SAPS  H15X 9597   2.364   6.177   8.189  0.5585 -0.5584 -0.7908
   96SAPS  H15Y 9598   2.435   6.029   8.219  0.3809  0.2669  0.7017
   96SAPS  C316 9599   2.220   6.003   8.212  0.5551 -0.3524 -0.4353
   96SAPS  H16X 9600   2.219   6.005   8.323  0.6393 -0.1482 -0.4397
   96SAPS  H16Y 9601   2.225   5.897   8.179  0.2582 -0.6200  0.3600
   96SAPS  C317 9602   2.090   6.073   8.179  0.0581 -0.2617  0.0467
   96SAPS  H17X 9603   2.081   6.056   8.070  2.0431 -3.5122  0.3369
   96SAPS  H17Y 9604   2.084   6.182   8.200 -3.6460 -0.1406 -1.1930
   96SAPS  C318 9605   1.962   6.021   8.251  0.2111  0.0504 -0.0113
   96SAPS  H18X 9606   1.959   5.910   8.245  2.7024 -0.0162 -0.4529
   96SAPS  H18Y 9607   1.871   6.067   8.208 -0.9011  0.0195  2.2309
   96SAPS  H18Z 9608   1.980   6.042   8.359  2.4801 -1.6963  0.0144
   97SAPS     N 9609   3.253   4.243   6.104  0.1514 -0.1597  0.2039
   97SAPS   HN1 9610   3.307   4.314   6.158  0.3406  0.1915 -0.4494
   97SAPS   HN2 9611   3.294   4.149   6.123  3.7315  2.0929  4.4395
   97SAPS   HN3 9612   3.235   4.264   6.004 -0.5554  0.1897  0.3959
   97SAPS   C12 9613   3.114   4.249   6.165 -1.1028  0.3403  0.1244
   97SAPS  H12A 9614   3.087   4.353   6.168 -1.8675  0.2094 -1.5415
   97SAPS   C13 9615   3.006   4.167   6.097 -0.0850  0.1044 -0.1065
   97SAPS  O13A 9616   3.044   4.097   5.999 -0.6379  0.3610 -0.5944
   97SAPS  O13B 9617   2.886   4.190   6.121 -0.4309  0.2040  0.4356
   97SAPS   C11 9618   3.131   4.200   6.315  0.0918  0.4399 -0.4137
   97SAPS  H11A 9619   3.176   4.099   6.321  0.6616  0.5806 -2.1589
   97SAPS  H11B 9620   3.031   4.183   6.362  0.3357  0.8278  0.2514
   97SAPS     P 9621   3.238   4.291   6.536  0.2016 -0.0849 -0.2033
   97SAPS   O13 9622   3.382   4.311   6.576 -0.1554  0.2926 -0.4500
   97SAPS   O14 9623   3.142   4.390   6.587 -0.1881  0.4807  0.3999
   97SAPS   O12 9624   3.214   4.296   6.383  0.2841  0.4109  0.5588
   97SAPS   O11 9625   3.186   4.150   6.583  0.4223 -0.0965 -0.3713
   97SAPS    C1 9626   3.051   4.101   6.600 -0.1481 -0.5980 -0.4888
   97SAPS    HA 9627   2.973   4.159   6.546 -1.3877 -0.4146  1.4620
   97SAPS    HB 9628   3.053   4.002   6.550 -0.8737 -0.4303 -0.8488
   97SAPS    C2 9629   3.018   4.101   6.758  0.1594 -0.3775 -1.0154
   97SAPS    HS 9630   2.981   4.203   6.783 -2.5517 -1.0393 -2.2132
   97SAPS   O21 9631   3.138   4.053   6.826  0.4785  0.0008 -0.1023
   97SAPS   C21 9632   3.205   4.149   6.883 -0.6190 -0.0208 -0.3588
   97SAPS   O22 9633   3.169   4.261   6.904 -0.0940 -0.1058  0.5371
   97SAPS   C22 9634   3.342   4.092   6.903 -0.2057 -0.2852 -0.4052
   97SAPS   H2R 9635   3.361   4.026   6.815  0.2429  1.7263 -1.8615
   97SAPS   H2S 9636   3.415   4.175   6.889 -0.1588 -0.1219  0.7450
   97SAPS    C3 9637   2.918   3.996   6.788  0.1837  0.1794  0.1017
   97SAPS    HX 9638   2.947   3.909   6.725  0.4526  2.0216 -2.3762
   97SAPS    HY 9639   2.822   4.030   6.742  0.1592  0.4197  0.3278
   97SAPS   O31 9640   2.884   3.973   6.928 -0.4067 -0.2256 -0.4728
   97SAPS   C31 9641   2.809   3.864   6.940 -0.1114  0.2891  0.1920
   97SAPS   O32 9642   2.783   3.786   6.852  0.2486 -0.1757  0.6390
   97SAPS   C32 9643   2.762   3.847   7.091  0.2134 -0.3968 -0.7201
   97SAPS   H2X 9644   2.706   3.940   7.116 -1.6235 -1.0550 -2.2711
   97SAPS   H2Y 9645   2.852   3.845   7.156  1.4769  2.2759 -2.2559
   97SAPS   C23 9646   3.359   3.997   7.025 -0.5448 -0.5381  0.2556
   97SAPS   H3R 9647   3.453   3.939   7.009 -0.9568 -1.0804 -0.2232
   97SAPS   H3S 9648   3.275   3.926   7.044 -1.2751  0.7042  1.7207
   97SAPS   C24 9649   3.403   4.085   7.145 -0.4228  0.3737  0.7504
   97SAPS   H4R 9650   3.483   4.152   7.107 -1.1213  0.3142 -0.8827
   97SAPS   H4S 9651   3.439   4.010   7.219 -0.2288  0.1720  0.4473
   97SAPS   C25 9652   3.307   4.176   7.212  0.0665 -0.4006 -0.4237
   97SAPS   H5R 9653   3.285   4.270   7.158 -1.2692 -0.5436 -0.1389
   97SAPS   C26 9654   3.239   4.152   7.326 -0.4238  0.5939 -0.0445
   97SAPS   H6R 9655   3.167   4.226   7.365 -0.7904  0.4050 -0.3667
   97SAPS   C27 9656   3.257   4.029   7.415 -0.6073 -0.1016 -0.9891
   97SAPS   H7R 9657   3.320   3.962   7.353  1.9325  1.8839 -0.6718
   97SAPS   H7S 9658   3.157   3.992   7.448 -0.9860  0.9089 -0.9914
   97SAPS   C28 9659   3.347   4.075   7.528  0.5738 -0.1036 -0.7916
   97SAPS   H8R 9660   3.454   4.053   7.509  0.4665 -3.4886  2.0875
   97SAPS   C29 9661   3.310   4.101   7.654  0.2260 -0.1637 -0.1875
   97SAPS   H9R 9662   3.384   4.145   7.723 -1.2187  3.7750 -0.9715
   97SAPS  C210 9663   3.173   4.103   7.723  0.0077  0.6051  0.0851
   97SAPS  H10R 9664   3.197   4.081   7.830 -0.9150 -0.0742  0.1575
   97SAPS  H10S 9665   3.104   4.024   7.687 -0.1190  0.8678 -0.2429
   97SAPS  C211 9666   3.118   4.238   7.703  0.1548  0.2665 -0.5128
   97SAPS  H11R 9667   3.155   4.290   7.613  0.1542  0.1210 -0.5972
   97SAPS  C212 9668   3.016   4.288   7.773 -0.1394 -0.8970 -0.2981
   97SAPS  H12R 9669   2.986   4.392   7.755 -0.0267 -0.7503  0.3439
   97SAPS  C213 9670   2.948   4.235   7.896 -0.1101  0.6070  0.4129
   97SAPS  H13R 9671   2.920   4.129   7.880 -0.2489  0.1687  3.2512
   97SAPS  H13S 9672   2.849   4.284   7.910 -0.7320 -0.8963  1.4395
   97SAPS  C214 9673   3.050   4.257   8.011  0.0683  1.2477 -0.6382
   97SAPS  H14R 9674   3.158   4.255   7.994  0.6877 -0.3230  2.9966
   97SAPS  C215 9675   3.020   4.269   8.146  0.1167 -0.4312  0.2908
   97SAPS  H15R 9676   3.100   4.283   8.220 -0.5596  0.4995  0.8481
   97SAPS  C216 9677   2.880   4.260   8.206 -0.2392 -0.0640  0.2648
   97SAPS  H16R 9678   2.807   4.206   8.142 -0.4349  1.3110 -0.6815
   97SAPS  H16S 9679   2.842   4.365   8.211  2.7518  1.0125  2.0220
   97SAPS  C217 9680   2.874   4.184   8.342  0.1318  0.3722 -0.3451
   97SAPS  H17R 9681   2.948   4.220   8.418  0.9276 -3.8212  1.0215
   97SAPS  H17S 9682   2.909   4.079   8.332 -0.7155  0.2770 -2.4170
   97SAPS  C218 9683   2.743   4.184   8.414  0.8882 -0.0711  0.1720
   97SAPS  H18R 9684   2.669   4.125   8.356  0.1380 -0.3146  1.3632
   97SAPS  H18S 9685   2.714   4.291   8.427  0.8443 -0.2194  1.2876
   97SAPS  C219 9686   2.753   4.116   8.554 -0.4993  0.0406  0.1963
   97SAPS  H19R 9687   2.825   4.172   8.618 -0.4113 -0.9424  0.9790
   97SAPS  H19S 9688   2.805   4.019   8.544 -0.9307 -0.2333  0.5845
   97SAPS  C220 9689   2.621   4.096   8.622 -0.5545 -0.0985  0.3848
   97SAPS  H20R 9690   2.641   4.036   8.713  2.8977  0.3416 -0.0015
   97SAPS  H20S 9691   2.551   4.040   8.556 -1.1502  1.7041 -0.5474
   97SAPS  H20T 9692   2.569   4.191   8.649 -1.7858 -0.3942 -0.9081
   97SAPS   C33 9693   2.666   3.729   7.105  0.4308 -0.3010  0.5384
   97SAPS   H3X 9694   2.714   3.633   7.078 -0.1545 -0.6676  0.7834
   97SAPS   H3Y 9695   2.580   3.752   7.039  0.1698  0.1062  1.0082
   97SAPS   C34 9696   2.607   3.724   7.253  0.5052 -0.0654  0.1303
   97SAPS   H4X 9697   2.531   3.805   7.256 -1.4755 -1.9538  1.9260
   97SAPS   H4Y 9698   2.678   3.731   7.339  0.5109 -0.0799  0.1269
   97SAPS   C35 9699   2.540   3.589   7.276  0.6664 -0.6893 -0.2471
   97SAPS   H5X 9700   2.612   3.505   7.262  0.5043 -0.6425 -1.3861
   97SAPS   H5Y 9701   2.459   3.583   7.201  0.7108 -0.5811 -0.3043
   97SAPS   C36 9702   2.471   3.595   7.418  0.5345  0.6235  0.0610
   97SAPS   H6X 9703   2.364   3.622   7.417 -0.2970 -2.4869  0.4870
   97SAPS   H6Y 9704   2.515   3.686   7.464 -0.2658  0.6581  0.7561
   97SAPS   C37 9705   2.497   3.489   7.520  0.0115 -0.5315 -0.1580
   97SAPS   H7X 9706   2.604   3.461   7.516 -0.0663 -0.9485  0.6296
   97SAPS   H7Y 9707   2.437   3.398   7.499 -1.1866  0.3006 -0.3940
   97SAPS   C38 9708   2.485   3.539   7.669  0.2638 -0.1353 -0.5815
   97SAPS   H8X 9709   2.380   3.538   7.705  0.2037  2.7504 -0.5723
   97SAPS   H8Y 9710   2.526   3.642   7.678 -1.2359  0.5656 -1.5775
   97SAPS   C39 9711   2.557   3.459   7.775 -0.1501 -0.2088  0.0479
   97SAPS   H9X 9712   2.666   3.466   7.754  0.0820  0.6569  1.5037
   97SAPS   H9Y 9713   2.518   3.356   7.764 -2.1278  0.6896 -1.6617
   97SAPS  C310 9714   2.528   3.524   7.909 -0.5133  0.0199 -0.1258
   97SAPS  H10X 9715   2.420   3.518   7.937 -0.2387 -0.3185  0.8868
   97SAPS  H10Y 9716   2.554   3.631   7.920  1.2284 -0.7170  3.7450
   97SAPS  C311 9717   2.592   3.454   8.022 -0.4204  0.4414  0.1123
   97SAPS  H11X 9718   2.701   3.457   8.002 -0.5735  0.7652 -0.6933
   97SAPS  H11Y 9719   2.571   3.344   8.020 -0.1368  0.3491  1.4642
   97SAPS  C312 9720   2.554   3.512   8.162 -0.4204 -0.1052  0.5417
   97SAPS  H12X 9721   2.582   3.620   8.165 -0.4609  0.1017 -3.6267
   97SAPS  H12Y 9722   2.623   3.455   8.227 -1.7885 -0.7135  1.4716
   97SAPS  C313 9723   2.409   3.489   8.196  0.1284  0.4410 -0.4585
   97SAPS  H13X 9724   2.366   3.395   8.157 -1.2256  1.6731 -2.0308
   97SAPS  H13Y 9725   2.345   3.575   8.164  1.9532  1.8225 -0.4862
   97SAPS  C314 9726   2.398   3.467   8.348  0.7665 -0.5024 -0.4219
   97SAPS  H14X 9727   2.293   3.483   8.382  0.6431  0.0438 -1.0567
   97SAPS  H14Y 9728   2.462   3.542   8.397  0.0418  0.6407 -1.1885
   97SAPS  C315 9729   2.432   3.328   8.395 -0.2706 -0.4159  0.4241
   97SAPS  H15X 9730   2.543   3.317   8.399 -0.3062 -0.0218  3.0100
   97SAPS  H15Y 9731   2.405   3.250   8.320 -0.4237  0.0999 -0.0627
   97SAPS  C316 9732   2.365   3.278   8.514 -0.1557 -0.1211 -0.3660
   97SAPS  H16X 9733   2.255   3.290   8.499 -0.0751  0.7882 -0.2079
   97SAPS  H16Y 9734   2.400   3.333   8.604 -1.2480  1.8532 -1.1188
   97SAPS  C317 9735   2.392   3.128   8.546  0.0231 -0.3077  0.1839
   97SAPS  H17X 9736   2.502   3.108   8.548  0.5945  2.5972  0.2878
   97SAPS  H17Y 9737   2.358   3.074   8.456 -4.0281  3.4383 -0.6835
   97SAPS  C318 9738   2.315   3.089   8.670  0.4781  0.3990 -0.0939
   97SAPS  H18X 9739   2.359   3.133   8.762 -0.6462  2.3056 -0.4247
   97SAPS  H18Y 9740   2.334   2.981   8.681 -2.1289 -0.1415 -0.3815
   97SAPS  H18Z 9741   2.205   3.108   8.677  0.3697 -0.7741  1.4294
   98SAPS     N 9742   0.430   3.814   6.196  0.1344  0.4483  0.3468
   98SAPS   HN1 9743   0.432   3.891   6.266 -0.3532 -0.5362  1.4630
   98SAPS   HN2 9744   0.340   3.766   6.178 -0.0874  1.2424 -0.6686
   98SAPS   HN3 9745   0.497   3.739   6.225 -0.5564 -0.9203 -1.5268
   98SAPS   C12 9746   0.480   3.867   6.070 -0.1772  0.2923  0.1605
   98SAPS  H12A 9747   0.560   3.799   6.045 -1.9804 -0.9931 -2.3643
   98SAPS   C13 9748   0.393   3.870   5.941  0.9732 -0.1034  0.0347
   98SAPS  O13A 9749   0.269   3.847   5.957  0.7485 -0.8759  0.3772
   98SAPS  O13B 9750   0.428   3.932   5.835 -0.1508 -0.3239 -0.3211
   98SAPS   C11 9751   0.530   4.011   6.101 -0.4505  0.7918  0.6638
   98SAPS  H11A 9752   0.435   4.065   6.118  0.1728  1.8802  0.7125
   98SAPS  H11B 9753   0.581   4.059   6.015 -0.2756 -1.4044 -0.4975
   98SAPS     P 9754   0.757   3.971   6.238  0.2305 -0.1928 -0.2513
   98SAPS   O13 9755   0.759   3.830   6.202 -0.5634  0.3514 -0.2108
   98SAPS   O14 9756   0.845   4.066   6.174 -0.0581 -0.5619  0.5196
   98SAPS   O12 9757   0.610   4.017   6.225 -0.1598 -0.1279  0.0072
   98SAPS   O11 9758   0.768   3.984   6.396  0.0737  0.0900  0.1475
   98SAPS    C1 9759   0.703   3.888   6.477  0.7380 -0.1796 -0.1757
   98SAPS    HA 9760   0.600   3.866   6.441 -0.0143 -0.0356  1.8154
   98SAPS    HB 9761   0.763   3.795   6.482 -1.2633 -1.6689 -2.5236
   98SAPS    C2 9762   0.716   3.936   6.629  0.1415 -0.2948 -0.2061
   98SAPS    HS 9763   0.629   3.900   6.687 -1.1773  1.0673 -1.3009
   98SAPS   O21 9764   0.736   4.081   6.639  0.2885  0.3284 -0.4627
   98SAPS   C21 9765   0.623   4.142   6.640  0.5950  0.2404  0.2316
   98SAPS   O22 9766   0.513   4.093   6.624 -0.3779  0.4774 -0.1014
   98SAPS   C22 9767   0.638   4.292   6.676  0.5138  0.3379 -0.6679
   98SAPS   H2R 9768   0.697   4.335   6.592  1.3345  3.0817  1.2438
   98SAPS   H2S 9769   0.535   4.331   6.680  0.5765  0.4331 -0.0360
   98SAPS    C3 9770   0.823   3.863   6.715 -0.3170  0.3185  0.5217
   98SAPS    HX 9771   0.918   3.872   6.658  0.1223 -2.2813  0.8112
   98SAPS    HY 9772   0.803   3.755   6.703 -1.4971  0.7724 -1.7817
   98SAPS   O31 9773   0.827   3.903   6.856 -0.4178  0.1948  0.0555
   98SAPS   C31 9774   0.938   3.960   6.901 -0.2935  0.4289  0.0201
   98SAPS   O32 9775   1.042   3.973   6.841 -0.0601  0.5877 -0.6210
   98SAPS   C32 9776   0.919   3.991   7.054  0.6140  0.3740 -0.3732
   98SAPS   H2X 9777   0.962   3.911   7.118  0.5753  1.4850  1.0941
   98SAPS   H2Y 9778   0.812   3.993   7.083  0.6969 -0.4522 -0.0107
   98SAPS   C23 9779   0.724   4.322   6.805  0.1108 -0.0883  0.1781
   98SAPS   H3R 9780   0.760   4.427   6.806  0.7996 -0.2925 -1.7998
   98SAPS   H3S 9781   0.813   4.257   6.793  0.6836  0.8429 -0.6769
   98SAPS   C24 9782   0.643   4.285   6.926 -1.0561 -0.1187  0.5073
   98SAPS   H4R 9783   0.709   4.290   7.016 -2.7312 -0.1450  1.7731
   98SAPS   H4S 9784   0.601   4.183   6.920  0.4326 -1.0412  4.1011
   98SAPS   C25 9785   0.537   4.382   6.946 -0.5588  0.1135 -0.1141
   98SAPS   H5R 9786   0.555   4.475   6.890  0.7556 -0.8492 -1.3291
   98SAPS   C26 9787   0.446   4.380   7.046  0.6748 -0.3498 -0.0867
   98SAPS   H6R 9788   0.358   4.445   7.038  1.0253 -0.0370 -1.4974
   98SAPS   C27 9789   0.449   4.276   7.153 -0.4284 -0.2622 -0.2349
   98SAPS   H7R 9790   0.533   4.306   7.220 -2.1894  1.3391  1.3248
   98SAPS   H7S 9791   0.478   4.176   7.115  0.3937  0.2839 -1.0752
   98SAPS   C28 9792   0.318   4.270   7.223 -0.2810 -0.5693 -0.0487
   98SAPS   H8R 9793   0.228   4.265   7.160  0.1818  0.4050 -0.7842
   98SAPS   C29 9794   0.311   4.255   7.359 -0.7694 -0.2762  0.3324
   98SAPS   H9R 9795   0.211   4.242   7.403 -1.7623  0.3538 -1.6729
   98SAPS  C210 9796   0.419   4.251   7.458 -0.1130 -0.1643 -0.8371
   98SAPS  H10R 9797   0.516   4.211   7.422  0.4481  0.0186  0.4520
   98SAPS  H10S 9798   0.395   4.172   7.532  1.4756 -0.9026 -1.0832
   98SAPS  C211 9799   0.443   4.388   7.507  0.6453  0.3767 -0.4455
   98SAPS  H11R 9800   0.463   4.463   7.429  0.8248 -0.7935 -1.5345
   98SAPS  C212 9801   0.465   4.415   7.638  0.5013  0.0065 -0.1109
   98SAPS  H12R 9802   0.484   4.521   7.660  0.7495 -0.1472  0.4283
   98SAPS  C213 9803   0.461   4.321   7.756  0.5984  0.2363  0.3606
   98SAPS  H13R 9804   0.556   4.333   7.812  0.9316 -0.7153  0.0280
   98SAPS  H13S 9805   0.452   4.213   7.728 -1.6598  0.6603 -0.7163
   98SAPS  C214 9806   0.342   4.350   7.846  0.9851  0.2955  0.7273
   98SAPS  H14R 9807   0.251   4.380   7.791  1.1428 -3.4530 -1.7576
   98SAPS  C215 9808   0.339   4.351   7.983 -0.0044 -0.4938 -0.0216
   98SAPS  H15R 9809   0.236   4.349   8.021  0.5080 -1.8547  1.3573
   98SAPS  C216 9810   0.460   4.313   8.074 -0.2761 -0.3192 -0.8995
   98SAPS  H16R 9811   0.532   4.398   8.074 -0.7153  0.0667 -1.9018
   98SAPS  H16S 9812   0.507   4.224   8.027  0.8205  1.0459 -2.4656
   98SAPS  C217 9813   0.427   4.297   8.219  0.2719 -0.8427  0.4869
   98SAPS  H17R 9814   0.382   4.394   8.252  0.5476 -1.0861  1.5946
   98SAPS  H17S 9815   0.525   4.283   8.268  1.7157 -0.7608 -2.2840
   98SAPS  C218 9816   0.329   4.191   8.248 -0.0561  0.6178  0.4392
   98SAPS  H18R 9817   0.369   4.107   8.188 -2.7428 -0.4076  0.0313
   98SAPS  H18S 9818   0.230   4.228   8.213  0.7559  1.7975 -0.6585
   98SAPS  C219 9819   0.313   4.153   8.394 -0.8941  0.5650 -0.3003
   98SAPS  H19R 9820   0.222   4.091   8.409 -0.3049 -1.3950 -4.1385
   98SAPS  H19S 9821   0.311   4.256   8.435  0.7248  1.4456 -2.3154
   98SAPS  C220 9822   0.445   4.096   8.459  0.0060  0.2598 -0.2963
   98SAPS  H20R 9823   0.414   4.019   8.533  2.0837 -0.3626 -0.0245
   98SAPS  H20S 9824   0.525   4.167   8.491  0.7869 -0.3223 -0.9495
   98SAPS  H20T 9825   0.502   4.042   8.380  0.8342  1.4545 -0.5375
   98SAPS   C33 9826   0.977   4.125   7.100 -0.0355  0.3193  0.0269
   98SAPS   H3X 9827   0.924   4.211   7.055 -0.7433 -0.2583 -0.2596
   98SAPS   H3Y 9828   1.087   4.129   7.086 -0.2803  0.7046 -1.8829
   98SAPS   C34 9829   0.964   4.131   7.259  0.0304 -1.1393 -0.1284
   98SAPS   H4X 9830   1.003   4.232   7.281  0.5720 -1.8402  2.3068
   98SAPS   H4Y 9831   1.029   4.058   7.311  0.1550 -0.8088  0.1816
   98SAPS   C35 9832   0.825   4.123   7.311  0.1994 -0.3120 -0.2779
   98SAPS   H5X 9833   0.793   4.017   7.314 -0.6671 -0.0319  0.8898
   98SAPS   H5Y 9834   0.761   4.179   7.239  1.3872  1.6034  0.1088
   98SAPS   C36 9835   0.821   4.193   7.453  0.2684 -0.3578 -0.5521
   98SAPS   H6X 9836   0.713   4.190   7.479  0.8401 -0.9714  1.7943
   98SAPS   H6Y 9837   0.857   4.296   7.436  1.1183 -0.8516 -1.8625
   98SAPS   C37 9838   0.905   4.130   7.563  0.9829 -0.2783 -0.3357
   98SAPS   H7X 9839   1.011   4.127   7.531  0.7028 -1.2351 -1.1840
   98SAPS   H7Y 9840   0.866   4.027   7.574 -1.6420  0.5389 -1.5790
   98SAPS   C38 9841   0.872   4.204   7.696  0.5655 -0.4798 -0.3240
   98SAPS   H8X 9842   0.796   4.278   7.664  1.9901  1.4213  0.6227
   98SAPS   H8Y 9843   0.962   4.261   7.727 -1.4195  2.8435 -0.4811
   98SAPS   C39 9844   0.831   4.100   7.802 -0.2220  0.4070 -0.4856
   98SAPS   H9X 9845   0.912   4.025   7.793 -0.1365 -0.0541  3.2161
   98SAPS   H9Y 9846   0.735   4.056   7.768 -0.6336  1.3585 -0.5693
   98SAPS  C310 9847   0.823   4.154   7.948  0.2605 -0.6649 -0.6151
   98SAPS  H10X 9848   0.726   4.209   7.946 -0.1066 -1.1180  2.7451
   98SAPS  H10Y 9849   0.898   4.234   7.965  1.2768 -1.4056 -1.5024
   98SAPS  C311 9850   0.818   4.053   8.056  0.4471  0.1827  1.4990
   98SAPS  H11X 9851   0.916   4.001   8.060  0.1941 -0.5107 -0.7396
   98SAPS  H11Y 9852   0.736   3.982   8.032  1.4863  0.2866 -2.6896
   98SAPS  C312 9853   0.769   4.111   8.193 -0.2365 -0.4850 -0.0594
   98SAPS  H12X 9854   0.718   4.028   8.247  1.6852  0.3261  3.0974
   98SAPS  H12Y 9855   0.698   4.194   8.175  1.5789  1.4527  1.5347
   98SAPS  C313 9856   0.881   4.149   8.283  0.1103  0.0344  0.1504
   98SAPS  H13X 9857   0.940   4.236   8.247 -1.3517  0.5836 -0.9564
   98SAPS  H13Y 9858   0.955   4.067   8.276  0.0794 -0.0462  0.7445
   98SAPS  C314 9859   0.833   4.179   8.426 -0.5739  0.0613 -0.5496
   98SAPS  H14X 9860   0.775   4.094   8.467 -0.7853 -0.2990 -1.5847
   98SAPS  H14Y 9861   0.770   4.269   8.412 -2.0005 -0.9632 -0.7766
   98SAPS  C315 9862   0.947   4.223   8.519 -0.0206  0.1802 -0.8141
   98SAPS  H15X 9863   1.003   4.304   8.468  0.2874  0.9155  0.6676
   98SAPS  H15Y 9864   1.013   4.135   8.535  0.2329  0.5069 -0.0132
   98SAPS  C316 9865   0.880   4.268   8.649 -0.6403 -0.8183  0.7496
   98SAPS  H16X 9866   0.954   4.262   8.731  1.0784 -1.4455 -0.8039
   98SAPS  H16Y 9867   0.804   4.195   8.683 -0.3288 -0.7147  1.6673
   98SAPS  C317 9868   0.815   4.408   8.646  0.4595 -0.2549 -0.2158
   98SAPS  H17X 9869   0.733   4.417   8.572  0.1848  2.2051  0.3362
   98SAPS  H17Y 9870   0.893   4.476   8.605 -0.5208  1.4039  0.6370
   98SAPS  C318 9871   0.745   4.447   8.776  0.7274 -0.2268 -0.0009
   98SAPS  H18X 9872   0.812   4.434   8.863  0.5633  1.0229  0.3190
   98SAPS  H18Y 9873   0.663   4.373   8.789  0.4518  0.0833  0.0290
   98SAPS  H18Z 9874   0.698   4.548   8.772  0.3322 -0.2903  2.4477
   99SAPS     N 9875   0.703   1.715   5.989 -0.3622 -0.7544 -1.3933
   99SAPS   HN1 9876   0.708   1.641   5.916  0.5527 -1.4229 -0.6683
   99SAPS   HN2 9877   0.794   1.744   6.030 -1.3036  1.5272 -0.8329
   99SAPS   HN3 9878   0.640   1.671   6.060  0.5800  1.9067  1.1740
   99SAPS   C12 9879   0.641   1.851   5.945 -0.4659  0.5820 -0.2319
   99SAPS  H12A 9880   0.716   1.899   5.883  2.4542 -0.9865  1.9770
   99SAPS   C13 9881   0.511   1.842   5.859  0.6499 -0.2413 -0.3560
   99SAPS  O13A 9882   0.478   1.726   5.815  0.1410  0.0681  0.1104
   99SAPS  O13B 9883   0.437   1.942   5.832  0.1941 -0.1318  0.0040
   99SAPS   C11 9884   0.616   1.947   6.063  0.0485  0.3781  0.1726
   99SAPS  H11A 9885   0.544   1.897   6.131 -0.8558  0.4164 -0.7416
   99SAPS  H11B 9886   0.555   2.029   6.019  0.7543  0.9642  0.2753
   99SAPS     P 9887   0.741   2.068   6.259  0.0072 -0.3577  0.3167
   99SAPS   O13 9888   0.873   2.109   6.297 -0.3542 -0.7942 -0.4486
   99SAPS   O14 9889   0.644   2.180   6.242  0.4655  0.5418 -0.2132
   99SAPS   O12 9890   0.745   1.981   6.128 -0.2005 -0.6067  0.2344
   99SAPS   O11 9891   0.695   1.965   6.370 -0.1748 -0.0724 -0.7040
   99SAPS    C1 9892   0.763   1.840   6.394 -0.5530 -0.2544 -1.0815
   99SAPS    HA 9893   0.689   1.767   6.356 -1.5529  0.3182 -0.2496
   99SAPS    HB 9894   0.846   1.821   6.321 -0.6784 -0.7963 -1.0879
   99SAPS    C2 9895   0.798   1.813   6.546  0.1720  0.2042  0.4557
   99SAPS    HS 9896   0.841   1.713   6.566 -1.5899 -1.1550 -2.3072
   99SAPS   O21 9897   0.672   1.829   6.611  0.9301 -0.2119 -0.3005
   99SAPS   C21 9898   0.586   1.729   6.591 -0.0770  0.3127 -0.0200
   99SAPS   O22 9899   0.624   1.625   6.538  0.1340  0.6921  0.0768
   99SAPS   C22 9900   0.452   1.757   6.657  0.1121  0.0228 -0.7651
   99SAPS   H2R 9901   0.468   1.852   6.712 -1.4552 -0.7430  1.0618
   99SAPS   H2S 9902   0.378   1.774   6.576 -3.4662 -2.6037  1.8014
   99SAPS    C3 9903   0.903   1.905   6.604 -0.6917 -0.3747  0.1328
   99SAPS    HX 9904   0.865   2.008   6.586 -0.7867 -0.6115 -1.0057
   99SAPS    HY 9905   0.996   1.890   6.545  0.0059  0.1574  1.0795
   99SAPS   O31 9906   0.924   1.889   6.746 -0.0003  0.2755  0.0576
   99SAPS   C31 9907   1.019   1.792   6.770  0.0612 -0.0705 -0.2762
   99SAPS   O32 9908   1.081   1.736   6.683 -0.2957 -0.5878  0.5389
   99SAPS   C32 9909   1.035   1.770   6.919 -0.3661  0.2075  0.0643
   99SAPS   H2X 9910   0.938   1.744   6.965  1.4819 -1.7864  3.0139
   99SAPS   H2Y 9911   1.080   1.865   6.954 -1.5584  1.2408 -1.1426
   99SAPS   C23 9912   0.402   1.641   6.746 -0.3163 -0.0830  0.7576
   99SAPS   H3R 9913   0.469   1.617   6.832  0.1102 -0.6298  0.2741
   99SAPS   H3S 9914   0.405   1.549   6.685 -0.0999 -0.8035  1.8328
   99SAPS   C24 9915   0.263   1.676   6.799 -0.1036 -0.0232  0.1735
   99SAPS   H4R 9916   0.202   1.585   6.818  1.1396 -1.4388 -2.3445
   99SAPS   H4S 9917   0.211   1.721   6.712  1.6832  2.8273  0.5118
   99SAPS   C25 9918   0.243   1.750   6.936 -0.2789 -0.6223  0.1691
   99SAPS   H5R 9919   0.230   1.858   6.927  0.9766 -0.4916 -0.1317
   99SAPS   C26 9920   0.259   1.702   7.062 -0.2235 -0.3785  0.0806
   99SAPS   H6R 9921   0.228   1.764   7.148  0.8214 -1.3138  1.1391
   99SAPS   C27 9922   0.285   1.559   7.101  0.0333  0.2679  0.5160
   99SAPS   H7R 9923   0.322   1.508   7.009 -1.5647  1.4282 -0.8074
   99SAPS   H7S 9924   0.188   1.508   7.118 -0.0472  0.4813  0.6946
   99SAPS   C28 9925   0.373   1.525   7.212 -0.6556 -0.1949  0.3444
   99SAPS   H8R 9926   0.477   1.543   7.178 -1.1901  2.0792 -0.1825
   99SAPS   C29 9927   0.345   1.473   7.335 -0.3107  0.3119  0.5386
   99SAPS   H9R 9928   0.429   1.458   7.404  1.1980 -1.5984 -1.6262
   99SAPS  C210 9929   0.202   1.448   7.383  0.2871 -0.2268 -0.4044
   99SAPS  H10R 9930   0.193   1.378   7.470  0.4708  2.4122  1.7916
   99SAPS  H10S 9931   0.131   1.408   7.308 -0.0069 -3.1139  1.3052
   99SAPS  C211 9932   0.141   1.581   7.420  0.0282 -0.1707  0.7634
   99SAPS  H11R 9933   0.112   1.641   7.333  1.5246  0.3066  0.5722
   99SAPS  C212 9934   0.145   1.635   7.541 -1.2191  0.3992  0.6076
   99SAPS  H12R 9935   0.093   1.730   7.558  0.2671  1.2608  0.4634
   99SAPS  C213 9936   0.196   1.579   7.671 -0.6194  0.2165  0.1530
   99SAPS  H13R 9937   0.250   1.483   7.659  0.4915  0.5767  1.9377
   99SAPS  H13S 9938   0.104   1.566   7.732 -1.5344  3.3685 -0.4636
   99SAPS  C214 9939   0.277   1.687   7.747 -0.2372  0.3311 -0.4359
   99SAPS  H14R 9940   0.266   1.793   7.718 -0.2142  0.7438  1.0326
   99SAPS  C215 9941   0.345   1.659   7.865 -0.3482 -0.1491  0.1724
   99SAPS  H15R 9942   0.407   1.734   7.916  0.9276  0.5522 -2.3480
   99SAPS  C216 9943   0.357   1.518   7.921 -0.2690 -0.2264 -0.3950
   99SAPS  H16R 9944   0.462   1.487   7.907  0.3783  0.6835  2.1213
   99SAPS  H16S 9945   0.300   1.440   7.866 -2.1061  1.2922 -0.7206
   99SAPS  C217 9946   0.326   1.515   8.073  0.5356  1.1575  0.5609
   99SAPS  H17R 9947   0.226   1.558   8.089 -0.2805  0.1510 -1.5856
   99SAPS  H17S 9948   0.411   1.569   8.119  1.4588  0.0437  0.1996
   99SAPS  C218 9949   0.351   1.379   8.136 -0.0167 -0.3293 -0.2335
   99SAPS  H18R 9950   0.454   1.339   8.126  0.0796  0.3528 -2.2778
   99SAPS  H18S 9951   0.279   1.318   8.079  0.2675  0.3501 -1.3331
   99SAPS  C219 9952   0.319   1.369   8.284  0.2362  0.4509  0.3240
   99SAPS  H19R 9953   0.390   1.433   8.340  0.0002  0.6154  0.4365
   99SAPS  H19S 9954   0.331   1.261   8.307  1.6592  0.7459  1.0576
   99SAPS  C220 9955   0.171   1.394   8.309  0.9980 -0.0862 -0.3375
   99SAPS  H20R 9956   0.139   1.500   8.312 -2.3679 -0.9362 -2.3703
   99SAPS  H20S 9957   0.144   1.341   8.403 -0.7881 -0.2508 -0.9154
   99SAPS  H20T 9958   0.110   1.347   8.228 -0.6307  0.7170  0.3952
   99SAPS   C33 9959   1.137   1.658   6.943 -0.2999  0.5409  0.1986
   99SAPS   H3X 9960   1.235   1.685   6.900 -0.3107 -0.0242 -0.1852
   99SAPS   H3Y 9961   1.093   1.576   6.883 -0.8248 -0.4550  1.8860
   99SAPS   C34 9962   1.138   1.619   7.090 -0.0422  0.2657  0.9328
   99SAPS   H4X 9963   1.030   1.617   7.114  0.2525  0.2679  2.3227
   99SAPS   H4Y 9964   1.192   1.694   7.152 -1.0280  0.4393  1.5782
   99SAPS   C35 9965   1.202   1.479   7.108  0.1768 -0.6081 -0.4863
   99SAPS   H5X 9966   1.285   1.467   7.035  0.1058  1.2001 -0.8926
   99SAPS   H5Y 9967   1.127   1.398   7.095  1.7097 -2.2805  0.9124
   99SAPS   C36 9968   1.252   1.449   7.246  0.3011  0.0254 -0.6677
   99SAPS   H6X 9969   1.315   1.531   7.287  1.8525 -1.7498  0.6143
   99SAPS   H6Y 9970   1.324   1.364   7.247 -0.4534 -0.6251 -1.7865
   99SAPS   C37 9971   1.147   1.420   7.354 -0.0388 -0.2708  0.0234
   99SAPS   H7X 9972   1.082   1.342   7.308  0.0605  0.2929 -1.1103
   99SAPS   H7Y 9973   1.084   1.511   7.364  1.0919  0.6954 -1.4789
   99SAPS   C38 9974   1.202   1.366   7.487  0.1185 -0.0130  0.2923
   99SAPS   H8X 9975   1.287   1.430   7.521 -0.3178 -1.0052  3.4367
   99SAPS   H8Y 9976   1.244   1.264   7.475 -0.2850 -0.3251  1.4127
   99SAPS   C39 9977   1.095   1.355   7.595  0.7390  0.4029  0.0960
   99SAPS   H9X 9978   1.013   1.286   7.567  1.2994  0.3971 -1.5518
   99SAPS   H9Y 9979   1.050   1.453   7.622  1.6812  0.6947  0.6405
   99SAPS  C310 9980   1.154   1.287   7.723 -0.3262  0.0927 -0.0628
   99SAPS  H10X 9981   1.227   1.363   7.759 -0.2838  0.1788 -0.3271
   99SAPS  H10Y 9982   1.214   1.194   7.712 -1.5926 -0.6357 -1.0360
   99SAPS  C311 9983   1.041   1.269   7.823 -0.1688 -0.2401 -0.0631
   99SAPS  H11X 9984   0.990   1.175   7.792  0.7755 -0.8099  0.0970
   99SAPS  H11Y 9985   0.972   1.356   7.834  0.6417  0.4949 -0.7147
   99SAPS  C312 9986   1.087   1.242   7.967 -0.1813  0.4536 -0.2709
   99SAPS  H12X 9987   1.153   1.326   7.999  1.6030 -0.0293 -2.5728
   99SAPS  H12Y 9988   1.143   1.147   7.977  1.8168  1.5984 -0.3631
   99SAPS  C313 9989   0.979   1.234   8.071  0.0051 -0.2208 -0.1743
   99SAPS  H13X 9990   0.910   1.155   8.034  0.3295 -0.3137 -0.5808
   99SAPS  H13Y 9991   0.919   1.327   8.079  0.5526  0.2546 -1.4902
   99SAPS  C314 9992   1.036   1.202   8.207 -0.4157 -0.0571  0.0254
   99SAPS  H14X 9993   1.103   1.276   8.255  0.4907 -0.0890 -1.1752
   99SAPS  H14Y 9994   1.098   1.110   8.199 -1.8892 -0.9807 -1.2145
   99SAPS  C315 9995   0.936   1.169   8.320  0.1002 -0.1580  0.4305
   99SAPS  H15X 9996   0.993   1.148   8.413  0.0965 -0.0006  0.4690
   99SAPS  H15Y 9997   0.867   1.082   8.316  0.7221 -0.5871 -1.3908
   99SAPS  C316 9998   0.846   1.290   8.360  0.4258 -0.3936 -0.3955
   99SAPS  H16X 9999   0.764   1.318   8.291  2.2074  1.9513 -1.6401
   99SAPS  H16Y10000   0.909   1.381   8.373 -1.0032  0.4979  0.3841
   99SAPS  C31710001   0.775   1.265   8.489 -0.5225 -0.5098  1.3548
   99SAPS  H17X10002   0.842   1.290   8.574  0.9957 -0.2256  0.0796
   99SAPS  H17Y10003   0.739   1.161   8.501 -0.9596 -0.8690 -2.5001
   99SAPS  C31810004   0.651   1.357   8.505  0.5884  0.0558 -0.4211
   99SAPS  H18X10005   0.693   1.461   8.506  0.4928  0.1090  1.9645
   99SAPS  H18Y10006   0.614   1.339   8.608  0.6935 -1.1415 -0.5942
   99SAPS  H18Z10007   0.565   1.332   8.440 -1.7262  1.7329  1.8690
  100SAPS     N10008   2.908   3.860   5.978  0.5636  0.2338  0.2811
  100SAPS   HN110009   2.829   3.888   5.916  0.9571  1.0351  0.1374
  100SAPS   HN210010   2.875   3.847   6.076 -0.5511  0.8697  0.0006
  100SAPS   HN310011   2.974   3.939   5.969 -0.3658  0.7969 -2.0490
  100SAPS   C1210012   2.961   3.733   5.903 -0.0968 -0.5631 -0.3260
  100SAPS  H12A10013   2.899   3.650   5.933  0.7844 -1.2471 -0.3719
  100SAPS   C1310014   2.945   3.743   5.749  0.3638 -0.1059  0.0574
  100SAPS  O13A10015   2.898   3.854   5.704 -0.2584  0.2075  0.4479
  100SAPS  O13B10016   2.965   3.650   5.669  0.0462  0.2993 -0.2750
  100SAPS   C1110017   3.107   3.707   5.948 -0.3617 -0.0218  0.1854
  100SAPS  H11A10018   3.176   3.786   5.911 -0.9877 -1.0222 -3.2942
  100SAPS  H11B10019   3.135   3.610   5.903  0.2278  0.5574 -0.7273
  100SAPS     P10020   3.158   3.569   6.173 -0.0593 -0.4394  0.0998
  100SAPS   O1310021   3.083   3.454   6.118 -0.0540 -0.0408  0.4429
  100SAPS   O1410022   3.302   3.550   6.203 -0.2073 -0.0338 -0.2564
  100SAPS   O1210023   3.132   3.707   6.095 -0.2947 -0.4871  0.3381
  100SAPS   O1110024   3.094   3.600   6.317  0.4709 -0.5814 -0.1795
  100SAPS    C110025   3.140   3.687   6.417  0.2940  0.4971  0.7093
  100SAPS    HA10026   3.216   3.757   6.377  0.2373 -0.3866 -0.9933
  100SAPS    HB10027   3.056   3.749   6.455 -0.5487  0.0257 -0.3580
  100SAPS    C210028   3.196   3.601   6.534  1.2267  0.6763  0.8229
  100SAPS    HS10029   3.282   3.552   6.485  1.0408  0.3951  0.7778
  100SAPS   O2110030   3.079   3.525   6.583 -0.2477 -0.3258 -0.0084
  100SAPS   C2110031   3.112   3.398   6.601 -0.1374  0.5701  0.2649
  100SAPS   O2210032   3.223   3.350   6.592  0.7755  0.0177 -0.0781
  100SAPS   C2210033   2.980   3.325   6.654  0.3853 -0.6461  0.0608
  100SAPS   H2R10034   2.895   3.374   6.602 -0.0084  0.8947  2.0699
  100SAPS   H2S10035   2.979   3.220   6.620  0.4818 -0.2949 -1.0566
  100SAPS    C310036   3.258   3.710   6.632  0.7944  0.5173  0.9087
  100SAPS    HX10037   3.180   3.777   6.675 -0.3190 -0.6152  0.6802
  100SAPS    HY10038   3.328   3.769   6.569  1.4477  0.4372  1.5441
  100SAPS   O3110039   3.318   3.646   6.743  0.3820 -0.3736  0.4608
  100SAPS   C3110040   3.447   3.607   6.718 -0.0623 -0.7104 -0.2509
  100SAPS   O3210041   3.512   3.641   6.621 -0.4342 -0.0671  0.3279
  100SAPS   C3210042   3.495   3.525   6.838 -0.1432  0.1726  0.2285
  100SAPS   H2X10043   3.465   3.570   6.936  2.6855  0.3381  1.0763
  100SAPS   H2Y10044   3.605   3.509   6.829 -0.2034 -0.7678  1.0242
  100SAPS   C2310045   2.943   3.331   6.806 -0.1482 -0.3799 -0.3479
  100SAPS   H3R10046   3.028   3.288   6.864 -0.2949  0.5888  0.5966
  100SAPS   H3S10047   2.843   3.284   6.819 -0.7339  0.5602 -1.3687
  100SAPS   C2410048   2.928   3.471   6.870  0.1043 -0.2113 -0.3731
  100SAPS   H4R10049   2.864   3.476   6.961 -0.1694  0.9174 -0.6155
  100SAPS   H4S10050   2.870   3.528   6.794 -0.5089 -0.1587  0.1316
  100SAPS   C2510051   3.064   3.534   6.894  0.1823 -0.6701  0.1468
  100SAPS   H5R10052   3.124   3.574   6.811 -0.5324  3.7866  1.5954
  100SAPS   C2610053   3.116   3.562   7.016 -0.2658 -0.4002  0.0614
  100SAPS   H6R10054   3.221   3.595   7.017 -1.0868  2.6489 -3.6947
  100SAPS   C2710055   3.049   3.539   7.149  0.1085 -0.1463 -0.2211
  100SAPS   H7R10056   3.096   3.452   7.199 -2.5876 -1.0649  0.7803
  100SAPS   H7S10057   2.948   3.496   7.134  0.5798 -1.0755 -0.7661
  100SAPS   C2810058   3.052   3.668   7.233  0.3629  0.4026 -0.6913
  100SAPS   H8R10059   3.069   3.766   7.185 -1.6803  1.5884  0.9137
  100SAPS   C2910060   3.044   3.681   7.362  0.4742 -0.1753  0.2007
  100SAPS   H9R10061   3.048   3.784   7.401  0.1693 -0.8749  2.1693
  100SAPS  C21010062   3.021   3.568   7.460 -0.5415  0.6687 -0.3196
  100SAPS  H10R10063   3.109   3.555   7.527 -0.6775  0.8485 -0.1048
  100SAPS  H10S10064   3.006   3.467   7.415  1.1072  0.6505 -0.8444
  100SAPS  C21110065   2.911   3.603   7.553 -0.7863 -0.3340 -0.0737
  100SAPS  H11R10066   2.809   3.600   7.512 -0.6175 -2.1874 -0.3789
  100SAPS  C21210067   2.921   3.633   7.686  0.3966 -0.4256 -0.4102
  100SAPS  H12R10068   2.826   3.651   7.737  0.9403  3.4982 -0.6103
  100SAPS  C21310069   3.037   3.649   7.779  0.0611  0.2455  0.4361
  100SAPS  H13R10070   3.129   3.643   7.717 -1.2196  2.7717 -1.8297
  100SAPS  H13S10071   3.027   3.561   7.847 -1.5902  1.0136  1.2102
  100SAPS  C21410072   3.019   3.781   7.845  0.7479  0.0024 -0.4901
  100SAPS  H14R10073   3.026   3.865   7.774 -0.8760  2.1646  1.8243
  100SAPS  C21510074   3.016   3.802   7.985  0.2403 -0.3181 -0.2975
  100SAPS  H15R10075   2.991   3.906   8.011 -1.1114 -0.4478 -0.9979
  100SAPS  C21610076   3.024   3.698   8.098  0.2639 -0.2667 -0.6943
  100SAPS  H16R10077   3.120   3.716   8.151  0.9579 -2.4590 -1.1860
  100SAPS  H16S10078   3.029   3.596   8.055  0.2660  0.5241 -2.6271
  100SAPS  C21710079   2.902   3.706   8.192 -0.0743 -0.1279  0.1991
  100SAPS  H17R10080   2.829   3.636   8.146 -0.7627  2.0274 -2.1311
  100SAPS  H17S10081   2.851   3.805   8.199  0.0352 -0.1310  1.0970
  100SAPS  C21810082   2.924   3.657   8.339  0.0065 -0.0710  0.0042
  100SAPS  H18R10083   3.005   3.717   8.387  0.7382 -0.3350 -0.9040
  100SAPS  H18S10084   2.954   3.551   8.345  1.4493  0.3218 -0.0855
  100SAPS  C21910085   2.791   3.672   8.408 -0.4101  0.4757  0.1685
  100SAPS  H19R10086   2.713   3.602   8.371 -1.6869  1.2689  1.3102
  100SAPS  H19S10087   2.759   3.775   8.383 -1.3304  0.4311  1.1266
  100SAPS  C22010088   2.795   3.650   8.563  0.0326 -0.1135  0.6554
  100SAPS  H20R10089   2.699   3.696   8.596 -0.6956 -1.5144  0.5151
  100SAPS  H20S10090   2.884   3.710   8.590 -0.9912  2.1267 -0.7801
  100SAPS  H20T10091   2.813   3.546   8.598 -0.4595 -0.5671 -0.4352
  100SAPS   C3310092   3.432   3.383   6.851  1.0603 -0.0054  0.0430
  100SAPS   H3X10093   3.466   3.316   6.770  0.3989 -0.8983  0.4990
  100SAPS   H3Y10094   3.322   3.386   6.840  0.9682  0.0379  0.9719
  100SAPS   C3410095   3.469   3.312   6.985 -0.0631 -0.6472  0.3908
  100SAPS   H4X10096   3.571   3.340   7.018  0.0164  0.7321 -0.9433
  100SAPS   H4Y10097   3.477   3.203   6.966  0.2465 -0.3065 -1.5887
  100SAPS   C3510098   3.369   3.345   7.105 -0.0871  0.3991 -0.5069
  100SAPS   H5X10099   3.273   3.297   7.078  0.9250 -2.4317  0.7893
  100SAPS   H5Y10100   3.362   3.456   7.105 -4.5426  0.1827 -0.3718
  100SAPS   C3610101   3.417   3.292   7.241  0.4491  0.0824  0.2953
  100SAPS   H6X10102   3.516   3.337   7.266 -0.2701  2.0221 -0.1902
  100SAPS   H6Y10103   3.418   3.181   7.237  1.8250  0.0896  0.3362
  100SAPS   C3710104   3.331   3.339   7.356 -0.4358  0.2199  0.1505
  100SAPS   H7X10105   3.232   3.289   7.344 -0.8523  0.7336  1.3850
  100SAPS   H7Y10106   3.311   3.447   7.342  0.1357  0.1700 -1.1325
  100SAPS   C3810107   3.394   3.311   7.492 -0.6285  0.6217 -0.1215
  100SAPS   H8X10108   3.488   3.371   7.501 -0.5746  0.4219  0.6519
  100SAPS   H8Y10109   3.420   3.203   7.490  0.7825  0.9563 -2.7103
  100SAPS   C3910110   3.307   3.340   7.610  0.7445 -0.6052  0.0449
  100SAPS   H9X10111   3.211   3.284   7.606  0.7785 -0.5971 -1.5183
  100SAPS   H9Y10112   3.275   3.447   7.606  2.8227  0.0177 -1.0565
  100SAPS  C31010113   3.387   3.307   7.738  0.1571  0.4104 -0.0347
  100SAPS  H10X10114   3.482   3.362   7.721 -0.2017  0.4357 -2.1228
  100SAPS  H10Y10115   3.413   3.200   7.742 -1.1671  0.0316 -1.0764
  100SAPS  C31110116   3.315   3.351   7.861 -0.3606  0.4824  0.2680
  100SAPS  H11X10117   3.208   3.321   7.869  0.0321 -1.3146 -1.2461
  100SAPS  H11Y10118   3.318   3.462   7.875  0.5647  0.3319  1.3247
  100SAPS  C31210119   3.378   3.284   7.984 -0.1460 -0.8535 -0.8344
  100SAPS  H12X10120   3.486   3.312   7.987 -0.0725 -1.2630  0.8205
  100SAPS  H12Y10121   3.373   3.175   7.962  0.3262 -0.9093 -0.6699
  100SAPS  C31310122   3.304   3.316   8.111  0.7433  0.6166  0.1479
  100SAPS  H13X10123   3.306   3.216   8.161  0.1554  1.7373  2.4610
  100SAPS  H13Y10124   3.200   3.341   8.080  0.8231  1.6493  0.7002
  100SAPS  C31410125   3.363   3.431   8.196 -0.6629  0.3661 -0.4150
  100SAPS  H14X10126   3.383   3.525   8.141  1.0204 -0.3961 -1.1466
  100SAPS  H14Y10127   3.460   3.390   8.231 -0.7403  0.2512 -0.3343
  100SAPS  C31510128   3.271   3.456   8.311  0.1559 -0.4185  0.4152
  100SAPS  H15X10129   3.231   3.359   8.349 -2.4666  0.1498 -0.7723
  100SAPS  H15Y10130   3.181   3.509   8.273  0.2579  0.2945  1.1759
  100SAPS  C31610131   3.333   3.540   8.430  0.0282  0.1172 -0.5305
  100SAPS  H16X10132   3.251   3.552   8.505  0.3140  0.0872 -0.2111
  100SAPS  H16Y10133   3.375   3.635   8.392  1.1900 -0.1560  0.0527
  100SAPS  C31710134   3.451   3.474   8.506 -0.0493 -0.3019  0.4067
  100SAPS  H17X10135   3.481   3.550   8.582  0.5319 -0.2024  0.0797
  100SAPS  H17Y10136   3.541   3.464   8.442 -0.0288  1.8352  0.0383
  100SAPS  C31810137   3.419   3.341   8.571  0.4889  0.8382  0.0070
  100SAPS  H18X10138   3.429   3.263   8.493  2.1861  1.3138 -0.2621
  100SAPS  H18Y10139   3.319   3.329   8.618  0.7404 -1.0640  0.0966
  100SAPS  H18Z10140   3.485   3.315   8.656  1.1474  1.9240 -0.1566
  101OSM      N10141   1.992   3.006  10.696 -0.7765  0.1527 -0.2135
  101OSM    C1510142   2.035   2.861  10.681 -0.4201  0.4440 -0.5649
  101OSM   H15A10143   1.966   2.792  10.636 -0.4298  0.6483 -0.8647
  101OSM   H15B10144   2.060   2.814  10.775 -1.4429 -3.8035 -2.2974
  101OSM   H15C10145   2.129   2.857  10.629  0.3407 -3.8935  0.9305
  101OSM    C1410146   1.880   3.007  10.798  0.3276  0.8300 -0.0356
  101OSM   H14A10147   1.913   2.977  10.896  3.7378 -1.4985 -1.8248
  101OSM   H14B10148   1.803   2.940  10.762  0.2912  0.8481  0.0076
  101OSM   H14C10149   1.829   3.102  10.810 -2.1447 -0.3118 -1.0607
  101OSM    C1310150   2.109   3.084  10.742 -0.4646  0.0037  0.1532
  101OSM   H13A10151   2.192   3.070  10.675 -1.6946 -1.1030 -1.1726
  101OSM   H13B10152   2.133   3.061  10.845 -0.0008 -1.8843 -0.3585
  101OSM   H13C10153   2.090   3.190  10.742 -1.9517 -0.2150 -2.4817
  101OSM    C1210154   1.943   3.059  10.566  0.5843 -0.0424 -0.0259
  101OSM   H12A10155   1.861   3.001  10.527 -0.1628  1.0101 -0.0470
  101OSM   H12B10156   2.025   3.036  10.498  1.9361 -1.3951  1.9868
  101OSM    C1110157   1.912   3.213  10.557  0.0334 -0.0404  0.1053
  101OSM   H11A10158   1.880   3.236  10.453  0.9577 -1.3266 -0.4855
  101OSM   H11B10159   2.006   3.269  10.579  0.3731 -0.5278 -0.0944
  101OSM      P10160   1.791   3.393  10.708  0.0053 -0.2016  0.1651
  101OSM    O1310161   1.659   3.405  10.768 -0.2344  0.8136 -0.7465
  101OSM    O1410162   1.908   3.429  10.790  0.6874  0.3024 -0.2089
  101OSM    O1110163   1.799   3.475  10.569 -0.0416  0.8277 -0.6664
  101OSM    O1210164   1.812   3.252  10.652  0.1754  0.2171  0.5216
  101OSM    C1S10165   1.686   3.506  10.496  0.1640 -0.5759  0.4207
  101OSM    H1S10166   1.606   3.556  10.555 -0.3027  0.5506 -1.1306
  101OSM    H1T10167   1.641   3.414  10.453  2.0627 -2.0516  1.5105
  101OSM     NF10168   1.595   3.632  10.290  0.5390 -0.1576  0.2497
  101OSM    HNF10169   1.558   3.567  10.224  2.5602  1.1642 -2.2678
  101OSM    C2S10170   1.715   3.588  10.361 -0.3326 -0.3997  0.0585
  101OSM    H2S10171   1.780   3.672  10.391 -0.4234 -0.0911 -0.6044
  101OSM    C3S10172   1.801   3.496  10.271 -1.0035 -0.2948 -0.1903
  101OSM    H3S10173   1.754   3.396  10.278 -1.1142 -0.1752  0.8186
  101OSM     O310174   1.928   3.487  10.330 -0.1427 -0.0159  0.4356
  101OSM    HO310175   1.912   3.496  10.424 -0.3864 -1.9095  0.5915
  101OSM    C4S10176   1.823   3.542  10.126  0.6368 -0.2794 -0.4133
  101OSM    H4S10177   1.822   3.652  10.124  0.9344 -0.2411  0.8221
  101OSM    C5S10178   1.836   3.469  10.019 -0.4283  0.1729 -0.3344
  101OSM    H5S10179   1.817   3.361  10.022  0.4391  0.0128 -0.6527
  101OSM    C6S10180   1.856   3.511   9.873 -0.8950 -0.3087 -0.0697
  101OSM    H6S10181   1.786   3.453   9.809 -1.7669  0.1582  0.4438
  101OSM    H6T10182   1.959   3.480   9.847 -0.9695  0.2523 -1.0801
  101OSM    C7S10183   1.835   3.664   9.832 -0.2264  0.3241  0.1511
  101OSM    H7S10184   1.927   3.712   9.872  1.3568 -1.6930 -0.9078
  101OSM    H7T10185   1.737   3.704   9.864  0.8405  3.7184 -0.6233
  101OSM    C8S10186   1.843   3.680   9.680 -0.2478 -0.9902 -0.0375
  101OSM    H8S10187   1.926   3.619   9.640  0.7290 -0.7252  1.5518
  101OSM    H8T10188   1.859   3.785   9.648  1.8557 -1.1766  0.3826
  101OSM    C9S10189   1.716   3.649   9.602  0.4883  0.3244 -0.7257
  101OSM    H9S10190   1.649   3.724   9.649 -0.5201 -0.1125 -1.4375
  101OSM    H9T10191   1.674   3.551   9.635  0.9600  0.1795 -0.5458
  101OSM   C10S10192   1.718   3.674   9.451 -0.2169 -0.3424  0.6846
  101OSM   H10S10193   1.776   3.593   9.403  1.1900  0.8289  0.3724
  101OSM   H10T10194   1.781   3.765   9.438  1.4261 -1.3299  1.5401
  101OSM   C11S10195   1.575   3.689   9.402  0.5949 -0.5133 -0.1680
  101OSM   H11S10196   1.513   3.766   9.453  0.3469  0.0316 -1.2655
  101OSM   H11T10197   1.521   3.592   9.404  0.6357 -0.5420 -0.5732
  101OSM   C12S10198   1.570   3.740   9.256  0.6646  0.2778 -0.0729
  101OSM   H12S10199   1.610   3.664   9.186 -1.2805  0.5459 -1.5149
  101OSM   H12T10200   1.643   3.824   9.246  0.2310  0.6769  0.0990
  101OSM   C13S10201   1.433   3.778   9.205  0.9419 -0.1876 -1.0616
  101OSM   H13S10202   1.367   3.831   9.276 -0.9666 -1.5193 -1.7954
  101OSM   H13T10203   1.376   3.684   9.186 -1.9496  1.4944 -0.9619
  101OSM   C14S10204   1.424   3.878   9.086 -0.0942 -0.7368  0.3881
  101OSM   H14S10205   1.501   3.843   9.015 -0.6243 -1.5337  0.1988
  101OSM   H14T10206   1.452   3.981   9.118  2.6353 -1.1787 -0.5089
  101OSM   C15S10207   1.293   3.868   9.007 -0.0637  0.4834 -0.6046
  101OSM   H15S10208   1.212   3.891   9.079 -0.7498 -0.9608 -0.9066
  101OSM   H15T10209   1.263   3.765   8.978  0.4454  0.7360 -2.0974
  101OSM   C16S10210   1.292   3.961   8.889  0.7280 -0.3934 -0.0936
  101OSM   H16S10211   1.328   4.063   8.911 -1.2186  0.0073  1.2858
  101OSM   H16T10212   1.189   3.965   8.848  1.2905 -0.5975 -1.5893
  101OSM   C17S10213   1.379   3.909   8.775  0.6425 -0.6352 -0.0436
  101OSM   H17S10214   1.356   3.802   8.759  2.2022 -1.0894  0.6260
  101OSM   H17T10215   1.488   3.920   8.793  0.7510 -1.4150 -0.2131
  101OSM   C18S10216   1.345   3.994   8.645  0.1806  0.6131 -0.0412
  101OSM   H18S10217   1.413   3.962   8.563  0.8378  0.0213  0.7139
  101OSM   H18T10218   1.364   4.102   8.660  1.6772  0.5458 -1.2986
  101OSM   H18U10219   1.242   3.965   8.613  0.0322  1.0465  0.0509
  101OSM    C1F10220   1.517   3.730  10.335 -0.4678 -0.9556 -0.3972
  101OSM     OF10221   1.564   3.791  10.431  0.0570 -0.0797 -0.1893
  101OSM    C2F10222   1.376   3.745  10.277 -0.4757 -0.3737  0.0506
  101OSM    H2F10223   1.310   3.727  10.364  2.5045 -1.0591  2.2435
  101OSM    H2G10224   1.369   3.668  10.197  1.9819 -1.3227  0.6997
  101OSM    C3F10225   1.345   3.897  10.235 -0.4218 -1.3913 -0.1952
  101OSM    H3F10226   1.409   3.927  10.150  1.5113 -1.4230  1.2165
  101OSM    H3G10227   1.354   3.955  10.329 -1.6480 -2.0111  0.3245
  101OSM    C4F10228   1.191   3.901  10.208 -0.5097  0.0899 -0.4722
  101OSM    H4F10229   1.169   4.010  10.206  0.9336  0.4631  2.5386
  101OSM    H4G10230   1.141   3.846  10.290  0.7029  1.9890  1.6043
  101OSM    C5F10231   1.165   3.830  10.080 -0.0848  0.2167 -0.3001
  101OSM    H5F10232   1.185   3.721  10.080  0.4737  0.3128 -0.5528
  101OSM    H5G10233   1.230   3.885  10.008  1.0943 -0.1895  0.4372
  101OSM    C6F10234   1.025   3.840  10.027 -0.0863  0.9142  0.4835
  101OSM    H6F10235   0.994   3.943  10.055 -0.2211  0.1565  3.2368
  101OSM    H6G10236   0.955   3.762  10.064  0.1139  0.1851 -0.6578
  101OSM    C7F10237   1.026   3.819   9.877 -0.3563 -0.1615 -0.3544
  101OSM    H7F10238   1.066   3.722   9.842  1.9760  0.6995 -0.1784
  101OSM    H7G10239   1.098   3.887   9.826  2.1796 -1.9000  0.7718
  101OSM    C8F10240   0.888   3.844   9.814 -0.7224 -0.5090 -0.1861
  101OSM    H8F10241   0.848   3.942   9.846  0.9432 -0.8946  3.3489
  101OSM    H8G10242   0.823   3.763   9.853  1.2363 -1.0237  2.1305
  101OSM    C9F10243   0.907   3.836   9.665  0.3240  0.5233 -0.1013
  101OSM    H9F10244   0.987   3.767   9.633 -0.9632 -0.4824 -1.2038
  101OSM   C10F10245   0.842   3.893   9.560 -0.2199  0.1164  0.3154
  101OSM   H10F10246   0.865   3.860   9.458 -0.5275  0.1339  0.2416
  101OSM   C11F10247   0.730   3.983   9.578 -0.4367  0.2113  0.2567
  101OSM   H11F10248   0.748   4.071   9.513 -1.4036  0.9537  0.9666
  101OSM   H11G10249   0.707   4.015   9.682 -0.4548 -0.6089  0.5096
  101OSM   C12F10250   0.598   3.928   9.513 -0.2380 -0.3007  0.5108
  101OSM   H12F10251   0.528   4.008   9.546 -0.9874 -1.0057  0.6382
  101OSM   H12G10252   0.574   3.831   9.562 -1.3364  0.0623  0.7045
  101OSM   C13F10253   0.608   3.905   9.361  0.3214 -0.7616  0.0948
  101OSM   H13F10254   0.670   3.813   9.348 -0.5008 -1.0081 -2.4652
  101OSM   H13G10255   0.659   3.994   9.317  1.2371  0.4335  3.4480
  101OSM   C14F10256   0.469   3.895   9.288 -0.2559  0.0925 -0.3799
  101OSM   H14F10257   0.424   3.997   9.296  1.3743  0.8286 -0.3331
  101OSM   H14G10258   0.405   3.810   9.318 -0.0516  0.2619  0.5519
  101OSM   C15F10259   0.493   3.872   9.138 -0.2634 -0.4344  0.1340
  101OSM   H15F10260   0.526   3.770   9.110  0.1188 -0.0290 -0.9212
  101OSM   H15G10261   0.576   3.943   9.115 -0.1815 -0.8327 -0.7894
  101OSM   C16F10262   0.378   3.918   9.056 -0.0753  0.0207 -0.1468
  101OSM   H16F10263   0.364   4.027   9.075  0.5387  0.1975 -0.7190
  101OSM   H16G10264   0.282   3.868   9.084 -0.1761  0.8203  0.9780
  101OSM   C17F10265   0.402   3.902   8.901 -0.5532 -0.4498 -0.5063
  101OSM   H17F10266   0.403   3.793   8.875  0.9922 -0.8667  1.2424
  101OSM   H17G10267   0.505   3.938   8.882 -1.9174  3.3541 -1.0066
  101OSM   C18F10268   0.295   3.976   8.808  0.7132  0.7815  0.4416
  101OSM   H18F10269   0.296   4.086   8.823 -0.2998  1.2371 -2.4205
  101OSM   H18G10270   0.192   3.936   8.816  1.3938 -0.6999  2.1278
  101OSM   H18H10271   0.324   3.965   8.701  1.9237  0.2243  0.8279
  102OSM      N10272   0.957   2.688  10.923 -0.2902  0.0379  0.3267
  102OSM    C1510273   0.946   2.800  11.016  0.2432 -0.0088  0.0668
  102OSM   H15A10274   0.861   2.792  11.082  1.0991 -0.1727  1.1574
  102OSM   H15B10275   0.941   2.895  10.966  0.8488 -0.7295 -1.4126
  102OSM   H15C10276   1.040   2.811  11.069 -0.4831  0.5457  1.2553
  102OSM    C1410277   0.997   2.566  11.002 -0.2329 -0.8643 -0.3145
  102OSM   H14A10278   0.975   2.582  11.107  0.6783 -1.0290 -0.0961
  102OSM   H14B10279   1.105   2.556  11.006 -0.2073 -0.7675 -0.8243
  102OSM   H14C10280   0.951   2.474  10.969 -2.9095 -0.3109  1.6495
  102OSM    C1310281   0.820   2.671  10.862 -0.2581 -0.0907 -0.4912
  102OSM   H13A10282   0.762   2.619  10.936  2.5994 -2.2689  0.2884
  102OSM   H13B10283   0.822   2.604  10.778  2.2282 -1.8050  0.9098
  102OSM   H13C10284   0.776   2.768  10.838 -2.7387 -1.6970 -2.8006
  102OSM    C1210285   1.051   2.712  10.805  0.2971  0.5497  0.4054
  102OSM   H12A10286   1.030   2.622  10.748 -1.1558  0.0442  1.6877
  102OSM   H12B10287   1.151   2.702  10.845  0.6414 -0.1093 -0.6012
  102OSM    C1110288   1.037   2.837  10.718 -0.1958 -0.2733 -0.0901
  102OSM   H11A10289   0.933   2.831  10.678 -0.3124 -4.2881  0.6098
  102OSM   H11B10290   1.104   2.828  10.630  0.5784 -2.6750  0.7237
  102OSM      P10291   1.202   3.025  10.804  0.0793 -0.3806 -0.0740
  102OSM    O1310292   1.175   3.122  10.916 -0.8200  0.1593  0.6150
  102OSM    O1410293   1.295   2.918  10.834 -0.1193 -0.5182  0.0387
  102OSM    O1110294   1.234   3.116  10.681 -0.1350 -0.5453 -0.4333
  102OSM    O1210295   1.061   2.963  10.775  0.2799  0.5616  0.0052
  102OSM    C1S10296   1.141   3.167  10.586  0.1394  0.1491 -0.2796
  102OSM    H1S10297   1.119   3.274  10.603  1.9214  0.3475  0.8147
  102OSM    H1T10298   1.039   3.123  10.595  0.2656 -0.0095  0.4531
  102OSM     NF10299   1.086   3.180  10.348  0.3031  0.6750  0.6027
  102OSM    HNF10300   1.028   3.109  10.308 -0.4305  2.5263 -1.6964
  102OSM    C2S10301   1.180   3.130  10.441 -0.3511  0.6474 -0.5132
  102OSM    H2S10302   1.273   3.190  10.427 -0.7719  0.9674 -1.9578
  102OSM    C3S10303   1.220   2.983  10.411 -0.7130  0.1370  0.2904
  102OSM    H3S10304   1.145   2.906  10.442 -0.8826  0.7312  1.4017
  102OSM     O310305   1.339   2.947  10.487 -0.1940 -0.2780 -0.2337
  102OSM    HO310306   1.360   3.018  10.549 -0.9296 -0.0756 -0.2054
  102OSM    C4S10307   1.257   2.956  10.269 -0.0694 -1.0176  0.0682
  102OSM    H4S10308   1.175   2.902  10.220  0.1360 -1.3181  0.0579
  102OSM    C5S10309   1.357   3.007  10.191  1.0481  0.1884 -0.2183
  102OSM    H5S10310   1.437   3.068  10.234 -1.2771  2.8381  0.4990
  102OSM    C6S10311   1.375   2.980  10.040  0.8285  0.0846  0.0375
  102OSM    H6S10312   1.445   2.894  10.030 -1.7892 -1.9138 -1.5925
  102OSM    H6T10313   1.424   3.068   9.994  0.1184 -0.0798 -1.0399
  102OSM    C7S10314   1.251   2.958   9.959 -0.2554 -0.3300 -0.2111
  102OSM    H7S10315   1.197   3.055   9.951  2.4116  1.1467 -0.8618
  102OSM    H7T10316   1.178   2.880   9.988 -3.1494  2.7029  1.0796
  102OSM    C8S10317   1.288   2.944   9.816 -0.2461  0.5696  0.4740
  102OSM    H8S10318   1.329   2.842   9.799 -1.9138  0.1525 -1.2407
  102OSM    H8T10319   1.366   3.017   9.785  0.4294 -0.5097 -0.4078
  102OSM    C9S10320   1.171   2.965   9.727  0.0983 -0.2249  0.3467
  102OSM    H9S10321   1.125   3.062   9.754  0.1214  0.6801 -2.6685
  102OSM    H9T10322   1.094   2.888   9.748 -0.8215  0.4378 -0.5209
  102OSM   C10S10323   1.217   2.949   9.577  0.3455 -0.0692  0.2943
  102OSM   H10S10324   1.272   2.852   9.570  1.4064  0.5666 -0.3815
  102OSM   H10T10325   1.279   3.040   9.564 -1.4992  0.9186 -1.6934
  102OSM   C11S10326   1.106   2.953   9.473  0.6956  0.0523  0.2130
  102OSM   H11S10327   1.032   3.022   9.519  0.2940 -1.3232  1.6817
  102OSM   H11T10328   1.056   2.854   9.470 -0.9487  0.9094 -1.9233
  102OSM   C12S10329   1.160   2.994   9.332  0.9638 -0.6865 -0.6455
  102OSM   H12S10330   1.242   2.922   9.307  1.7087  0.0913 -0.4559
  102OSM   H12T10331   1.208   3.093   9.319  0.9178 -0.8518 -2.1931
  102OSM   C13S10332   1.059   2.994   9.218 -0.5188  0.3570 -0.7449
  102OSM   H13S10333   0.986   3.076   9.237 -1.8358 -0.0902 -3.5697
  102OSM   H13T10334   1.003   2.898   9.229 -1.3832  0.8948 -0.3191
  102OSM   C14S10335   1.110   2.990   9.069 -0.2357 -0.1653 -0.8606
  102OSM   H14S10336   1.183   2.907   9.055  0.8224  0.8245 -1.3388
  102OSM   H14T10337   1.165   3.083   9.042  3.1791 -0.6111  3.9215
  102OSM   C15S10338   0.995   2.972   8.970 -0.3674 -0.3343 -0.3800
  102OSM   H15S10339   0.917   3.052   8.973 -1.3764 -1.2903 -0.9343
  102OSM   H15T10340   0.942   2.879   9.002  1.1133 -0.4139  1.9577
  102OSM   C16S10341   1.038   2.961   8.819  0.8034  0.2921 -0.9173
  102OSM   H16S10342   1.106   2.874   8.829 -0.6456 -0.7062  0.4758
  102OSM   H16T10343   1.091   3.056   8.796  1.2899  0.5513  1.1425
  102OSM   C17S10344   0.929   2.936   8.719  0.3402  0.2646 -0.0371
  102OSM   H17S10345   0.870   3.029   8.709 -0.2476 -0.2515 -1.3973
  102OSM   H17T10346   0.854   2.866   8.762 -2.2777  0.8396 -3.5361
  102OSM   C18S10347   0.985   2.866   8.594 -1.0323  0.3218 -0.4872
  102OSM   H18S10348   1.046   2.777   8.622  0.3691  1.6539  0.7435
  102OSM   H18T10349   1.047   2.936   8.534  0.5483  0.3393  1.1241
  102OSM   H18U10350   0.905   2.837   8.523 -1.4066  0.3542 -0.0844
  102OSM    C1F10351   1.069   3.313  10.325  0.1436  0.1085 -0.6208
  102OSM     OF10352   1.139   3.396  10.381 -0.2654  0.2859  1.0528
  102OSM    C2F10353   0.957   3.351  10.238  0.3145  0.0998 -0.6152
  102OSM    H2F10354   0.870   3.335  10.305  0.6071  2.7874  0.4732
  102OSM    H2G10355   0.954   3.280  10.153 -0.4428 -1.1030  0.3967
  102OSM    C3F10356   0.930   3.497  10.193  0.6051 -1.2654 -0.6883
  102OSM    H3F10357   1.009   3.520  10.118  2.3659  1.8945  2.0021
  102OSM    H3G10358   0.932   3.571  10.275 -2.1719 -0.6715 -1.0989
  102OSM    C4F10359   0.794   3.526  10.130 -0.7586 -0.0038  0.0910
  102OSM    H4F10360   0.781   3.636  10.130 -1.1786 -0.0484  1.3148
  102OSM    H4G10361   0.720   3.484  10.202  0.0946 -1.3302  0.2141
  102OSM    C5F10362   0.772   3.493   9.981 -0.3267  0.3979 -0.7156
  102OSM    H5F10363   0.817   3.393   9.967  1.5844  0.6890  2.6848
  102OSM    H5G10364   0.833   3.565   9.922  0.5014 -0.4782 -0.9302
  102OSM    C6F10365   0.637   3.527   9.944  0.2355 -0.6186  0.0769
  102OSM    H6F10366   0.604   3.631   9.960  0.5722 -0.5881  0.5853
  102OSM    H6G10367   0.570   3.485  10.022 -1.1383 -0.5858 -1.0805
  102OSM    C7F10368   0.605   3.475   9.809 -1.3713  0.3646 -0.5390
  102OSM    H7F10369   0.571   3.369   9.810 -0.7679  0.1606  1.6544
  102OSM    H7G10370   0.698   3.479   9.749  0.5027  3.5774  2.3757
  102OSM    C8F10371   0.519   3.573   9.719  0.2883 -0.1322 -0.4970
  102OSM    H8F10372   0.558   3.549   9.618  0.4962 -0.4412 -0.3443
  102OSM    H8G10373   0.553   3.676   9.742 -0.1957  0.0123 -0.4243
  102OSM    C9F10374   0.371   3.568   9.731  0.7240  0.1016 -0.2475
  102OSM    H9F10375   0.319   3.625   9.810  0.9160  1.0149 -0.7738
  102OSM   C10F10376   0.298   3.494   9.648 -0.1679  0.0585 -0.5578
  102OSM   H10F10377   0.189   3.484   9.653 -0.3312  1.6812 -0.6310
  102OSM   C11F10378   0.357   3.412   9.526 -0.6468  0.1008  0.4268
  102OSM   H11F10379   0.298   3.322   9.500  0.1978 -0.6485  1.1086
  102OSM   H11G10380   0.456   3.372   9.556 -0.1946  0.6347 -0.3230
  102OSM   C12F10381   0.378   3.487   9.403 -0.0829 -0.2283  0.2861
  102OSM   H12F10382   0.432   3.414   9.339  0.4822 -0.4820  1.0402
  102OSM   H12G10383   0.440   3.578   9.412  0.8357 -0.8700  0.5648
  102OSM   C13F10384   0.241   3.515   9.332 -0.3009  0.1446 -0.0941
  102OSM   H13F10385   0.207   3.615   9.367 -2.3815  0.2813 -2.3539
  102OSM   H13G10386   0.172   3.432   9.359 -0.2607 -0.2550 -1.1950
  102OSM   C14F10387   0.251   3.522   9.186 -0.3241 -0.3389 -0.1400
  102OSM   H14F10388   0.303   3.431   9.148  0.2745 -0.8549  1.8669
  102OSM   H14G10389   0.315   3.612   9.169  1.2922 -1.4364  0.0246
  102OSM   C15F10390   0.114   3.532   9.114  0.9113  0.2535 -0.1097
  102OSM   H15F10391   0.057   3.622   9.147  2.0182  1.0181 -0.2717
  102OSM   H15G10392   0.055   3.444   9.148  4.1516 -1.9353  0.0933
  102OSM   C16F10393   0.118   3.547   8.962 -0.2789  0.3629 -0.3240
  102OSM   H16F10394   0.170   3.458   8.919 -1.2189 -0.8852  1.0681
  102OSM   H16G10395   0.170   3.643   8.943  1.8768 -0.8312 -0.6920
  102OSM   C17F10396  -0.025   3.557   8.904 -0.1541 -0.1889  0.1483
  102OSM   H17F10397  -0.026   3.562   8.793 -0.1086 -3.5394 -0.0742
  102OSM   H17G10398  -0.065   3.654   8.940 -0.5147 -0.2195 -0.1586
  102OSM   C18F10399  -0.128   3.455   8.932 -0.3298 -0.3310  0.7999
  102OSM   H18F10400  -0.079   3.358   8.911  1.2358  0.3274  1.3152
  102OSM   H18G10401  -0.214   3.464   8.861  0.5540 -0.4337 -0.2950
  102OSM   H18H10402  -0.162   3.469   9.037 -0.4243 -1.1394  0.8783
  103OSM      N10403   2.111   5.221  10.925 -0.1181  0.6538  0.1907
  103OSM    C1510404   1.992   5.262  10.838  0.3295  0.5884 -1.1012
  103OSM   H15A10405   2.006   5.359  10.793  1.6993  0.7930 -0.2551
  103OSM   H15B10406   1.902   5.263  10.899  1.4712 -0.6550  0.6461
  103OSM   H15C10407   1.983   5.193  10.756 -1.4258  0.5621 -0.9193
  103OSM    C1410408   2.117   5.310  11.040 -0.3801  0.6519  0.3831
  103OSM   H14A10409   2.211   5.308  11.092  0.2506  1.6122 -0.6957
  103OSM   H14B10410   2.038   5.273  11.105 -0.1116 -0.3637  0.1425
  103OSM   H14C10411   2.098   5.414  11.021  1.9437  1.0611  0.2815
  103OSM    C1310412   2.086   5.084  10.973 -0.3671 -0.6461  0.6377
  103OSM   H13A10413   2.085   5.013  10.892 -1.6615  0.4195 -0.3046
  103OSM   H13B10414   1.999   5.062  11.034  0.2211  0.4081  1.8624
  103OSM   H13C10415   2.169   5.048  11.031 -1.3190 -1.1744  1.6873
  103OSM    C1210416   2.238   5.222  10.846 -0.5799 -0.4494 -0.0527
  103OSM   H12A10417   2.247   5.139  10.778  0.2250  1.4421 -2.3053
  103OSM   H12B10418   2.322   5.211  10.913 -0.2092 -2.4698 -0.8268
  103OSM    C1110419   2.262   5.350  10.762 -0.0736  0.6174 -0.1337
  103OSM   H11A10420   2.179   5.352  10.689  0.7305  0.4537 -1.0656
  103OSM   H11B10421   2.349   5.346  10.692  1.6302 -2.5216  2.0219
  103OSM      P10422   2.400   5.508  10.897  0.3952  0.0820  0.0690
  103OSM    O1310423   2.388   5.630  10.980  0.5153  0.4399  0.4414
  103OSM    O1410424   2.467   5.395  10.963  0.3278  0.1750 -0.6479
  103OSM    O1110425   2.475   5.553  10.765 -0.2653 -0.0395 -0.3188
  103OSM    O1210426   2.259   5.469  10.838  0.1777  0.6562  0.0902
  103OSM    C1S10427   2.412   5.650  10.688  0.2380 -0.3620 -0.2614
  103OSM    H1S10428   2.414   5.752  10.733  1.8743 -0.7407  0.5619
  103OSM    H1T10429   2.302   5.636  10.682  0.2693 -0.1778 -1.2332
  103OSM     NF10430   2.363   5.745  10.471  0.4593 -0.1808 -0.2078
  103OSM    HNF10431   2.292   5.687  10.431 -1.1744  0.0791  2.1706
  103OSM    C2S10432   2.460   5.670  10.546  0.7039 -0.7075  0.3254
  103OSM    H2S10433   2.547   5.738  10.533  1.1597 -1.4420 -0.5423
  103OSM    C3S10434   2.508   5.538  10.469  0.1061 -0.4379 -0.8806
  103OSM    H3S10435   2.430   5.458  10.471 -0.0136 -0.2872  1.4002
  103OSM     O310436   2.612   5.476  10.538 -0.0047  0.1264  0.1452
  103OSM    HO310437   2.582   5.491  10.628  2.6791  1.0574  0.9236
  103OSM    C4S10438   2.536   5.562  10.323  0.3075  0.4301  0.0213
  103OSM    H4S10439   2.450   5.519  10.268  0.0393 -2.3764  2.5710
  103OSM    C5S10440   2.641   5.626  10.269  0.1081 -0.0994  0.0508
  103OSM    H5S10441   2.722   5.653  10.338  0.8963 -0.6788 -0.6402
  103OSM    C6S10442   2.664   5.657  10.128  0.4918  0.5615 -0.0991
  103OSM    H6S10443   2.771   5.683  10.113  1.3822 -0.5981  3.7022
  103OSM    H6T10444   2.603   5.747  10.104 -0.1661  0.5190  1.3419
  103OSM    C7S10445   2.636   5.547  10.033  0.3667  0.3532  0.0268
  103OSM    H7S10446   2.528   5.525  10.022  0.4705  0.1121 -0.4831
  103OSM    H7T10447   2.685   5.451  10.058 -1.0795 -0.5227 -0.4253
  103OSM    C8S10448   2.697   5.584   9.898  0.1312 -0.0804  0.0076
  103OSM    H8S10449   2.808   5.589   9.903  0.0677  2.2054 -0.2911
  103OSM    H8T10450   2.668   5.686   9.864  1.8047  0.3077 -0.2991
  103OSM    C9S10451   2.663   5.479   9.791  0.1472  0.4759 -0.3060
  103OSM    H9S10452   2.560   5.447   9.817 -0.6809  2.6616 -0.8187
  103OSM    H9T10453   2.727   5.388   9.800 -0.8774 -0.3035 -0.8034
  103OSM   C10S10454   2.674   5.540   9.654  0.1675 -0.3043  0.5513
  103OSM   H10S10455   2.745   5.624   9.638 -0.6173  0.2858  0.1125
  103OSM   H10T10456   2.572   5.581   9.640 -0.2312 -0.0115  3.7803
  103OSM   C11S10457   2.688   5.438   9.540 -0.1711  0.5844  0.2855
  103OSM   H11S10458   2.604   5.366   9.541  0.0617  0.3144  1.4757
  103OSM   H11T10459   2.784   5.385   9.558  0.3494  0.9466 -1.3934
  103OSM   C12S10460   2.697   5.503   9.401  0.1207  0.0194  0.1703
  103OSM   H12S10461   2.684   5.421   9.327 -0.5311 -1.3097  1.7202
  103OSM   H12T10462   2.795   5.554   9.391 -0.5480  1.7633  2.1469
  103OSM   C13S10463   2.584   5.612   9.382 -0.5154  0.2254 -0.4319
  103OSM   H13S10464   2.602   5.700   9.448 -1.0060  1.2635 -1.6644
  103OSM   H13T10465   2.482   5.575   9.405 -0.1701  1.0320  2.5728
  103OSM   C14S10466   2.584   5.652   9.235 -0.2160 -0.9039 -0.2183
  103OSM   H14S10467   2.481   5.689   9.218 -0.6042 -2.0610 -0.4723
  103OSM   H14T10468   2.597   5.562   9.171 -0.1440  0.4618 -2.1571
  103OSM   C15S10469   2.698   5.746   9.188  0.6498 -0.1913 -0.1862
  103OSM   H15S10470   2.803   5.710   9.195  0.6425 -1.0130 -3.6479
  103OSM   H15T10471   2.690   5.837   9.250 -0.9387 -1.0674  0.9404
  103OSM   C16S10472   2.661   5.776   9.040 -0.3951 -0.3241  0.1346
  103OSM   H16S10473   2.551   5.784   9.032 -0.5939  0.0452  2.6861
  103OSM   H16T10474   2.676   5.690   8.972  1.2184  0.2156 -0.2111
  103OSM   C17S10475   2.728   5.895   8.970  0.7503 -0.6274 -0.0452
  103OSM   H17S10476   2.677   5.922   8.875  1.3716  1.9384  0.3067
  103OSM   H17T10477   2.827   5.852   8.945  2.5715  0.8267  4.1571
  103OSM   C18S10478   2.751   6.027   9.052 -0.7781  0.8334 -0.2656
  103OSM   H18S10479   2.655   6.081   9.067 -1.2370  0.6026 -2.1938
  103OSM   H18T10480   2.823   6.087   8.992  0.3471 -0.6470 -0.4131
  103OSM   H18U10481   2.798   6.014   9.152  0.7185 -2.1526 -1.2800
  103OSM    C1F10482   2.348   5.879  10.463 -1.0975 -0.3292  0.2062
  103OSM     OF10483   2.435   5.962  10.499  1.0454  0.0270  0.2558
  103OSM    C2F10484   2.225   5.925  10.390 -0.2840 -0.5848 -0.1046
  103OSM    H2F10485   2.141   5.917  10.464 -1.3595 -0.0063 -1.2430
  103OSM    H2G10486   2.206   5.860  10.302 -1.4382  0.0179 -0.3210
  103OSM    C3F10487   2.231   6.069  10.334 -0.3618  0.3967  0.5586
  103OSM    H3F10488   2.305   6.071  10.252  2.9655  2.5216  3.4385
  103OSM    H3G10489   2.254   6.146  10.412 -1.3886  0.1897  1.0696
  103OSM    C4F10490   2.094   6.114  10.275  0.0513  0.4298  0.2075
  103OSM    H4F10491   2.030   6.159  10.354 -0.3481 -0.7102  0.5340
  103OSM    H4G10492   2.032   6.030  10.237 -0.2464 -0.0304  1.6838
  103OSM    C5F10493   2.108   6.216  10.159  0.3581 -0.7719  0.1072
  103OSM    H5F10494   2.197   6.277  10.185  2.4368 -3.0906 -1.2820
  103OSM    H5G10495   2.011   6.271  10.163  2.1777  2.6406 -0.7710
  103OSM    C6F10496   2.125   6.153  10.021  0.0082  0.4414 -0.0761
  103OSM    H6F10497   2.056   6.072   9.991 -0.7892  1.2345 -0.4233
  103OSM    H6G10498   2.231   6.119  10.021  0.6337  2.3225 -0.3435
  103OSM    C7F10499   2.113   6.268   9.907 -0.5184 -0.5027  0.2938
  103OSM    H7F10500   2.191   6.228   9.839  2.8391  1.9592  2.5523
  103OSM    H7G10501   2.150   6.361   9.953  3.5264 -1.4245 -0.8970
  103OSM    C8F10502   1.972   6.264   9.834 -0.1376 -0.7834 -0.6892
  103OSM    H8F10503   1.967   6.363   9.785  1.3199 -1.0956 -1.5065
  103OSM    H8G10504   1.893   6.261   9.912  2.7367  1.6246  2.5291
  103OSM    C9F10505   1.941   6.151   9.740  0.4095 -0.0387 -0.2807
  103OSM    H9F10506   1.944   6.051   9.788  1.2493  0.0438 -0.1609
  103OSM   C10F10507   1.906   6.162   9.613  0.3481 -0.7759  0.2136
  103OSM   H10F10508   1.885   6.064   9.566  0.3528  0.4813 -2.5179
  103OSM   C11F10509   1.890   6.289   9.525  0.2066  0.2198 -0.2206
  103OSM   H11F10510   1.912   6.383   9.581 -2.4812  0.8820 -0.1773
  103OSM   H11G10511   1.786   6.304   9.489  0.1937 -4.0120 -2.1316
  103OSM   C12F10512   1.983   6.280   9.404  0.1927  0.3525  0.8948
  103OSM   H12F10513   2.080   6.239   9.437  0.4983  0.1092 -0.2981
  103OSM   H12G10514   2.005   6.385   9.377  0.3395  0.1661  0.2905
  103OSM   C13F10515   1.934   6.212   9.273  0.2785  0.0380  0.3859
  103OSM   H13F10516   1.920   6.105   9.296 -1.6431  0.5037  1.5681
  103OSM   H13G10517   1.837   6.262   9.251  0.2939  0.4502  1.2219
  103OSM   C14F10518   2.029   6.233   9.153  0.1819 -0.6162 -0.2030
  103OSM   H14F10519   2.123   6.176   9.163  0.1376 -0.6842 -0.1651
  103OSM   H14G10520   2.054   6.341   9.149 -2.3180  0.0426  0.7781
  103OSM   C15F10521   1.966   6.201   9.018 -0.2847 -0.7377  0.6727
  103OSM   H15F10522   1.876   6.262   9.000  0.8145  0.3646 -1.2632
  103OSM   H15G10523   1.932   6.096   9.007  2.8289 -1.9947  2.2449
  103OSM   C16F10524   2.064   6.205   8.896  0.0744 -0.2114 -0.9144
  103OSM   H16F10525   2.106   6.102   8.896 -2.1481 -1.1556 -0.3158
  103OSM   H16G10526   2.138   6.287   8.902  1.7321 -1.8593  2.7608
  103OSM   C17F10527   2.001   6.207   8.759  0.1726 -0.0299 -0.5587
  103OSM   H17F10528   1.918   6.134   8.766 -1.4011  1.6288 -1.6035
  103OSM   H17G10529   2.068   6.170   8.678 -0.7915 -0.8115 -1.0101
  103OSM   C18F10530   1.949   6.351   8.730 -0.4190  0.2484 -0.6998
  103OSM   H18F10531   1.937   6.366   8.620 -1.4025  0.7907 -0.5196
  103OSM   H18G10532   2.017   6.428   8.772 -1.1718 -0.3887  1.7239
  103OSM   H18H10533   1.852   6.362   8.783  0.5964 -2.9059  1.9748
  104OSM      N10534   0.050   5.517  10.719 -0.1723  0.4531  0.1205
  104OSM    C1510535   0.159   5.603  10.773  0.4149 -0.0644 -0.3209
  104OSM   H15A10536   0.196   5.685  10.714  1.7798 -0.8220 -0.5379
  104OSM   H15B10537   0.245   5.541  10.793  0.4961 -0.3023 -1.3822
  104OSM   H15C10538   0.134   5.638  10.872  1.4482  0.4759 -0.2521
  104OSM    C1410539   0.008   5.425  10.836 -0.4313 -0.3361 -0.2603
  104OSM   H14A10540  -0.038   5.481  10.916  0.2158 -1.7485  1.1432
  104OSM   H14B10541   0.102   5.383  10.869 -1.0130  0.9617  3.2690
  104OSM   H14C10542  -0.067   5.356  10.800 -2.9440  2.2978 -0.1953
  104OSM    C1310543  -0.077   5.593  10.697 -0.4372 -0.1162 -0.1238
  104OSM   H13A10544  -0.083   5.659  10.611 -1.7569  1.0351  0.8329
  104OSM   H13B10545  -0.106   5.663  10.774 -3.2580 -0.3362 -0.9495
  104OSM   H13C10546  -0.163   5.528  10.697  0.5341 -1.6919  5.3312
  104OSM    C1210547   0.080   5.440  10.590  0.1824  0.4747 -0.1583
  104OSM   H12A10548   0.163   5.374  10.611 -2.6136 -2.9016  0.8087
  104OSM   H12B10549   0.100   5.503  10.505 -0.4349 -0.7639 -1.2426
  104OSM    C1110550  -0.034   5.344  10.546  0.1684 -0.5958 -0.1166
  104OSM   H11A10551  -0.014   5.323  10.439  3.6740  1.7690 -0.0458
  104OSM   H11B10552  -0.130   5.400  10.550  0.2187 -0.5476  0.5199
  104OSM      P10553  -0.129   5.113  10.609 -0.2425 -0.5407  0.0692
  104OSM    O1310554  -0.050   4.992  10.569 -0.3228  0.1468  0.0226
  104OSM    O1410555  -0.218   5.100  10.726 -0.3875  0.3340 -0.1772
  104OSM    O1110556  -0.226   5.150  10.483 -0.1139  0.0049  0.7474
  104OSM    O1210557  -0.040   5.233  10.630  0.2554 -0.1647 -0.0913
  104OSM    C1S10558  -0.346   5.221  10.506  0.0210 -0.0463 -0.0308
  104OSM    H1S10559  -0.323   5.304  10.576  1.7972 -2.2359  2.0784
  104OSM    H1T10560  -0.432   5.160  10.543 -0.5949  1.5891  1.2962
  104OSM     NF10561  -0.505   5.381  10.411 -0.0763  0.0071 -0.2263
  104OSM    HNF10562  -0.597   5.347  10.392  0.8081 -1.2342 -2.5125
  104OSM    C2S10563  -0.400   5.288  10.377  0.0857 -0.5995 -0.2666
  104OSM    H2S10564  -0.317   5.347  10.333  0.2769  1.5291  2.8644
  104OSM    C3S10565  -0.432   5.184  10.267  0.9410  0.3762  0.4093
  104OSM    H3S10566  -0.527   5.132  10.290 -0.0331  0.7885 -2.5378
  104OSM     O310567  -0.334   5.078  10.258 -0.2500  0.3638  0.7503
  104OSM    HO310568  -0.278   5.112  10.328  0.6327 -0.1950  0.3289
  104OSM    C4S10569  -0.455   5.250  10.139 -0.8179  1.0974 -0.7479
  104OSM    H4S10570  -0.562   5.264  10.119 -1.3506 -0.8841  0.6485
  104OSM    C5S10571  -0.365   5.305  10.051  0.4013 -0.5608  0.5448
  104OSM    H5S10572  -0.257   5.285  10.065  0.7990  0.1974 -1.2701
  104OSM    C6S10573  -0.399   5.388   9.921  0.0171 -0.5806 -0.5451
  104OSM    H6S10574  -0.336   5.343   9.841 -0.6259 -0.9541 -0.8519
  104OSM    H6T10575  -0.374   5.495   9.929  0.4951 -0.4838 -2.9669
  104OSM    C7S10576  -0.545   5.374   9.872 -0.3509 -0.6785 -0.0206
  104OSM    H7S10577  -0.623   5.398   9.948  0.1679  1.9651 -0.2787
  104OSM    H7T10578  -0.555   5.276   9.819 -0.9301 -1.1204  0.8841
  104OSM    C8S10579  -0.585   5.465   9.745 -0.4872  0.6374  0.1896
  104OSM    H8S10580  -0.541   5.566   9.754  0.3368  0.2803  0.2293
  104OSM    H8T10581  -0.696   5.473   9.737 -0.4555 -0.6057 -1.8681
  104OSM    C9S10582  -0.531   5.414   9.608 -0.9570 -0.8877 -0.5035
  104OSM    H9S10583  -0.563   5.308   9.597 -0.6457 -0.9683 -0.6547
  104OSM    H9T10584  -0.421   5.397   9.602 -0.8293  0.0066 -0.7712
  104OSM   C10S10585  -0.578   5.503   9.489 -0.7906  0.4967 -0.3220
  104OSM   H10S10586  -0.551   5.610   9.503  0.9274  0.1666 -0.9514
  104OSM   H10T10587  -0.689   5.503   9.480 -0.8771  1.0839  0.6429
  104OSM   C11S10588  -0.534   5.458   9.352  0.4674 -0.3828 -0.4462
  104OSM   H11S10589  -0.424   5.475   9.350  0.9962 -3.5174 -0.1325
  104OSM   H11T10590  -0.576   5.527   9.276 -1.9587  0.3763  1.5081
  104OSM   C12S10591  -0.573   5.306   9.331  0.7048 -0.4627  0.1447
  104OSM   H12S10592  -0.677   5.277   9.357  1.0106 -0.2454  1.6984
  104OSM   H12T10593  -0.510   5.249   9.404  2.4201  1.6973  0.4231
  104OSM   C13S10594  -0.524   5.254   9.190 -0.6397  0.1714  0.5450
  104OSM   H13S10595  -0.413   5.263   9.187 -0.6513 -0.1429 -1.5815
  104OSM   H13T10596  -0.560   5.322   9.110  2.3593  3.5498  1.9329
  104OSM   C14S10597  -0.568   5.112   9.169 -0.0199  0.2059 -0.6164
  104OSM   H14S10598  -0.678   5.101   9.170 -0.1497  1.2839  1.7972
  104OSM   H14T10599  -0.534   5.046   9.251  2.9151  2.9517  0.4871
  104OSM   C15S10600  -0.509   5.046   9.039 -0.6178 -0.4744 -0.0625
  104OSM   H15S10601  -0.562   4.948   9.038  0.6849 -1.1970 -1.4436
  104OSM   H15T10602  -0.402   5.016   9.047 -0.7277 -1.3492 -1.6592
  104OSM   C16S10603  -0.543   5.126   8.911  0.4323 -0.6078  0.8626
  104OSM   H16S10604  -0.515   5.232   8.927 -1.5996  0.1239 -0.2350
  104OSM   H16T10605  -0.652   5.130   8.887  1.2076  2.5140 -2.7059
  104OSM   C17S10606  -0.462   5.064   8.793  0.2900 -1.1122 -0.0104
  104OSM   H17S10607  -0.352   5.066   8.810  0.3257  3.5825 -0.2333
  104OSM   H17T10608  -0.480   5.137   8.711  0.6007  0.4626  1.2983
  104OSM   C18S10609  -0.488   4.915   8.753  0.3755  0.4289 -0.3132
  104OSM   H18S10610  -0.403   4.866   8.702 -0.5291  0.8211 -2.2608
  104OSM   H18T10611  -0.574   4.920   8.682 -0.1154  0.4098  0.2751
  104OSM   H18U10612  -0.513   4.859   8.845  0.6003 -1.8669 -1.6139
  104OSM    C1F10613  -0.482   5.502  10.467 -0.1765  0.2594  0.1571
  104OSM     OF10614  -0.375   5.541  10.510  0.5756  0.1335  0.2160
  104OSM    C2F10615  -0.607   5.580  10.476 -0.5741  0.0725  0.5233
  104OSM    H2F10616  -0.628   5.597  10.584 -0.1246 -0.2369  0.6598
  104OSM    H2G10617  -0.689   5.524  10.426 -0.2439 -0.9493  1.1180
  104OSM    C3F10618  -0.594   5.723  10.409  0.0626  0.0380  0.2956
  104OSM    H3F10619  -0.517   5.786  10.457 -0.8273  0.2755  1.4428
  104OSM    H3G10620  -0.689   5.775  10.435 -1.0065 -1.7976  0.2314
  104OSM    C4F10621  -0.565   5.723  10.257 -0.4662  0.6257  0.4198
  104OSM    H4F10622  -0.474   5.666  10.229  0.5759  1.8417  1.2605
  104OSM    H4G10623  -0.545   5.830  10.238 -1.6166  0.3398 -2.6769
  104OSM    C5F10624  -0.685   5.684  10.167 -0.4927  0.2227 -1.2038
  104OSM    H5F10625  -0.767   5.751  10.199  1.0317  1.0702  1.0948
  104OSM    H5G10626  -0.710   5.578  10.186 -0.5292  0.8072  2.2354
  104OSM    C6F10627  -0.671   5.686  10.010 -0.1838  0.7572 -0.8063
  104OSM    H6F10628  -0.752   5.618   9.977 -0.0511 -0.3494  1.0329
  104OSM    H6G10629  -0.572   5.645   9.979 -0.3403 -0.0275 -0.2756
  104OSM    C7F10630  -0.688   5.828   9.956 -0.1060 -0.4025  0.9063
  104OSM    H7F10631  -0.611   5.901   9.989 -1.5564  1.5602  0.0524
  104OSM    H7G10632  -0.778   5.872  10.003  0.3913  0.7561  0.7925
  104OSM    C8F10633  -0.704   5.816   9.803 -0.3317 -0.2567 -0.4969
  104OSM    H8F10634  -0.790   5.750   9.778 -3.5941  3.8245 -0.7509
  104OSM    H8G10635  -0.612   5.778   9.754 -1.0590 -0.1583 -1.9509
  104OSM    C9F10636  -0.738   5.952   9.760  0.4221 -0.0995 -0.2134
  104OSM    H9F10637  -0.657   6.023   9.784 -0.6928  0.4968  1.9095
  104OSM   C10F10638  -0.851   6.001   9.705 -0.3137  0.3897 -0.0802
  104OSM   H10F10639  -0.850   6.106   9.673 -0.6458  1.0630  2.0604
  104OSM   C11F10640  -0.964   5.911   9.656 -0.1331 -0.2826 -0.0191
  104OSM   H11F10641  -1.064   5.924   9.701 -1.0068 -3.6932 -0.8460
  104OSM   H11G10642  -0.945   5.805   9.681 -0.1925 -0.0591  0.9889
  104OSM   C12F10643  -0.998   5.917   9.501 -0.1212 -0.2850 -0.3377
  104OSM   H12F10644  -1.038   6.019   9.484  1.2555  0.3773  0.3003
  104OSM   H12G10645  -1.076   5.844   9.473 -0.6892  0.5678 -0.9831
  104OSM   C13F10646  -0.870   5.899   9.413  0.3856  0.3503  0.2669
  104OSM   H13F10647  -0.836   5.794   9.427 -2.2802 -0.6316 -0.2325
  104OSM   H13G10648  -0.796   5.977   9.440  0.7762  0.2518 -0.5013
  104OSM   C14F10649  -0.895   5.906   9.259  0.1496  0.4799 -0.5345
  104OSM   H14F10650  -0.959   5.822   9.227  0.8186 -0.7199  1.1853
  104OSM   H14G10651  -0.801   5.891   9.201  0.1994  1.1900 -0.6477
  104OSM   C15F10652  -0.943   6.043   9.209 -0.2368  0.3942  0.1725
  104OSM   H15F10653  -0.860   6.112   9.232  0.0762 -0.4989  1.7890
  104OSM   H15G10654  -1.039   6.076   9.254 -0.6722 -0.7410  0.1115
  104OSM   C16F10655  -0.956   6.045   9.057  0.1301  0.1315 -0.6387
  104OSM   H16F10656  -1.049   5.990   9.030  0.3188 -1.1120  1.1730
  104OSM   H16G10657  -0.869   5.987   9.019 -0.1895  0.2259 -1.5435
  104OSM   C17F10658  -0.933   6.179   8.991 -0.0471  0.2105 -0.7642
  104OSM   H17F10659  -0.827   6.211   9.003  0.0236 -0.8432  1.7395
  104OSM   H17G10660  -1.012   6.247   9.029 -0.0041  0.8888 -1.8811
  104OSM   C18F10661  -0.943   6.168   8.839  0.4905 -0.0482 -0.5102
  104OSM   H18F10662  -0.860   6.108   8.797 -0.3012 -0.0825 -2.0835
  104OSM   H18G10663  -0.951   6.272   8.801  0.5268  0.0744 -0.1766
  104OSM   H18H10664  -1.037   6.115   8.811 -0.8796  2.3400 -0.5717
  105OSM      N10665   6.110   4.246  10.963 -0.2539 -0.6761  0.4415
  105OSM    C1510666   6.088   4.353  11.063  0.5088 -0.3006  0.0183
  105OSM   H15A10667   6.177   4.396  11.107 -0.7448  1.6812  0.6837
  105OSM   H15B10668   6.042   4.311  11.152  0.2951 -0.8591 -0.3510
  105OSM   H15C10669   6.040   4.439  11.021 -3.0982 -1.2663  1.9228
  105OSM    C1410670   6.167   4.128  11.030 -0.1280 -0.2932  0.8677
  105OSM   H14A10671   6.245   4.142  11.103 -1.9612  0.7204  2.6759
  105OSM   H14B10672   6.197   4.064  10.948  1.2927  3.1305 -1.3724
  105OSM   H14C10673   6.085   4.081  11.082  0.3947 -0.2781  1.7259
  105OSM    C1310674   5.982   4.217  10.897 -0.0160  1.5112 -0.2292
  105OSM   H13A10675   5.918   4.169  10.969 -0.9934 -0.3577 -2.2831
  105OSM   H13B10676   5.988   4.152  10.811  0.5134  0.8466  0.3084
  105OSM   H13C10677   5.932   4.306  10.863 -0.1603  2.1502  1.5705
  105OSM    C1210678   6.217   4.285  10.856  0.3970 -0.2033 -0.5506
  105OSM   H12A10679   6.234   4.201  10.789 -0.6684  0.2367 -1.3932
  105OSM   H12B10680   6.309   4.306  10.908 -0.2714  0.1154  0.5241
  105OSM    C1110681   6.184   4.412  10.775  0.7932  0.0003  0.3234
  105OSM   H11A10682   6.083   4.409  10.729  0.6946 -0.1192  0.5478
  105OSM   H11B10683   6.251   4.415  10.686 -1.3868 -1.5156 -1.4231
  105OSM      P10684   6.317   4.635  10.837 -0.0261  0.2807  0.1161
  105OSM    O1310685   6.268   4.760  10.892  0.4040 -0.0241 -0.0263
  105OSM    O1410686   6.448   4.580  10.871 -0.0955 -1.0187  0.2995
  105OSM    O1110687   6.307   4.658  10.682  0.3452 -0.2317  0.0350
  105OSM    O1210688   6.197   4.530  10.848 -0.0729  0.5650  0.3639
  105OSM    C1S10689   6.394   4.750  10.618 -0.2913 -0.1139  0.4211
  105OSM    H1S10690   6.498   4.711  10.628 -0.6545 -0.9562  0.9843
  105OSM    H1T10691   6.387   4.856  10.648 -1.3815  0.3272 -1.3160
  105OSM     NF10692   6.492   4.817  10.393 -0.5894  0.0987  0.7381
  105OSM    HNF10693   6.484   4.912  10.362 -1.8550 -0.2437  0.0035
  105OSM    C2S10694   6.377   4.758  10.460  0.0062 -0.9291  0.8466
  105OSM    H2S10695   6.367   4.655  10.420  1.1405 -1.6363  2.2910
  105OSM    C3S10696   6.249   4.831  10.420 -0.6730 -0.0627 -0.2773
  105OSM    H3S10697   6.262   4.939  10.445  0.3284 -0.2553  0.0453
  105OSM     O310698   6.137   4.799  10.502 -0.8568  0.5905  0.0151
  105OSM    HO310699   6.179   4.758  10.578 -0.1078  0.7941 -0.2843
  105OSM    C4S10700   6.224   4.819  10.267 -0.8712  0.6293 -0.4359
  105OSM    H4S10701   6.276   4.902  10.216  0.7091  0.2945  0.6018
  105OSM    C5S10702   6.134   4.735  10.212 -0.1441 -0.8520  0.1747
  105OSM    H5S10703   6.081   4.655  10.267 -0.1520  0.5850  2.3494
  105OSM    C6S10704   6.116   4.746  10.064  0.3712  0.2245 -0.0787
  105OSM    H6S10705   6.009   4.730  10.040 -0.9475  1.7892  4.3905
  105OSM    H6T10706   6.179   4.672  10.009  1.3621 -1.6853  3.4264
  105OSM    C7S10707   6.150   4.879   9.999  0.7292  0.2773  0.3201
  105OSM    H7S10708   6.252   4.920  10.019  0.4606  1.1713 -0.1250
  105OSM    H7T10709   6.088   4.951  10.057  1.0431 -1.3468  2.7746
  105OSM    C8S10710   6.118   4.878   9.853  1.1441  0.0786 -0.9166
  105OSM    H8S10711   6.014   4.839   9.850  0.4665  1.9779 -3.3590
  105OSM    H8T10712   6.179   4.806   9.796  1.6887  0.5470 -0.9368
  105OSM    C9S10713   6.132   5.011   9.776 -0.1025 -0.0818  0.1754
  105OSM    H9S10714   6.241   5.027   9.760 -0.2588  2.0121  0.9696
  105OSM    H9T10715   6.098   5.088   9.849  1.8932  0.1920  0.8429
  105OSM   C10S10716   6.055   5.014   9.648  0.8520  0.0518  0.2469
  105OSM   H10S10717   6.102   5.103   9.602  1.5095 -0.8649 -0.8764
  105OSM   H10T10718   5.945   5.028   9.661  1.0406  2.2714 -0.4226
  105OSM   C11S10719   6.088   4.895   9.553 -0.3283  0.0933  0.4107
  105OSM   H11S10720   6.080   4.801   9.612 -2.1656 -1.6334 -2.5147
  105OSM   H11T10721   6.195   4.903   9.525 -0.7557  0.6526 -1.0725
  105OSM   C12S10722   6.002   4.880   9.427  0.0967  0.4000 -0.2703
  105OSM   H12S10723   6.025   4.971   9.367  0.4276  0.6521  0.2378
  105OSM   H12T10724   5.896   4.856   9.450  0.7128 -0.1680  2.0756
  105OSM   C13S10725   6.045   4.757   9.344 -0.0623  0.2454  0.7036
  105OSM   H13S10726   5.997   4.667   9.388 -0.4867  0.2362  0.2203
  105OSM   H13T10727   6.154   4.739   9.358 -0.0591 -0.0255  0.3275
  105OSM   C14S10728   6.015   4.773   9.200  0.2063 -0.2686  0.2218
  105OSM   H14S10729   6.057   4.861   9.148 -0.5385  0.0351  0.1198
  105OSM   H14T10730   5.906   4.790   9.189  0.4242  1.7324  0.9694
  105OSM   C15S10731   6.060   4.644   9.122  0.3494 -0.2358  0.8637
  105OSM   H15S10732   6.006   4.559   9.170 -0.0171 -1.4492 -1.6023
  105OSM   H15T10733   6.166   4.620   9.146  1.1974  0.7815 -1.7288
  105OSM   C16S10734   6.036   4.645   8.965 -0.0861  0.0815 -0.3008
  105OSM   H16S10735   6.078   4.547   8.932 -1.4037 -0.1826 -1.1924
  105OSM   H16T10736   6.080   4.736   8.920 -0.1519  0.0892 -0.3483
  105OSM   C17S10737   5.889   4.639   8.930  0.3555 -0.3611  0.4018
  105OSM   H17S10738   5.844   4.738   8.951  2.1020  0.4308  0.4877
  105OSM   H17T10739   5.833   4.575   9.002  0.7319 -1.1578 -0.0107
  105OSM   C18S10740   5.846   4.597   8.786 -1.0324  0.2687  0.0406
  105OSM   H18S10741   5.849   4.686   8.720  0.2115  1.3853  1.5567
  105OSM   H18T10742   5.743   4.558   8.795 -1.2898  0.7614 -0.7330
  105OSM   H18U10743   5.915   4.521   8.742 -0.6983 -0.5942  2.0108
  105OSM    C1F10744   6.608   4.753  10.378 -0.7227  0.0095  0.4120
  105OSM     OF10745   6.611   4.641  10.427 -0.3404  0.1864  0.5920
  105OSM    C2F10746   6.732   4.799  10.314 -0.3785  0.1870  0.1820
  105OSM    H2F10747   6.825   4.801  10.374  0.5998  1.4523 -1.3408
  105OSM    H2G10748   6.717   4.902  10.275  2.5216  1.5350  2.4878
  105OSM    C3F10749   6.756   4.705  10.186 -0.4977 -0.4310 -1.3786
  105OSM    H3F10750   6.768   4.602  10.224 -2.0276  0.6624  2.3462
  105OSM    H3G10751   6.837   4.751  10.126 -1.1113  0.5336 -1.4832
  105OSM    C4F10752   6.636   4.710  10.086  0.0870  0.2931 -0.7288
  105OSM    H4F10753   6.541   4.712  10.142 -0.1314  2.8271 -1.1601
  105OSM    H4G10754   6.631   4.624  10.016 -0.3737 -1.2233  1.1198
  105OSM    C5F10755   6.619   4.851  10.019 -0.0833  0.6790 -0.3229
  105OSM    H5F10756   6.716   4.898   9.991  0.3518 -0.4523 -0.7144
  105OSM    H5G10757   6.573   4.913  10.099 -1.2061  0.3311 -0.6922
  105OSM    C6F10758   6.525   4.846   9.895 -0.4893  0.0524  0.2930
  105OSM    H6F10759   6.484   4.948   9.875 -0.6994  0.1115  1.0268
  105OSM    H6G10760   6.439   4.776   9.902 -0.4565  0.1514  1.8011
  105OSM    C7F10761   6.614   4.810   9.771 -0.0798 -0.0287 -0.2282
  105OSM    H7F10762   6.639   4.705   9.795 -1.2170 -1.0069 -3.1464
  105OSM    H7G10763   6.702   4.878   9.759  1.8355 -2.5206 -0.6506
  105OSM    C8F10764   6.537   4.793   9.639 -0.1646  0.2785 -0.8352
  105OSM    H8F10765   6.447   4.730   9.656 -0.4644  0.8253 -0.3808
  105OSM    H8G10766   6.588   4.731   9.562 -0.0282  0.0489 -0.5622
  105OSM    C9F10767   6.470   4.918   9.589 -0.0866  0.8580 -0.0106
  105OSM    H9F10768   6.390   4.956   9.654 -0.4686  0.1123 -0.0431
  105OSM   C10F10769   6.508   4.983   9.486  0.2522  0.0496  0.5471
  105OSM   H10F10770   6.436   5.062   9.461 -1.2351 -0.6394  2.5012
  105OSM   C11F10771   6.633   4.961   9.400  0.3672  0.3742 -0.1971
  105OSM   H11F10772   6.710   4.890   9.438  0.5753  0.5265 -0.3391
  105OSM   H11G10773   6.683   5.059   9.393 -1.9242  1.6779  1.1147
  105OSM   C12F10774   6.606   4.919   9.255  0.0666  0.1634 -0.1038
  105OSM   H12F10775   6.697   4.923   9.190  0.4323 -3.2185  0.0910
  105OSM   H12G10776   6.531   4.983   9.204 -0.2993  0.4708  0.8235
  105OSM   C13F10777   6.558   4.772   9.241  0.9594 -0.0092 -0.4863
  105OSM   H13F10778   6.454   4.755   9.274  1.4829 -1.8433  0.2761
  105OSM   H13G10779   6.616   4.706   9.309  2.4827  1.6235 -0.1549
  105OSM   C14F10780   6.575   4.717   9.100  0.5485  0.1250 -0.7541
  105OSM   H14F10781   6.666   4.655   9.087 -0.5232 -1.8003  0.6628
  105OSM   H14G10782   6.579   4.804   9.031  1.1154  0.0963 -0.7543
  105OSM   C15F10783   6.446   4.634   9.071  0.0808  0.5341 -0.6189
  105OSM   H15F10784   6.364   4.704   9.046  0.1098  0.4290 -0.9965
  105OSM   H15G10785   6.424   4.577   9.164 -0.1431 -0.5845 -1.3451
  105OSM   C16F10786   6.476   4.527   8.964 -0.5012 -1.4929  0.0449
  105OSM   H16F10787   6.376   4.482   8.949 -0.6582 -2.1133  2.8403
  105OSM   H16G10788   6.549   4.450   8.998  3.0779  1.5015 -0.4930
  105OSM   C17F10789   6.512   4.601   8.833  0.9053 -0.2550  0.2104
  105OSM   H17F10790   6.613   4.647   8.829  0.8910 -0.2813 -0.5937
  105OSM   H17G10791   6.437   4.683   8.824  0.9686 -0.1893  0.2813
  105OSM   C18F10792   6.495   4.518   8.699  0.1333  0.5678 -0.1808
  105OSM   H18F10793   6.502   4.583   8.610 -0.6565  0.9996  0.0570
  105OSM   H18G10794   6.401   4.461   8.716  0.5596 -0.2835 -0.6229
  105OSM   H18H10795   6.589   4.459   8.703  1.0008  1.7486 -2.3905
  106OSM      N10796   0.770   3.181  10.880  0.0244  0.1976 -0.0770
  106OSM    C1510797   0.721   3.322  10.851  0.2620 -0.4310 -0.0251
  106OSM   H15A10798   0.664   3.321  10.759  1.2477  1.0186 -0.6555
  106OSM   H15B10799   0.804   3.391  10.840 -0.4804  0.5662  0.5848
  106OSM   H15C10800   0.662   3.364  10.931 -1.1945 -0.1211 -1.2458
  106OSM    C1410801   0.876   3.192  10.986 -0.0375 -0.1474 -0.0482
  106OSM   H14A10802   0.848   3.263  11.062 -0.2331 -0.3919  0.1052
  106OSM   H14B10803   0.959   3.241  10.937 -1.5685  1.5416 -1.0025
  106OSM   H14C10804   0.922   3.101  11.022  0.6079  0.4581  0.6806
  106OSM    C1310805   0.654   3.112  10.930 -0.0886  0.0388  0.1365
  106OSM   H13A10806   0.597   3.164  11.006  1.0339  2.4772 -0.6077
  106OSM   H13B10807   0.676   3.016  10.973 -0.2055  0.0809  0.2946
  106OSM   H13C10808   0.581   3.090  10.855  0.3797  2.6300 -1.1374
  106OSM    C1210809   0.828   3.120  10.754 -0.5945  0.1719 -0.3082
  106OSM   H12A10810   0.864   3.021  10.776  0.0073  0.7112  1.2980
  106OSM   H12B10811   0.922   3.170  10.733 -0.0311 -0.7830 -0.0745
  106OSM    C1110812   0.753   3.107  10.616  0.1247 -0.0195  0.3025
  106OSM   H11A10813   0.819   3.051  10.546  1.7435  2.6826 -0.3874
  106OSM   H11B10814   0.741   3.209  10.572 -1.5041 -0.0042  0.7314
  106OSM      P10815   0.603   2.888  10.626 -0.0556  0.3367 -0.1256
  106OSM    O1310816   0.601   2.834  10.763 -0.5363  0.0993  0.0339
  106OSM    O1410817   0.472   2.868  10.554 -0.5688  0.0639  0.1196
  106OSM    O1110818   0.733   2.834  10.553  0.2352  0.2302  0.1819
  106OSM    O1210819   0.629   3.041  10.638  0.8233 -0.2007 -0.5466
  106OSM    C1S10820   0.732   2.820  10.412  0.2301 -0.0467  0.4072
  106OSM    H1S10821   0.697   2.918  10.371  1.3742 -0.2015 -0.9836
  106OSM    H1T10822   0.654   2.748  10.381  0.5947 -1.1211  1.9364
  106OSM     NF10823   0.870   2.793  10.213 -0.4015  0.0970 -0.0478
  106OSM    HNF10824   0.856   2.713  10.154 -1.2082  1.0070 -1.1262
  106OSM    C2S10825   0.869   2.777  10.359  0.3343 -0.0947 -1.1483
  106OSM    H2S10826   0.946   2.843  10.406 -0.9555  0.8265 -0.3082
  106OSM    C3S10827   0.901   2.622  10.400  0.8442 -0.3899 -0.4404
  106OSM    H3S10828   0.828   2.558  10.347  2.1603 -2.2383 -0.0671
  106OSM     O310829   0.881   2.587  10.536 -0.3432  0.3337  0.1489
  106OSM    HO310830   0.826   2.658  10.573  0.0669  0.6056  0.2384
  106OSM    C4S10831   1.033   2.581  10.352  0.9391 -0.4249 -0.1860
  106OSM    H4S10832   1.121   2.632  10.393 -0.5733  0.3877  2.1551
  106OSM    C5S10833   1.058   2.492  10.257 -0.0757 -0.4504  0.6216
  106OSM    H5S10834   0.970   2.448  10.206 -0.7434  0.0143  1.3582
  106OSM    C6S10835   1.198   2.455  10.208  0.0508 -0.2071  0.0535
  106OSM    H6S10836   1.239   2.357  10.239  1.8054  0.4262 -0.1781
  106OSM    H6T10837   1.264   2.529  10.259 -0.9861  2.5526 -2.4474
  106OSM    C7S10838   1.213   2.457  10.055 -0.5114  0.3710 -0.6572
  106OSM    H7S10839   1.160   2.369  10.015  1.6439 -1.5725  0.6372
  106OSM    H7T10840   1.323   2.449  10.042 -0.3634 -0.5503  0.9789
  106OSM    C8S10841   1.168   2.590   9.979  0.0404 -0.1662 -0.9662
  106OSM    H8S10842   1.238   2.672  10.006 -0.8635  0.1822  0.4174
  106OSM    H8T10843   1.064   2.607  10.014  0.0058 -0.4075 -0.9467
  106OSM    C9S10844   1.159   2.584   9.822 -0.5226 -0.1674  0.1584
  106OSM    H9S10845   1.114   2.674   9.774  0.8852  0.0522 -0.7743
  106OSM    H9T10846   1.083   2.506   9.800 -1.0519  0.0411  1.2126
  106OSM   C10S10847   1.288   2.540   9.755  0.2050 -0.2873 -0.3981
  106OSM   H10S10848   1.332   2.446   9.794 -0.1027  0.4506  1.8413
  106OSM   H10T10849   1.357   2.624   9.779 -0.0049 -0.2263  0.0013
  106OSM   C11S10850   1.280   2.534   9.599 -0.6834 -0.4675 -0.1291
  106OSM   H11S10851   1.237   2.620   9.543  1.2529  1.3044  1.0681
  106OSM   H11T10852   1.214   2.447   9.579 -1.8931 -0.1288  2.2563
  106OSM   C12S10853   1.420   2.507   9.539  0.3236 -0.2805 -0.1525
  106OSM   H12S10854   1.484   2.436   9.597  2.5527  0.4790 -1.6557
  106OSM   H12T10855   1.480   2.600   9.539  2.4710 -1.6068  1.2454
  106OSM   C13S10856   1.408   2.456   9.396 -0.2893  0.3275 -0.2524
  106OSM   H13S10857   1.367   2.539   9.334  1.6831  0.8432 -0.9119
  106OSM   H13T10858   1.335   2.373   9.399 -0.0907  0.2028  1.5103
  106OSM   C14S10859   1.546   2.426   9.328  0.0705  0.1156  0.0998
  106OSM   H14S10860   1.590   2.334   9.372 -3.3995 -1.2073  0.8895
  106OSM   H14T10861   1.617   2.506   9.360  0.5295  0.4212 -1.6335
  106OSM   C15S10862   1.532   2.437   9.174  0.6558 -0.3606 -0.1431
  106OSM   H15S10863   1.498   2.541   9.156  0.6188 -0.6901 -1.9944
  106OSM   H15T10864   1.465   2.360   9.132 -1.6952  2.9065 -2.5812
  106OSM   C16S10865   1.671   2.412   9.118  0.2152 -0.5570 -0.4681
  106OSM   H16S10866   1.713   2.313   9.146  1.9701  0.7219  1.5688
  106OSM   H16T10867   1.742   2.478   9.173 -1.1528  0.2035  0.4041
  106OSM   C17S10868   1.682   2.435   8.962 -0.5361  0.0314  0.1745
  106OSM   H17S10869   1.784   2.477   8.948 -1.3626  2.1113  0.2968
  106OSM   H17T10870   1.615   2.508   8.913  0.3387 -0.8817 -2.4410
  106OSM   C18S10871   1.664   2.293   8.901  0.4512  0.4226  0.6035
  106OSM   H18S10872   1.657   2.306   8.791 -1.2934 -0.0451  0.6518
  106OSM   H18T10873   1.564   2.248   8.918 -0.1360  1.2500 -0.5418
  106OSM   H18U10874   1.745   2.223   8.929  1.1880  0.4786 -1.2758
  106OSM    C1F10875   0.865   2.911  10.149 -0.3280 -0.4617  0.1007
  106OSM     OF10876   0.883   3.013  10.219  0.7146  0.1581 -0.2967
  106OSM    C2F10877   0.856   2.922   9.998 -0.3884 -0.1656 -0.7063
  106OSM    H2F10878   0.798   2.836   9.956  0.6227  0.6402 -3.8510
  106OSM    H2G10879   0.961   2.910   9.965 -0.5157  2.2480 -2.0659
  106OSM    C3F10880   0.796   3.062   9.959  0.4408 -0.3135  0.8643
  106OSM    H3F10881   0.865   3.146   9.980  0.6160  0.1149 -1.2970
  106OSM    H3G10882   0.700   3.072  10.015 -0.8056 -0.8040 -1.1242
  106OSM    C4F10883   0.761   3.081   9.807  0.7018  0.4568 -0.2431
  106OSM    H4F10884   0.844   3.039   9.745  0.5695  1.5115 -1.1380
  106OSM    H4G10885   0.763   3.189   9.782  0.9595  0.5893  0.3400
  106OSM    C5F10886   0.637   3.009   9.745  0.3122 -0.0311  0.4449
  106OSM    H5F10887   0.550   3.056   9.794 -0.5013 -1.4210  0.3671
  106OSM    H5G10888   0.625   2.903   9.777 -0.5295  0.4813  1.8980
  106OSM    C6F10889   0.640   3.025   9.599  0.1532  0.2451  0.7432
  106OSM    H6F10890   0.729   2.976   9.555 -1.2749 -0.0659 -1.9317
  106OSM    H6G10891   0.658   3.134   9.583  1.0492  0.3676  2.4930
  106OSM    C7F10892   0.509   2.976   9.525 -0.4661 -0.4112 -0.2314
  106OSM    H7F10893   0.414   3.001   9.577 -0.0968 -2.0916  1.2965
  106OSM    H7G10894   0.514   2.865   9.526 -0.7503 -0.4439 -1.4806
  106OSM    C8F10895   0.508   3.030   9.383 -0.6216 -0.1770  0.4410
  106OSM    H8F10896   0.455   3.126   9.397 -1.4622 -0.9273  2.5835
  106OSM    H8G10897   0.432   2.977   9.322 -0.9723  0.1619  0.5839
  106OSM    C9F10898   0.637   3.034   9.297  0.0616 -0.1841 -1.1155
  106OSM    H9F10899   0.706   3.105   9.343 -0.1592 -0.5931 -0.1373
  106OSM   C10F10900   0.666   2.953   9.191 -0.3475  0.0043  0.1468
  106OSM   H10F10901   0.750   2.980   9.126 -2.3361 -0.6904 -2.7827
  106OSM   C11F10902   0.570   2.854   9.129  0.1297 -0.2114  0.1231
  106OSM   H11F10903   0.466   2.882   9.155 -0.0200 -1.0316  0.4172
  106OSM   H11G10904   0.590   2.758   9.181  0.6370 -0.6310 -0.8331
  106OSM   C12F10905   0.579   2.849   8.971  0.6238 -0.1702 -0.5722
  106OSM   H12F10906   0.686   2.853   8.939  1.2857  1.3643  1.7673
  106OSM   H12G10907   0.538   2.948   8.943 -2.1868 -0.1807  3.1914
  106OSM   C13F10908   0.502   2.735   8.910  0.3512  0.2172  0.5588
  106OSM   H13F10909   0.394   2.754   8.922  0.4109 -0.3912  2.2601
  106OSM   H13G10910   0.532   2.641   8.962  1.7060  0.9513  1.1281
  106OSM   C14F10911   0.518   2.731   8.755 -0.0418 -0.4576 -0.6926
  106OSM   H14F10912   0.583   2.816   8.727 -1.7533  1.2607  0.3736
  106OSM   H14G10913   0.417   2.736   8.709 -0.3171  0.2773 -0.0327
  106OSM   C15F10914   0.587   2.609   8.697 -0.1893 -0.9460  0.0333
  106OSM   H15F10915   0.580   2.617   8.587 -0.3074 -2.8007 -0.1102
  106OSM   H15G10916   0.536   2.513   8.720  1.8779 -1.8920  0.8166
  106OSM   C16F10917   0.733   2.590   8.729  0.0646  0.6932 -0.6688
  106OSM   H16F10918   0.742   2.581   8.839  0.0248 -1.1901 -0.8035
  106OSM   H16G10919   0.800   2.672   8.694  1.4350 -0.5250 -0.9028
  106OSM   C17F10920   0.784   2.460   8.663  0.1713  0.1232 -0.5710
  106OSM   H17F10921   0.786   2.493   8.557 -0.3369 -1.0436 -0.9480
  106OSM   H17G10922   0.705   2.383   8.659 -0.2028  0.6170 -4.0075
  106OSM   C18F10923   0.908   2.387   8.718 -0.0596 -0.6087  0.2432
  106OSM   H18F10924   0.991   2.458   8.738 -0.4553  0.3243 -1.2986
  106OSM   H18G10925   0.945   2.298   8.664 -2.0046 -2.5011  1.9323
  106OSM   H18H10926   0.883   2.341   8.816  1.2684  0.0348  0.8914
  107OSM      N10927   2.410   0.797  11.165 -0.2786  1.1583  0.0085
  107OSM    C1510928   2.473   0.683  11.082  0.5479  0.3520 -0.4079
  107OSM   H15A10929   2.427   0.687  10.984  0.1001 -0.2087 -0.2169
  107OSM   H15B10930   2.448   0.588  11.126 -1.4335  0.9672 -0.1686
  107OSM   H15C10931   2.581   0.683  11.077  0.5024 -0.8637 -1.6596
  107OSM    C1410932   2.276   0.750  11.195 -0.4009  0.0768  0.2118
  107OSM   H14A10933   2.215   0.726  11.109 -1.3073  0.4158  0.7425
  107OSM   H14B10934   2.217   0.820  11.254 -2.0869 -2.2908  1.4309
  107OSM   H14C10935   2.284   0.655  11.244  1.6595  1.0505  1.8494
  107OSM    C1310936   2.482   0.808  11.297  0.3595  0.1756  0.3723
  107OSM   H13A10937   2.432   0.877  11.364  0.1552 -2.1875  2.7168
  107OSM   H13B10938   2.580   0.851  11.283  0.6227 -1.2547 -2.5833
  107OSM   H13C10939   2.492   0.710  11.340  1.2246  0.5972  1.1476
  107OSM    C1210940   2.428   0.932  11.092  0.0564  0.7388 -0.0883
  107OSM   H12A10941   2.531   0.942  11.060  0.9223  0.1396  2.4463
  107OSM   H12B10942   2.405   1.016  11.155 -0.5216 -0.2541  1.0257
  107OSM    C1110943   2.358   0.942  10.950 -0.4832 -0.2527  0.6679
  107OSM   H11A10944   2.418   0.879  10.881 -0.6401 -0.5630  0.8123
  107OSM   H11B10945   2.377   1.048  10.924 -1.1118 -0.2385  0.2594
  107OSM      P10946   2.112   1.011  10.943 -0.3668  0.2683  0.4864
  107OSM    O1310947   1.980   0.944  10.951 -0.5479  0.6462  0.5407
  107OSM    O1410948   2.139   1.110  11.045 -0.4868  0.4023  0.2065
  107OSM    O1110949   2.125   1.069  10.793 -0.2904 -0.1069 -0.1227
  107OSM    O1210950   2.221   0.898  10.947 -0.2740 -0.4319 -0.5086
  107OSM    C1S10951   2.150   0.971  10.695 -0.0751  0.6051 -0.2576
  107OSM    H1S10952   2.080   0.886  10.704 -1.6979  1.9565 -0.0417
  107OSM    H1T10953   2.256   0.936  10.688 -0.8690 -1.9292 -0.0144
  107OSM     NF10954   2.133   0.933  10.463  0.0934 -0.4265 -0.2123
  107OSM    HNF10955   2.216   0.918  10.409  1.8419 -0.3337  2.3568
  107OSM    C2S10956   2.137   1.036  10.559 -0.4028  0.4193  0.0049
  107OSM    H2S10957   2.038   1.084  10.568 -2.5499 -3.2013 -2.6455
  107OSM    C3S10958   2.257   1.132  10.537 -0.9099  0.0861  0.1154
  107OSM    H3S10959   2.353   1.076  10.542 -1.0522 -0.1111  0.8183
  107OSM     O310960   2.260   1.235  10.636 -0.3865 -0.8086  0.4113
  107OSM    HO310961   2.193   1.219  10.702 -2.5176 -1.1788 -1.7597
  107OSM    C4S10962   2.241   1.186  10.399  0.5991 -0.3389  0.2870
  107OSM    H4S10963   2.154   1.253  10.388  1.6571  1.5635  2.8786
  107OSM    C5S10964   2.323   1.176  10.296 -0.7420  0.6338  0.9813
  107OSM    H5S10965   2.411   1.111  10.299 -2.1069 -1.3334 -0.2783
  107OSM    C6S10966   2.293   1.234  10.156 -0.1585  0.0242 -0.0151
  107OSM    H6S10967   2.302   1.147  10.087 -2.2976 -0.3667  0.1776
  107OSM    H6T10968   2.381   1.288  10.116 -0.7267 -0.8525 -2.5341
  107OSM    C7S10969   2.166   1.314  10.137  0.0018  0.4371  0.4345
  107OSM    H7S10970   2.176   1.403  10.202 -1.3000  2.0502 -1.4887
  107OSM    H7T10971   2.076   1.254  10.163 -0.0153  1.4129  2.7603
  107OSM    C8S10972   2.135   1.358   9.990 -0.5830  1.1381  0.5782
  107OSM    H8S10973   2.219   1.418   9.948  0.5015 -0.4304  0.4623
  107OSM    H8T10974   2.038   1.410   9.988 -1.4248 -0.4052  0.0660
  107OSM    C9S10975   2.112   1.232   9.897  0.5566 -0.0925 -0.2198
  107OSM    H9S10976   2.068   1.143   9.946  0.8488 -0.4832 -0.6702
  107OSM    H9T10977   2.215   1.202   9.867  0.9687 -1.8212  2.6886
  107OSM   C10S10978   2.029   1.269   9.777  0.0493  0.1118  0.2533
  107OSM   H10S10979   2.080   1.353   9.725  0.7230 -0.8403 -0.6519
  107OSM   H10T10980   1.925   1.304   9.795 -0.3692 -0.4113 -1.0568
  107OSM   C11S10981   2.021   1.155   9.672 -0.2382 -0.2397 -0.4243
  107OSM   H11S10982   1.943   1.184   9.599 -0.5151  0.4453  0.1369
  107OSM   H11T10983   1.990   1.062   9.725  0.9180 -1.3962 -1.7354
  107OSM   C12S10984   2.150   1.144   9.582 -0.6606  0.3160  0.3985
  107OSM   H12S10985   2.234   1.114   9.647  0.9357 -0.7112 -2.0848
  107OSM   H12T10986   2.176   1.245   9.542 -2.5307  0.3067 -0.9067
  107OSM   C13S10987   2.145   1.035   9.474  0.8087 -0.4670 -0.7857
  107OSM   H13S10988   2.052   1.057   9.418  0.6553  1.2586  0.1202
  107OSM   H13T10989   2.141   0.932   9.517 -2.9666 -0.2786 -0.6037
  107OSM   C14S10990   2.261   1.046   9.372  0.5562 -0.7548 -0.3238
  107OSM   H14S10991   2.355   1.055   9.431  0.0005 -0.2414  0.5023
  107OSM   H14T10992   2.260   1.149   9.331  4.0615 -0.6394 -0.2771
  107OSM   C15S10993   2.268   0.946   9.261 -0.2479  0.0752  0.2031
  107OSM   H15S10994   2.172   0.929   9.207 -0.0983 -0.1535  0.0061
  107OSM   H15T10995   2.297   0.850   9.308 -0.0129 -0.8936 -1.8782
  107OSM   C16S10996   2.384   0.981   9.159  0.1529  0.0458  0.9139
  107OSM   H16S10997   2.434   0.885   9.133  1.2122  1.0366 -0.7507
  107OSM   H16T10998   2.461   1.043   9.209  2.2851 -0.1883 -1.9679
  107OSM   C17S10999   2.344   1.042   9.028  0.1007 -0.0648  0.1091
  107OSM   H17S11000   2.303   1.144   9.044  1.4322  0.3192  1.2157
  107OSM   H17T11001   2.274   0.975   8.974 -0.7108  1.4746 -0.7794
  107OSM   C18S11002   2.460   1.052   8.930 -0.4923  0.0789 -0.0642
  107OSM   H18S11003   2.419   1.115   8.847  3.0480  1.0103 -1.2076
  107OSM   H18T11004   2.506   0.959   8.890  1.1373 -0.4187  2.8966
  107OSM   H18U11005   2.545   1.106   8.976  0.2364  0.1097 -1.4057
  107OSM    C1F11006   2.025   0.859  10.441  0.0950  0.7528  0.9344
  107OSM     OF11007   1.923   0.878  10.502  0.6421 -0.5213  0.4052
  107OSM    C2F11008   2.033   0.746  10.336 -0.4622 -0.7029 -0.1506
  107OSM    H2F11009   1.997   0.652  10.383 -0.0187 -0.3170  0.9749
  107OSM    H2G11010   2.138   0.738  10.298 -0.5051 -1.6309 -0.1034
  107OSM    C3F11011   1.938   0.786  10.220  0.4588  0.5161 -0.4717
  107OSM    H3F11012   1.972   0.884  10.178  0.7979  0.5647 -0.0877
  107OSM    H3G11013   1.835   0.800  10.257  0.9312  1.0008  0.6908
  107OSM    C4F11014   1.936   0.680  10.110  0.1456  0.2952  0.2579
  107OSM    H4F11015   1.904   0.583  10.154 -2.5238 -0.4651 -3.1677
  107OSM    H4G11016   2.040   0.660  10.077 -0.3336 -0.7991 -0.6316
  107OSM    C5F11017   1.848   0.707   9.988  0.0091  0.3494  0.1383
  107OSM    H5F11018   1.741   0.690  10.012  0.2213  0.4478  1.1745
  107OSM    H5G11019   1.874   0.621   9.923 -0.1229 -0.1599  0.7473
  107OSM    C6F11020   1.874   0.844   9.915  0.1640  0.0143 -0.0457
  107OSM    H6F11021   1.980   0.843   9.884 -0.0169  0.9181 -0.7390
  107OSM    H6G11022   1.855   0.916   9.998  1.2359 -0.0144  0.2317
  107OSM    C7F11023   1.782   0.864   9.796  0.1613 -0.5527  0.6361
  107OSM    H7F11024   1.762   0.971   9.770  0.8390 -0.4610  0.4864
  107OSM    H7G11025   1.680   0.834   9.827  0.6001 -0.5476  2.1139
  107OSM    C8F11026   1.812   0.776   9.672  0.1393  0.0753  0.2343
  107OSM    H8F11027   1.774   0.675   9.699  0.0285  0.4453  1.4966
  107OSM    H8G11028   1.922   0.775   9.662  0.3090 -0.1336  2.0064
  107OSM    C9F11029   1.745   0.822   9.544  0.3606  0.3668 -0.1462
  107OSM    H9F11030   1.649   0.868   9.572  0.9437  0.7698  1.2689
  107OSM   C10F11031   1.779   0.804   9.415 -0.6791  0.0237  0.3502
  107OSM   H10F11032   1.715   0.848   9.336 -2.1244 -1.0497  0.9066
  107OSM   C11F11033   1.902   0.738   9.359  0.4195 -0.0798 -0.0688
  107OSM   H11F11034   1.966   0.691   9.436 -1.3318 -1.0055  0.8487
  107OSM   H11G11035   1.972   0.804   9.303  1.0036 -0.0573  0.6881
  107OSM   C12F11036   1.869   0.633   9.243 -0.0960  0.4824 -0.1023
  107OSM   H12F11037   1.969   0.588   9.224 -0.5510 -1.0179  0.9564
  107OSM   H12G11038   1.814   0.678   9.158  0.5670 -1.0966 -1.4000
  107OSM   C13F11039   1.774   0.515   9.292 -0.3895  0.1777  1.0445
  107OSM   H13F11040   1.676   0.567   9.299  0.1890  1.5258 -0.7413
  107OSM   H13G11041   1.805   0.483   9.394 -1.3268 -3.5175  0.2444
  107OSM   C14F11042   1.765   0.397   9.187  0.2365  0.1127 -0.0142
  107OSM   H14F11043   1.669   0.343   9.204 -0.6402  1.5636 -0.2319
  107OSM   H14G11044   1.852   0.330   9.203  0.1201 -0.8155 -2.8568
  107OSM   C15F11045   1.761   0.443   9.035  0.1086 -0.0563 -0.3900
  107OSM   H15F11046   1.849   0.501   8.999  0.9168 -0.9477  0.1277
  107OSM   H15G11047   1.680   0.519   9.034  1.2444  1.1933  0.7750
  107OSM   C16F11048   1.728   0.328   8.943  0.1000  0.6905  0.2696
  107OSM   H16F11049   1.666   0.371   8.862  0.9168  0.3984 -0.5137
  107OSM   H16G11050   1.653   0.255   8.980  1.1239  0.5013  2.0688
  107OSM   C17F11051   1.858   0.263   8.890 -0.3683  0.1444 -0.0386
  107OSM   H17F11052   1.906   0.226   8.984  0.4837 -0.0528 -0.5453
  107OSM   H17G11053   1.918   0.347   8.848 -0.8672  0.7773  0.4937
  107OSM   C18F11054   1.847   0.156   8.785 -0.0646  0.0267 -0.0909
  107OSM   H18F11055   1.945   0.107   8.766 -0.4122 -1.0649  0.9176
  107OSM   H18G11056   1.817   0.204   8.689 -1.1562 -1.3366 -0.4481
  107OSM   H18H11057   1.781   0.074   8.820  2.0532 -1.2816  0.9267
  108OSM      N11058   4.902   4.079  11.075 -0.3336 -0.3429  0.0258
  108OSM    C1511059   4.766   4.063  11.132 -0.7428 -0.0363 -0.2093
  108OSM   H15A11060   4.762   3.994  11.215 -1.8431  1.1207  0.7113
  108OSM   H15B11061   4.694   4.033  11.058 -1.0113 -0.8018  0.3540
  108OSM   H15C11062   4.726   4.148  11.184 -1.4023 -0.6297  0.2681
  108OSM    C1411063   4.949   3.944  11.020 -0.5377 -0.4863 -0.3530
  108OSM   H14A11064   4.889   3.915  10.935 -1.2616  2.8037 -1.0259
  108OSM   H14B11065   4.946   3.868  11.096  1.1395 -2.1858 -1.9370
  108OSM   H14C11066   5.055   3.954  11.003 -0.5187  0.2832  0.1940
  108OSM    C1311067   4.893   4.182  10.981 -0.0333 -0.2252 -0.3059
  108OSM   H13A11068   4.857   4.278  11.017 -1.0840  0.1996 -2.4028
  108OSM   H13B11069   4.817   4.153  10.910 -0.7425  2.4492 -0.6908
  108OSM   H13C11070   4.988   4.180  10.929  0.8191 -0.6481  1.2179
  108OSM    C1211071   4.997   4.121  11.194  0.2856 -0.9114 -0.2177
  108OSM   H12A11072   4.983   4.052  11.275 -4.6877 -0.1030 -0.2775
  108OSM   H12B11073   4.951   4.210  11.234 -1.6985 -2.1558  0.3322
  108OSM    C1111074   5.151   4.154  11.172 -0.3345  0.0793  0.1598
  108OSM   H11A11075   5.203   4.181  11.266  0.7476  0.2670 -0.4768
  108OSM   H11B11076   5.147   4.243  11.105 -2.4393 -0.0817  0.0425
  108OSM      P11077   5.341   4.079  11.011  0.0808 -0.4938 -0.5241
  108OSM    O1311078   5.429   4.179  11.076 -0.4486 -0.6561 -0.6747
  108OSM    O1411079   5.396   3.955  10.958 -0.0639  0.1138  0.2514
  108OSM    O1111080   5.271   4.159  10.896 -0.0692 -0.0381 -0.1656
  108OSM    O1211081   5.212   4.047  11.108  0.3670 -0.2414  0.1205
  108OSM    C1S11082   5.334   4.222  10.784 -0.4557  0.0623  0.4766
  108OSM    H1S11083   5.438   4.250  10.811 -1.1464  3.2409  0.0359
  108OSM    H1T11084   5.276   4.308  10.745 -0.2013  0.7096  1.5004
  108OSM     NF11085   5.433   4.183  10.556  0.8290 -0.0474 -0.2893
  108OSM    HNF11086   5.391   4.195  10.467  0.3825  0.0700 -0.0617
  108OSM    C2S11087   5.355   4.126  10.663  0.2640  0.0225  0.3889
  108OSM    H2S11088   5.401   4.035  10.708 -1.0752 -0.6073  0.5013
  108OSM    C3S11089   5.221   4.067  10.619  0.4308 -0.3793  0.4337
  108OSM    H3S11090   5.159   4.148  10.575  0.4206 -0.7601 -0.2553
  108OSM     O311091   5.147   4.006  10.728 -0.3054  0.0899  0.2098
  108OSM    HO311092   5.192   4.035  10.808 -2.2295  1.7257  0.7493
  108OSM    C4S11093   5.246   3.968  10.501 -0.4565  0.0522  0.2804
  108OSM    H4S11094   5.260   4.020  10.405 -1.5101 -1.7626 -0.8893
  108OSM    C5S11095   5.252   3.832  10.509  0.2541  0.2879 -0.7116
  108OSM    H5S11096   5.238   3.778  10.604 -1.7194 -2.5063 -2.5228
  108OSM    C6S11097   5.277   3.740  10.392  0.2613  0.0331 -0.6407
  108OSM    H6S11098   5.180   3.704  10.352  0.2987  0.8597 -1.4739
  108OSM    H6T11099   5.334   3.654  10.435  1.1553  0.5940 -0.6887
  108OSM    C7S11100   5.367   3.791  10.273  0.9801  0.1002  0.2524
  108OSM    H7S11101   5.465   3.838  10.297  1.0757 -0.5896  1.2320
  108OSM    H7T11102   5.314   3.877  10.226 -0.4204 -0.2962  1.1091
  108OSM    C8S11103   5.400   3.684  10.167 -0.1574  0.5198 -0.1252
  108OSM    H8S11104   5.300   3.648  10.137 -0.4122  1.2600 -0.1769
  108OSM    H8T11105   5.472   3.607  10.201  0.1504  0.4566 -0.9113
  108OSM    C9S11106   5.465   3.753  10.045  0.5009 -0.1777  0.0075
  108OSM    H9S11107   5.573   3.774  10.055  1.4169 -3.2968 -2.4033
  108OSM    H9T11108   5.410   3.849  10.036  0.6982 -0.2972 -3.0039
  108OSM   C10S11109   5.453   3.672   9.921  0.4608 -0.0166 -0.1426
  108OSM   H10S11110   5.350   3.633   9.905  0.4622  0.3293 -1.0369
  108OSM   H10T11111   5.511   3.580   9.941  1.9302  1.5824  3.3870
  108OSM   C11S11112   5.499   3.763   9.811  0.2599  0.2127  1.1208
  108OSM   H11S11113   5.600   3.783   9.853  0.5691  1.6761 -0.2890
  108OSM   H11T11114   5.438   3.855   9.801  2.7147  1.6057 -1.4886
  108OSM   C12S11115   5.505   3.703   9.670  0.6240 -0.3064 -0.0710
  108OSM   H12S11116   5.550   3.602   9.677  2.3357  0.3998 -0.5180
  108OSM   H12T11117   5.577   3.761   9.609  1.9564  2.2310  3.7635
  108OSM   C13S11118   5.371   3.682   9.597  0.1587 -0.0767 -0.0800
  108OSM   H13S11119   5.304   3.770   9.582  0.6552  0.3529  0.2097
  108OSM   H13T11120   5.309   3.603   9.646 -0.4414  0.0231 -0.6778
  108OSM   C14S11121   5.401   3.629   9.454 -0.7128  0.4875 -0.7110
  108OSM   H14S11122   5.428   3.522   9.445 -2.1626 -0.0553  1.0648
  108OSM   H14T11123   5.483   3.690   9.411  2.0695 -2.8600 -0.4046
  108OSM   C15S11124   5.273   3.648   9.377 -0.2701  0.0040  0.1246
  108OSM   H15S11125   5.292   3.622   9.271 -0.3735  1.0840 -0.1581
  108OSM   H15T11126   5.237   3.753   9.381  2.5341  1.0171 -0.1783
  108OSM   C16S11127   5.156   3.557   9.420  0.3969  1.2089  0.6911
  108OSM   H16S11128   5.107   3.589   9.514  0.5975  1.8783  0.5707
  108OSM   H16T11129   5.207   3.461   9.445  2.4737  2.4142  1.2510
  108OSM   C17S11130   5.056   3.540   9.313 -0.5195  0.8959  0.0497
  108OSM   H17S11131   5.102   3.496   9.222 -1.2127  0.0702  0.0867
  108OSM   H17T11132   5.008   3.640   9.301 -2.1581  0.0227 -0.8445
  108OSM   C18S11133   4.940   3.443   9.345  0.7402 -0.6527  0.8561
  108OSM   H18S11134   4.849   3.467   9.286  0.9866 -0.3601  0.5945
  108OSM   H18T11135   4.907   3.455   9.450 -1.7128 -0.6833  0.1088
  108OSM   H18U11136   4.983   3.341   9.352 -0.3253 -1.1587  0.1599
  108OSM    C1F11137   5.562   4.218  10.572 -0.0975  0.3233  0.3667
  108OSM     OF11138   5.618   4.234  10.681  0.3663 -0.5198 -0.2600
  108OSM    C2F11139   5.635   4.231  10.443 -0.4108  0.7335 -0.1931
  108OSM    H2F11140   5.566   4.271  10.366 -2.9092 -0.1116  1.5552
  108OSM    H2G11141   5.662   4.127  10.414  1.4689  1.1702 -0.0604
  108OSM    C3F11142   5.763   4.309  10.454 -0.1362  0.6239  0.1038
  108OSM    H3F11143   5.827   4.277  10.538  1.4486 -0.3062 -1.4264
  108OSM    H3G11144   5.747   4.419  10.462 -3.0076  0.1317  1.6070
  108OSM    C4F11145   5.841   4.293  10.322 -0.4037 -0.7783  0.5854
  108OSM    H4F11146   5.861   4.190  10.285  1.1244 -0.1527 -0.3994
  108OSM    H4G11147   5.942   4.338  10.336 -1.1381  0.6660  1.2758
  108OSM    C5F11148   5.776   4.389  10.228  0.4368 -0.1354  0.4793
  108OSM    H5F11149   5.759   4.491  10.269 -0.5823 -0.2542  0.3803
  108OSM    H5G11150   5.674   4.372  10.186  1.3685 -0.7189 -1.5861
  108OSM    C6F11151   5.866   4.412  10.104 -0.3199  0.0578  0.0093
  108OSM    H6F11152   5.903   4.311  10.074 -0.4593 -0.3216  1.0819
  108OSM    H6G11153   5.953   4.473  10.136  2.3332 -3.5910  0.1512
  108OSM    C7F11154   5.791   4.477   9.991  0.1794 -0.6077 -0.4387
  108OSM    H7F11155   5.773   4.580  10.029 -0.3445 -0.4398 -1.1267
  108OSM    H7G11156   5.690   4.433   9.986 -0.6380  0.7536  2.9662
  108OSM    C8F11157   5.855   4.490   9.846 -0.2020  0.1685  0.1184
  108OSM    H8F11158   5.936   4.566   9.853  0.1853 -0.2085 -0.2365
  108OSM    H8G11159   5.785   4.542   9.778  0.1994  0.2773 -0.2147
  108OSM    C9F11160   5.905   4.361   9.793 -0.3203 -0.0440  0.7363
  108OSM    H9F11161   5.976   4.303   9.854  0.5838  0.1970 -0.0759
  108OSM   C10F11162   5.886   4.320   9.665 -0.6946 -0.8953  0.3423
  108OSM   H10F11163   5.911   4.216   9.641  1.0979 -0.4570  0.2381
  108OSM   C11F11164   5.809   4.397   9.563  0.3382 -0.3672  0.7032
  108OSM   H11F11165   5.839   4.503   9.553  0.3372 -0.4766 -0.4824
  108OSM   H11G11166   5.701   4.406   9.591  0.2604 -0.4183  0.4214
  108OSM   C12F11167   5.819   4.337   9.427 -0.3217  0.4409  1.1651
  108OSM   H12F11168   5.921   4.296   9.411 -0.5515 -0.1790  1.2778
  108OSM   H12G11169   5.800   4.411   9.346 -3.3042 -0.9604  0.5184
  108OSM   C13F11170   5.724   4.216   9.413 -0.0320  0.6232 -0.0515
  108OSM   H13F11171   5.625   4.246   9.454 -1.3194 -1.3697 -1.5907
  108OSM   H13G11172   5.767   4.134   9.474  0.2832  1.4390  0.8271
  108OSM   C14F11173   5.722   4.165   9.270  0.9500  0.6660 -0.2244
  108OSM   H14F11174   5.818   4.135   9.224  2.9339  2.4135  2.6390
  108OSM   H14G11175   5.689   4.247   9.202  1.2052  1.5131  0.6575
  108OSM   C15F11176   5.620   4.052   9.254  0.3069  0.3820  0.4360
  108OSM   H15F11177   5.529   4.072   9.315  0.4428 -0.1304  0.8180
  108OSM   H15G11178   5.654   3.952   9.289 -1.7119 -1.5009 -2.7374
  108OSM   C16F11179   5.570   4.031   9.106 -0.7186  0.0814 -0.9063
  108OSM   H16F11180   5.662   4.022   9.045 -0.2081  0.6448 -0.2211
  108OSM   H16G11181   5.511   4.116   9.064 -0.8023 -1.2883 -3.6675
  108OSM   C17F11182   5.482   3.910   9.093 -0.0970 -0.3474 -0.1787
  108OSM   H17F11183   5.397   3.928   9.162 -1.2560 -2.4246 -1.0189
  108OSM   H17G11184   5.533   3.820   9.134 -1.3769  0.0172  2.2713
  108OSM   C18F11185   5.433   3.899   8.946  0.1262 -0.0276  0.9110
  108OSM   H18F11186   5.519   3.887   8.878 -1.1234 -1.5233 -0.4614
  108OSM   H18G11187   5.372   3.988   8.922 -1.1789 -0.6622  1.7895
  108OSM   H18H11188   5.366   3.810   8.936  1.2006 -1.1419  3.2050
  109OSM      N11189   5.732   4.933  10.827 -0.0788  0.3834  0.2361
  109OSM    C1511190   5.870   4.916  10.775  0.3434 -0.1248  0.3665
  109OSM   H15A11191   5.874   4.829  10.710  0.4007 -1.4014  2.0476
  109OSM   H15B11192   5.945   4.900  10.850  0.6051 -2.8685 -0.3980
  109OSM   H15C11193   5.895   5.003  10.716 -0.4640  0.3549  0.7264
  109OSM    C1411194   5.704   4.815  10.920 -0.0703 -0.7513  0.2699
  109OSM   H14A11195   5.699   4.727  10.856 -0.7673  0.2412 -1.0705
  109OSM   H14B11196   5.599   4.820  10.944 -0.1337 -1.4975  0.1651
  109OSM   H14C11197   5.779   4.804  10.997  1.7956 -0.3049 -1.4296
  109OSM    C1311198   5.738   5.052  10.920  0.1327  0.2781  0.3583
  109OSM   H13A11199   5.643   5.061  10.971 -0.1825 -1.1969  0.0372
  109OSM   H13B11200   5.763   5.146  10.871 -2.3925  1.7106  1.7283
  109OSM   H13C11201   5.807   5.055  11.003  0.2369 -0.0362  0.2811
  109OSM    C1211202   5.628   4.947  10.724  0.1276 -0.4475 -0.1321
  109OSM   H12A11203   5.532   4.974  10.766  0.9133 -1.4497  2.3451
  109OSM   H12B11204   5.601   4.854  10.677 -1.2023  0.1499 -0.5922
  109OSM    C1111205   5.644   5.058  10.620 -0.3154 -0.1225 -0.3009
  109OSM   H11A11206   5.567   5.045  10.541 -0.6702  0.1781 -0.0093
  109OSM   H11B11207   5.740   5.036  10.569 -0.2469 -0.9778  0.2066
  109OSM      P11208   5.518   5.274  10.701 -0.1635  0.0465  0.1465
  109OSM    O1311209   5.424   5.199  10.781  0.0324 -0.4598  0.3162
  109OSM    O1411210   5.562   5.403  10.757 -0.2275  0.3415  0.4174
  109OSM    O1111211   5.458   5.278  10.556  0.2826 -0.3551  0.1764
  109OSM    O1211212   5.654   5.193  10.673  0.1874 -0.4817  0.0068
  109OSM    C1S11213   5.521   5.349  10.455 -0.4013 -0.3707  0.2346
  109OSM    H1S11214   5.631   5.338  10.466 -0.1196  2.4371  0.8342
  109OSM    H1T11215   5.489   5.455  10.451  1.2268  0.1456  0.2502
  109OSM     NF11216   5.546   5.389  10.213  0.2168 -0.1836 -0.2930
  109OSM    HNF11217   5.493   5.466  10.178 -3.2370 -2.2275  0.2305
  109OSM    C2S11218   5.474   5.305  10.316 -0.4410 -0.7567  0.1800
  109OSM    H2S11219   5.503   5.201  10.290  2.7499  0.5873 -1.8923
  109OSM    C3S11220   5.315   5.309  10.299  0.3038  0.3671 -1.0276
  109OSM    H3S11221   5.285   5.415  10.309  0.2035  0.1944  0.6684
  109OSM     O311222   5.244   5.244  10.401  0.5667 -0.5383 -0.1354
  109OSM    HO311223   5.314   5.217  10.461 -0.7261 -4.1560 -0.1461
  109OSM    C4S11224   5.271   5.250  10.168 -0.1062  0.2895  0.1500
  109OSM    H4S11225   5.266   5.140  10.164 -0.8333  0.3723 -2.8176
  109OSM    C5S11226   5.236   5.323  10.063  0.0748 -0.1530  0.4947
  109OSM    H5S11227   5.245   5.432  10.077  0.7942  0.1734 -2.1972
  109OSM    C6S11228   5.188   5.271   9.933  0.0026 -0.3035  0.1932
  109OSM    H6S11229   5.082   5.303   9.926  0.1275  0.4935  1.7591
  109OSM    H6T11230   5.186   5.160   9.930  0.1494 -0.3002 -0.0511
  109OSM    C7S11231   5.259   5.322   9.805  0.1873 -0.5274  0.1420
  109OSM    H7S11232   5.366   5.304   9.827 -0.0323 -1.2429  0.6608
  109OSM    H7T11233   5.259   5.433   9.806  0.1239 -0.4943 -1.5927
  109OSM    C8S11234   5.212   5.261   9.673 -0.5531 -1.3914 -0.5186
  109OSM    H8S11235   5.107   5.295   9.657 -0.3832  2.5425  5.1562
  109OSM    H8T11236   5.212   5.151   9.683 -0.7554 -1.3380  0.1138
  109OSM    C9S11237   5.300   5.302   9.555 -0.0857 -0.0992  0.0797
  109OSM    H9S11238   5.401   5.257   9.554  0.2744  0.5444  3.1885
  109OSM    H9T11239   5.316   5.412   9.552 -0.7779 -0.0117 -0.6494
  109OSM   C10S11240   5.227   5.251   9.422  0.1009  0.1549 -0.0702
  109OSM   H10S11241   5.123   5.290   9.418 -0.9453 -2.4135  1.1206
  109OSM   H10T11242   5.223   5.141   9.406  0.6388 -0.2112  2.1552
  109OSM   C11S11243   5.295   5.292   9.288 -0.3087  0.9410 -0.0760
  109OSM   H11S11244   5.389   5.233   9.280 -1.2640 -0.6854  0.3833
  109OSM   H11T11245   5.317   5.401   9.285  1.4485  0.5713 -1.4898
  109OSM   C12S11246   5.208   5.278   9.163 -0.5917 -0.3801 -0.3741
  109OSM   H12S11247   5.119   5.343   9.172 -1.1809 -1.3183  0.6925
  109OSM   H12T11248   5.153   5.182   9.156  0.2836 -1.0011  0.9834
  109OSM   C13S11249   5.281   5.318   9.037  0.3473 -0.3643 -0.2045
  109OSM   H13S11250   5.297   5.226   8.977 -1.2275 -0.2071 -0.9048
  109OSM   H13T11251   5.386   5.345   9.062  1.2044 -1.7856 -2.1718
  109OSM   C14S11252   5.216   5.427   8.951 -0.1798  0.1801 -0.2167
  109OSM   H14S11253   5.280   5.442   8.861 -0.6516 -1.6944 -0.8853
  109OSM   H14T11254   5.223   5.524   9.004 -1.4984 -0.3071  0.8745
  109OSM   C15S11255   5.077   5.416   8.900 -0.6631 -0.2592 -0.3987
  109OSM   H15S11256   5.004   5.466   8.966 -0.0446 -1.8857  1.5527
  109OSM   H15T11257   5.059   5.306   8.900  0.8760 -0.5328 -1.2472
  109OSM   C16S11258   5.067   5.445   8.755  0.0338 -0.1491  0.6003
  109OSM   H16S11259   5.151   5.395   8.703 -1.5925  1.2660 -3.5430
  109OSM   H16T11260   5.091   5.549   8.725  0.7007 -0.3395  0.4845
  109OSM   C17S11261   4.931   5.398   8.699 -0.2446 -0.5225  0.8066
  109OSM   H17S11262   4.845   5.465   8.721  0.3862  0.6923 -0.3306
  109OSM   H17T11263   4.896   5.307   8.751 -1.8937  0.1292  0.8528
  109OSM   C18S11264   4.935   5.353   8.556  0.3241 -0.3352  0.7357
  109OSM   H18S11265   4.842   5.305   8.519 -0.1097 -0.1698  1.5839
  109OSM   H18T11266   5.008   5.273   8.536  0.6169  0.0663  0.1935
  109OSM   H18U11267   4.965   5.434   8.486  2.1008 -0.6352  1.1309
  109OSM    C1F11268   5.673   5.374  10.183 -0.2396  0.3319  0.2752
  109OSM     OF11269   5.744   5.289  10.236 -0.3508  0.4078  0.6510
  109OSM    C2F11270   5.731   5.475  10.086  0.2087  0.7083  0.0702
  109OSM    H2F11271   5.778   5.550  10.153  0.4530 -0.5181  1.3006
  109OSM    H2G11272   5.656   5.517  10.016  1.3851  1.7509 -0.5828
  109OSM    C3F11273   5.834   5.414   9.990 -0.1304  0.2883  0.0446
  109OSM    H3F11274   5.924   5.376  10.043  0.1484 -1.4055 -1.5786
  109OSM    H3G11275   5.869   5.491   9.917 -1.0149  3.0574  2.4640
  109OSM    C4F11276   5.773   5.288   9.913  0.0890 -0.4485 -0.0527
  109OSM    H4F11277   5.663   5.298   9.898 -0.0209 -0.6439  0.6256
  109OSM    H4G11278   5.802   5.199   9.972  0.9248  0.8363  1.4971
  109OSM    C5F11279   5.826   5.257   9.771 -0.1184 -0.5854 -0.6844
  109OSM    H5F11280   5.816   5.149   9.747 -1.0551 -0.5820 -0.3156
  109OSM    H5G11281   5.935   5.269   9.788 -0.3630  1.0578 -0.1595
  109OSM    C6F11282   5.772   5.351   9.659  0.5257  0.5572  0.6727
  109OSM    H6F11283   5.768   5.454   9.699  2.3352  1.1499 -0.6097
  109OSM    H6G11284   5.668   5.312   9.656  0.2513  1.3537 -0.8885
  109OSM    C7F11285   5.851   5.339   9.530  0.5550 -1.0956 -0.2918
  109OSM    H7F11286   5.844   5.233   9.497 -1.4071 -1.7492  2.0540
  109OSM    H7G11287   5.959   5.359   9.546  0.3458  0.2722 -0.4974
  109OSM    C8F11288   5.801   5.439   9.417 -0.3025  0.3351  0.4105
  109OSM    H8F11289   5.801   5.545   9.451  2.0876  0.2797  0.6686
  109OSM    H8G11290   5.695   5.406   9.411  0.0461 -0.7925  0.4158
  109OSM    C9F11291   5.869   5.415   9.282 -0.0044  0.3358 -0.5009
  109OSM    H9F11292   5.954   5.481   9.260  1.1498 -0.6447  0.8559
  109OSM   C10F11293   5.836   5.327   9.184  0.3933 -0.6039 -0.3708
  109OSM   H10F11294   5.889   5.332   9.088 -0.5446  2.2470 -0.7938
  109OSM   C11F11295   5.727   5.222   9.170 -0.1703 -0.1180 -0.2537
  109OSM   H11F11296   5.640   5.244   9.235  0.0488  1.0336 -0.3406
  109OSM   H11G11297   5.770   5.124   9.201  0.3211  0.0913 -0.2723
  109OSM   C12F11298   5.662   5.205   9.036  0.3338 -0.3288  0.3313
  109OSM   H12F11299   5.615   5.302   9.008  0.5918 -0.0673  0.8003
  109OSM   H12G11300   5.583   5.127   9.030  0.0872 -0.0074 -0.9077
  109OSM   C13F11301   5.750   5.183   8.909  0.0023  0.1398  0.2147
  109OSM   H13F11302   5.799   5.085   8.927 -1.5070 -0.6265  0.2235
  109OSM   H13G11303   5.827   5.259   8.885  1.8151 -1.1398  1.7947
  109OSM   C14F11304   5.665   5.163   8.778 -0.1302 -0.2102  0.6557
  109OSM   H14F11305   5.589   5.242   8.793  0.3567  0.4278 -0.1717
  109OSM   H14G11306   5.611   5.066   8.785 -1.7319  0.7111  1.3295
  109OSM   C15F11307   5.749   5.175   8.648 -0.1030 -0.6255 -1.0204
  109OSM   H15F11308   5.856   5.150   8.662 -0.0822  0.8309  1.9238
  109OSM   H15G11309   5.740   5.281   8.614 -0.2245 -0.9351 -1.9609
  109OSM   C16F11310   5.688   5.101   8.528  0.1873  0.3913 -0.4251
  109OSM   H16F11311   5.591   5.150   8.506 -0.8641 -1.2224  0.5716
  109OSM   H16G11312   5.680   4.995   8.559 -0.6290  0.7759  0.7235
  109OSM   C17F11313   5.782   5.098   8.408 -0.6450 -0.5633 -0.4790
  109OSM   H17F11314   5.755   5.008   8.349 -3.6727 -0.4279  0.5806
  109OSM   H17G11315   5.884   5.089   8.449 -1.5486  1.0367  2.2728
  109OSM   C18F11316   5.774   5.233   8.334  0.3531  0.3661 -0.0418
  109OSM   H18F11317   5.832   5.316   8.380 -2.3776  0.8161  2.7702
  109OSM   H18G11318   5.670   5.271   8.338  0.2605  0.2460 -1.1445
  109OSM   H18H11319   5.815   5.214   8.233 -0.2853  0.1184 -0.2574
  110OSM      N11320   0.260   5.089  11.264 -0.1906  0.3448  0.5161
  110OSM    C1511321   0.161   4.980  11.201  0.0448  0.2063  0.2981
  110OSM   H15A11322   0.202   4.950  11.105 -3.8487  2.6761 -2.2787
  110OSM   H15B11323   0.061   5.016  11.187 -0.1286 -0.9127 -1.4898
  110OSM   H15C11324   0.152   4.901  11.274  1.3654  0.6253  0.9324
  110OSM    C1411325   0.194   5.127  11.389 -0.8954 -0.0610  0.1745
  110OSM   H14A11326   0.231   5.222  11.425 -0.5965  0.2066 -0.8222
  110OSM   H14B11327   0.196   5.048  11.462 -2.0542  0.9465  1.3244
  110OSM   H14C11328   0.091   5.155  11.369 -0.7885 -0.4937 -1.0652
  110OSM    C1311329   0.394   5.023  11.279 -0.9873  0.5944  0.4365
  110OSM   H13A11330   0.391   4.926  11.326  2.5430  0.2990  0.1968
  110OSM   H13B11331   0.453   5.084  11.345 -1.3819  0.2778  1.0876
  110OSM   H13C11332   0.449   5.020  11.186  0.3488 -0.8408  1.2508
  110OSM    C1211333   0.274   5.205  11.166  0.4047 -0.1777 -0.4663
  110OSM   H12A11334   0.356   5.266  11.201 -0.3467  0.8961 -0.5511
  110OSM   H12B11335   0.191   5.274  11.173  0.7447  0.6949 -4.1019
  110OSM    C1111336   0.297   5.175  11.018 -0.2707  0.0109 -0.1441
  110OSM   H11A11337   0.202   5.136  10.975  0.0399  1.0266 -1.7998
  110OSM   H11B11338   0.377   5.098  11.007  0.2261  0.3764  0.8879
  110OSM      P11339   0.442   5.325  10.858  0.2196 -0.3362 -0.4879
  110OSM    O1311340   0.415   5.446  10.781 -0.3179 -0.0571  0.2944
  110OSM    O1411341   0.574   5.309  10.925  0.7730  0.4018  0.5476
  110OSM    O1111342   0.419   5.199  10.761 -0.5643  0.1721 -0.2905
  110OSM    O1211343   0.329   5.303  10.959  0.1708 -0.1604 -0.0182
  110OSM    C1S11344   0.311   5.198  10.668  0.5839  0.0864  0.2149
  110OSM    H1S11345   0.334   5.286  10.603 -1.6176  1.0255  0.6505
  110OSM    H1T11346   0.210   5.203  10.713  0.3037 -1.3333 -0.2368
  110OSM     NF11347   0.214   5.086  10.478 -0.2796  0.3068 -0.3476
  110OSM    HNF11348   0.135   5.037  10.515  0.7023 -1.8629 -1.0314
  110OSM    C2S11349   0.318   5.069  10.577 -0.0383 -0.7050 -0.1083
  110OSM    H2S11350   0.417   5.050  10.531  0.1616 -1.1821  0.5047
  110OSM    C3S11351   0.286   4.951  10.672 -0.3333 -0.6035 -0.4978
  110OSM    H3S11352   0.187   4.971  10.719 -0.8708  0.8593 -2.1548
  110OSM     O311353   0.378   4.940  10.780  0.2861 -0.2227  0.2394
  110OSM    HO311354   0.409   5.031  10.782  1.1211 -0.5234  2.1146
  110OSM    C4S11355   0.270   4.830  10.589  0.4676  0.1333 -0.3104
  110OSM    H4S11356   0.165   4.798  10.585  0.0916  1.3351 -0.3794
  110OSM    C5S11357   0.363   4.746  10.532  0.0913 -0.1130 -0.5029
  110OSM    H5S11358   0.469   4.772  10.544 -0.2457  0.6119  1.1753
  110OSM    C6S11359   0.323   4.622  10.445  0.4747  0.3133 -0.3835
  110OSM    H6S11360   0.227   4.574  10.475  0.0544 -0.0384 -2.2208
  110OSM    H6T11361   0.401   4.544  10.462 -0.4034 -0.6338 -0.6244
  110OSM    C7S11362   0.320   4.642  10.288 -0.4203  0.0578  0.1527
  110OSM    H7S11363   0.236   4.711  10.270 -1.1584 -0.3673  1.8765
  110OSM    H7T11364   0.286   4.554  10.229  0.7911  0.2446 -0.8596
  110OSM    C8S11365   0.445   4.712  10.230 -0.1622 -0.5934 -0.1742
  110OSM    H8S11366   0.535   4.668  10.278 -0.3995 -0.9398 -0.0413
  110OSM    H8T11367   0.436   4.819  10.258 -0.6128 -0.8267  0.5915
  110OSM    C9S11368   0.459   4.692  10.075 -0.6879  0.4817  0.1351
  110OSM    H9S11369   0.473   4.587  10.044 -1.3758  0.7484 -1.0797
  110OSM    H9T11370   0.551   4.745  10.042 -1.7569  2.5622  0.3823
  110OSM   C10S11371   0.348   4.749   9.989  0.8134 -0.2026  0.1747
  110OSM   H10S11372   0.327   4.851  10.028  0.5462 -0.4828  0.7596
  110OSM   H10T11373   0.255   4.695  10.013  1.3388 -0.6100  1.3407
  110OSM   C11S11374   0.399   4.748   9.841  0.5750  0.1578 -0.0594
  110OSM   H11S11375   0.430   4.642   9.824  2.3709  0.0175  3.5099
  110OSM   H11T11376   0.490   4.811   9.835  1.1389 -0.6217  0.2153
  110OSM   C12S11377   0.301   4.812   9.738  0.1256  0.0695 -0.3873
  110OSM   H12S11378   0.275   4.911   9.781  0.0071 -0.6965  1.3170
  110OSM   H12T11379   0.212   4.748   9.720  0.2375  0.6590 -3.4430
  110OSM   C13S11380   0.359   4.825   9.595  0.6455 -0.2505 -0.0981
  110OSM   H13S11381   0.362   4.720   9.556  0.3271 -0.6523  0.9448
  110OSM   H13T11382   0.460   4.870   9.605  0.3881  0.3935 -0.3670
  110OSM   C14S11383   0.266   4.896   9.500  0.0838  0.5484 -0.0754
  110OSM   H14S11384   0.277   5.005   9.521  0.9844 -0.0129  2.4693
  110OSM   H14T11385   0.161   4.859   9.505  0.9356 -1.8135  0.9959
  110OSM   C15S11386   0.309   4.876   9.351  0.1199 -0.1645 -0.4175
  110OSM   H15S11387   0.321   4.766   9.343  1.4434 -0.0323 -0.3910
  110OSM   H15T11388   0.408   4.925   9.343 -0.1756  0.5358  0.0724
  110OSM   C16S11389   0.213   4.947   9.248  0.2629  0.0432  0.4829
  110OSM   H16S11390   0.224   5.056   9.264 -0.7211  0.5190 -1.9646
  110OSM   H16T11391   0.110   4.913   9.271 -0.8264  2.5402 -0.6380
  110OSM   C17S11392   0.235   4.915   9.097 -0.1270 -0.1303  0.0412
  110OSM   H17S11393   0.275   4.811   9.101  1.0739  0.3313  0.3173
  110OSM   H17T11394   0.317   4.983   9.065 -2.0763  2.3841  0.3281
  110OSM   C18S11395   0.114   4.911   9.011  0.0809 -0.3500 -0.1363
  110OSM   H18S11396   0.151   4.906   8.906  0.6496  0.7817  0.0027
  110OSM   H18T11397   0.067   5.012   9.018 -1.9928 -1.3895  1.2752
  110OSM   H18U11398   0.047   4.826   9.036  1.4925 -1.6119 -0.6053
  110OSM    C1F11399   0.234   5.150  10.364  0.0028 -0.3154 -0.0788
  110OSM     OF11400   0.343   5.201  10.346  0.3244  0.3816 -0.2477
  110OSM    C2F11401   0.117   5.174  10.272  0.3867  0.1747  0.1174
  110OSM    H2F11402   0.101   5.284  10.274 -0.6127  0.0143  2.5493
  110OSM    H2G11403   0.025   5.124  10.310  0.2750  0.9039  0.8106
  110OSM    C3F11404   0.148   5.119  10.133 -0.3959 -0.1819 -0.7952
  110OSM    H3F11405   0.143   5.009  10.123 -1.1714 -0.3101  0.8704
  110OSM    H3G11406   0.244   5.170  10.108 -1.0617  0.9494 -1.0507
  110OSM    C4F11407   0.053   5.166  10.024  0.0794 -0.1849  0.2487
  110OSM    H4F11408  -0.052   5.153  10.057 -0.0590  0.0763 -0.0893
  110OSM    H4G11409   0.059   5.092   9.941  0.2269 -1.0304  1.0075
  110OSM    C5F11410   0.084   5.307   9.955  0.3946 -0.8808  0.6660
  110OSM    H5F11411   0.188   5.314   9.915  0.2288 -0.3064  0.3210
  110OSM    H5G11412   0.090   5.380  10.039 -1.0946  0.5140 -0.4094
  110OSM    C6F11413  -0.008   5.364   9.851 -0.0030  0.1332 -0.5590
  110OSM    H6F11414   0.022   5.462   9.809 -2.5715  1.2832  0.1764
  110OSM    H6G11415  -0.105   5.382   9.901  0.0609 -4.2856  1.3979
  110OSM    C7F11416  -0.012   5.267   9.727 -0.1951 -0.2215  0.4333
  110OSM    H7F11417  -0.093   5.193   9.746 -0.5986 -0.1132 -0.8868
  110OSM    H7G11418   0.088   5.218   9.721 -0.1816 -0.0794 -0.5771
  110OSM    C8F11419  -0.048   5.339   9.600  0.2701  0.0388 -0.3080
  110OSM    H8F11420  -0.123   5.420   9.613 -1.3718 -1.2397 -1.6106
  110OSM    H8G11421  -0.103   5.267   9.536 -1.7315  0.9095  0.4065
  110OSM    C9F11422   0.064   5.409   9.527 -0.4716 -0.0176  0.1374
  110OSM    H9F11423   0.141   5.451   9.593 -2.1523  1.3378  1.3134
  110OSM   C10F11424   0.086   5.426   9.397 -0.2308  0.0138 -0.0127
  110OSM   H10F11425   0.176   5.478   9.359  0.2168 -0.5427  0.2851
  110OSM   C11F11426   0.009   5.365   9.285 -0.1311 -0.4074 -0.1593
  110OSM   H11F11427  -0.088   5.315   9.307 -2.0042  2.6222 -1.2123
  110OSM   H11G11428   0.071   5.291   9.230  1.3531 -0.3384  1.3807
  110OSM   C12F11429  -0.023   5.476   9.178 -0.6274  0.6559  0.5313
  110OSM   H12F11430  -0.094   5.551   9.217 -0.0086  0.7004  1.5886
  110OSM   H12G11431  -0.068   5.418   9.095 -1.2323  3.2561 -0.9885
  110OSM   C13F11432   0.107   5.544   9.113  0.2825  0.3984  0.7991
  110OSM   H13F11433   0.209   5.501   9.128  1.1414  2.7371  1.8796
  110OSM   H13G11434   0.117   5.644   9.160  0.0521  0.6494  0.3221
  110OSM   C14F11435   0.094   5.556   8.961  0.0761 -0.0851  0.3989
  110OSM   H14F11436   0.153   5.643   8.924  0.4162  0.1386  1.4399
  110OSM   H14G11437  -0.008   5.581   8.925 -0.8337 -1.6181  1.8149
  110OSM   C15F11438   0.129   5.424   8.893 -0.7053 -0.5512 -0.2316
  110OSM   H15F11439   0.098   5.345   8.965 -0.9213  1.0034  1.4070
  110OSM   H15G11440   0.240   5.422   8.890 -0.7444 -0.8862 -2.6016
  110OSM   C16F11441   0.067   5.404   8.758  0.5695  0.3923 -0.5631
  110OSM   H16F11442   0.131   5.462   8.687  0.6351 -0.7895 -1.4935
  110OSM   H16G11443  -0.041   5.430   8.761  0.3999 -0.4767  1.5887
  110OSM   C17F11444   0.096   5.263   8.705  0.1420 -0.1681  0.4905
  110OSM   H17F11445   0.041   5.185   8.761  0.3867  0.8257  2.1324
  110OSM   H17G11446   0.204   5.234   8.705  1.2029  3.5241 -1.4648
  110OSM   C18F11447   0.057   5.251   8.558  0.1547  0.2462 -0.0462
  110OSM   H18F11448  -0.047   5.290   8.563 -0.1360 -0.7357  1.8384
  110OSM   H18G11449   0.061   5.147   8.520 -1.0111 -0.1465  0.8580
  110OSM   H18H11450   0.116   5.308   8.483 -1.7674 -0.3352 -2.0655
  111OSM      N11451   1.350   1.681  11.229  0.3304 -0.6151  0.1084
  111OSM    C1511452   1.387   1.815  11.282  0.2789  0.5151 -0.4534
  111OSM   H15A11453   1.360   1.899  11.219 -2.5900 -0.4717 -0.6286
  111OSM   H15B11454   1.489   1.819  11.318  0.2941 -0.2368 -0.4122
  111OSM   H15C11455   1.324   1.822  11.370 -0.2898  2.9624 -1.0097
  111OSM    C1411456   1.363   1.562  11.327 -0.0391 -0.5645 -0.3926
  111OSM   H14A11457   1.320   1.592  11.421  1.9523 -2.1706  1.0870
  111OSM   H14B11458   1.464   1.527  11.346  0.8566  0.7597 -2.4760
  111OSM   H14C11459   1.304   1.478  11.295  1.3708 -1.7625  0.0797
  111OSM    C1311460   1.205   1.689  11.197  0.2588 -0.0419  0.2618
  111OSM   H13A11461   1.180   1.601  11.139 -1.2573 -0.5727  1.6736
  111OSM   H13B11462   1.168   1.771  11.138  1.0942 -1.0023 -1.6442
  111OSM   H13C11463   1.141   1.682  11.284  1.8435  2.4404  1.6817
  111OSM    C1211464   1.422   1.644  11.104  0.1013  0.1686  0.0062
  111OSM   H12A11465   1.380   1.550  11.071 -0.8377 -0.0610  1.7785
  111OSM   H12B11466   1.520   1.626  11.145 -0.2669 -1.6840  0.1158
  111OSM    C1111467   1.445   1.743  10.987 -0.2152 -0.8356  0.1167
  111OSM   H11A11468   1.502   1.689  10.909 -0.4547  0.1342 -0.7583
  111OSM   H11B11469   1.507   1.825  11.028 -1.1250  0.3439 -0.8117
  111OSM      P11470   1.231   1.732  10.832  0.3077  0.7195 -0.3506
  111OSM    O1311471   1.269   1.598  10.788 -0.4854 -0.5608  0.0397
  111OSM    O1411472   1.092   1.750  10.864  0.2577  0.2503  0.2505
  111OSM    O1111473   1.265   1.829  10.719  0.6724 -0.5361 -0.4305
  111OSM    O1211474   1.320   1.798  10.947 -0.2328  0.3338 -0.1008
  111OSM    C1S11475   1.283   1.796  10.580 -0.0468 -0.1450 -0.1770
  111OSM    H1S11476   1.279   1.685  10.566  0.5864  0.0204 -1.7288
  111OSM    H1T11477   1.381   1.826  10.538  1.1477 -2.0824  1.1632
  111OSM     NF11478   1.152   1.770  10.371  0.2229 -0.4395 -0.4474
  111OSM    HNF11479   1.146   1.836  10.296 -1.2690 -2.3128 -2.0353
  111OSM    C2S11480   1.154   1.841  10.499 -0.4633 -0.2153  0.3054
  111OSM    H2S11481   1.068   1.804  10.560 -0.6363 -0.3093  0.0047
  111OSM    C3S11482   1.154   1.995  10.483  0.3238 -0.2021  0.3509
  111OSM    H3S11483   1.245   2.030  10.429 -0.2067  1.0071  0.2131
  111OSM     O311484   1.163   2.061  10.610  0.3185 -0.4843  0.4066
  111OSM    HO311485   1.175   1.984  10.667  2.1433 -1.4735 -1.2156
  111OSM    C4S11486   1.026   2.053  10.417  0.3256 -0.4620  1.1872
  111OSM    H4S11487   0.940   2.052  10.485  0.7367 -1.2836  1.6999
  111OSM    C5S11488   1.016   2.110  10.298 -0.5510 -0.2673 -0.2219
  111OSM    H5S11489   1.106   2.120  10.235 -0.0395  0.1737  0.5675
  111OSM    C6S11490   0.886   2.159  10.244  0.0723 -0.4447  0.2325
  111OSM    H6S11491   0.891   2.251  10.183  1.7332 -1.2591 -0.8987
  111OSM    H6T11492   0.827   2.179  10.336 -1.8816 -3.2041 -0.3531
  111OSM    C7S11493   0.809   2.046  10.172  0.2339 -0.2335  0.3863
  111OSM    H7S11494   0.703   2.074  10.154  1.5563  3.7727 -1.9107
  111OSM    H7T11495   0.806   1.953  10.232  0.8933 -0.7396 -0.3540
  111OSM    C8S11496   0.873   2.002  10.039 -0.2696 -0.2983 -0.2414
  111OSM    H8S11497   0.807   1.923   9.998 -0.5844 -0.7746  1.1556
  111OSM    H8T11498   0.974   1.963  10.065 -0.9185 -1.1187  1.0795
  111OSM    C9S11499   0.895   2.117   9.934 -0.5256 -0.5983  0.3056
  111OSM    H9S11500   0.967   2.187   9.981  1.9621 -1.4765 -2.0671
  111OSM    H9T11501   0.794   2.158   9.910 -0.8681 -1.3308  0.4821
  111OSM   C10S11502   0.952   2.058   9.803  0.2711  0.1910  0.3660
  111OSM   H10S11503   0.874   1.991   9.761  0.4658 -0.6595  1.3252
  111OSM   H10T11504   1.044   1.995   9.802  0.3422  0.3168 -1.5142
  111OSM   C11S11505   0.983   2.162   9.696 -0.7790  0.1835  0.1242
  111OSM   H11S11506   1.081   2.213   9.712  0.1115 -1.8218  1.2841
  111OSM   H11T11507   0.898   2.234   9.696 -1.9637 -1.1371 -2.5076
  111OSM   C12S11508   0.995   2.114   9.552 -0.0392 -0.4196  0.0203
  111OSM   H12S11509   0.912   2.051   9.513 -1.4563  0.8478  0.9176
  111OSM   H12T11510   1.086   2.051   9.541 -1.8782 -2.8460 -1.7131
  111OSM   C13S11511   1.021   2.229   9.457  0.3022  0.1584  0.0843
  111OSM   H13S11512   1.093   2.305   9.494  0.0108  0.4143  0.1295
  111OSM   H13T11513   0.922   2.275   9.437 -0.4637 -0.6099  1.9026
  111OSM   C14S11514   1.084   2.189   9.327  0.7677  0.3723 -0.4372
  111OSM   H14S11515   1.020   2.100   9.308 -1.0572  1.5284  0.1840
  111OSM   H14T11516   1.186   2.160   9.361 -0.3815 -1.6301  1.4723
  111OSM   C15S11517   1.075   2.294   9.220  0.0928  0.1034 -0.2968
  111OSM   H15S11518   1.127   2.383   9.261 -1.5755  1.4553 -1.0843
  111OSM   H15T11519   0.975   2.339   9.203  0.3119  1.1530  1.0605
  111OSM   C16S11520   1.144   2.261   9.088 -0.4999 -0.3488 -0.4787
  111OSM   H16S11521   1.113   2.161   9.050  1.0360 -1.2638  0.5856
  111OSM   H16T11522   1.252   2.255   9.117  0.1607 -2.0564 -3.0865
  111OSM   C17S11523   1.122   2.365   8.982  0.7627 -0.0151  0.7126
  111OSM   H17S11524   1.013   2.357   8.960  0.6033  0.5589  1.2865
  111OSM   H17T11525   1.173   2.337   8.887 -0.2438 -0.2384  0.2247
  111OSM   C18S11526   1.143   2.509   9.024 -0.1249  0.0902 -0.0165
  111OSM   H18S11527   1.137   2.583   8.941  1.5660  1.4878  1.0583
  111OSM   H18T11528   1.252   2.521   9.044  0.4588 -3.1795 -0.9188
  111OSM   H18U11529   1.080   2.540   9.110  1.3516 -0.9330  1.4659
  111OSM    C1F11530   1.147   1.642  10.347 -0.4242  0.5903 -0.2831
  111OSM     OF11531   1.136   1.562  10.437  0.6218  0.2037 -0.2821
  111OSM    C2F11532   1.152   1.596  10.209  0.1196 -0.2604  0.6592
  111OSM    H2F11533   1.156   1.689  10.149 -2.7898  0.2843  1.2338
  111OSM    H2G11534   1.060   1.537  10.187 -0.0553 -0.2004  1.2099
  111OSM    C3F11535   1.272   1.499  10.186 -0.0453 -0.4388  0.2626
  111OSM    H3F11536   1.242   1.399  10.226 -2.1360  0.8541  1.9975
  111OSM    H3G11537   1.368   1.525  10.236 -0.8192 -0.2467  1.6839
  111OSM    C4F11538   1.297   1.475  10.036 -1.1192 -0.4120  0.3008
  111OSM    H4F11539   1.287   1.565   9.973  1.7772  0.0947  0.4876
  111OSM    H4G11540   1.224   1.398  10.004 -3.2498  1.6551  0.0768
  111OSM    C5F11541   1.436   1.420  10.009  0.1015 -0.0813  0.5437
  111OSM    H5F11542   1.453   1.346  10.090 -0.7027  0.5289  1.2833
  111OSM    H5G11543   1.511   1.502  10.012 -0.4709  0.4899 -0.4344
  111OSM    C6F11544   1.465   1.353   9.877  0.9865  0.1808 -0.0397
  111OSM    H6F11545   1.455   1.427   9.795 -0.6080  0.3400  0.2883
  111OSM    H6G11546   1.393   1.273   9.851 -0.3832  1.3696  0.0777
  111OSM    C7F11547   1.599   1.284   9.854 -0.4393 -0.2490 -0.0306
  111OSM    H7F11548   1.597   1.198   9.925  0.5132 -1.8099 -1.8368
  111OSM    H7G11549   1.683   1.348   9.890 -0.0981 -1.1328  0.7804
  111OSM    C8F11550   1.635   1.250   9.701  0.4062 -0.3156  0.3007
  111OSM    H8F11551   1.743   1.227   9.704  0.3365 -0.5241  2.8047
  111OSM    H8G11552   1.627   1.341   9.639 -1.2667  0.2304  1.2829
  111OSM    C9F11553   1.552   1.136   9.642  0.0340 -0.9966 -1.3503
  111OSM    H9F11554   1.543   1.046   9.704 -0.0875  0.1790  0.3602
  111OSM   C10F11555   1.497   1.137   9.517  0.2830 -0.0688  0.1057
  111OSM   H10F11556   1.438   1.049   9.490 -0.8436  0.6837  0.0968
  111OSM   C11F11557   1.497   1.243   9.407 -0.6515 -0.1306  1.1852
  111OSM   H11F11558   1.529   1.343   9.442  1.8541 -0.4265 -0.1250
  111OSM   H11G11559   1.399   1.269   9.364  0.3366  2.9186  0.6699
  111OSM   C12F11560   1.603   1.221   9.298  0.2639 -0.3270  0.0962
  111OSM   H12F11561   1.691   1.166   9.337  0.1519  0.4453  1.4656
  111OSM   H12G11562   1.645   1.312   9.249 -0.1969 -1.2608 -2.0880
  111OSM   C13F11563   1.555   1.132   9.177  0.2284  0.1964 -0.4811
  111OSM   H13F11564   1.494   1.178   9.097  1.3438 -0.7803 -1.9284
  111OSM   H13G11565   1.503   1.041   9.216  0.8664  0.0387  0.0129
  111OSM   C14F11566   1.677   1.069   9.100 -0.5340 -0.2791 -0.1800
  111OSM   H14F11567   1.735   0.992   9.156 -0.1378 -0.3714 -0.7122
  111OSM   H14G11568   1.749   1.152   9.089  1.3798 -1.7561  0.7573
  111OSM   C15F11569   1.633   1.002   8.959  0.1743  0.3398 -0.5628
  111OSM   H15F11570   1.721   1.022   8.895  2.2717 -3.0696  1.1310
  111OSM   H15G11571   1.548   1.054   8.909  0.9870 -0.3977 -2.7552
  111OSM   C16F11572   1.606   0.854   8.973 -0.7477  0.2805 -0.0768
  111OSM   H16F11573   1.510   0.839   9.026 -2.3058  3.4343 -1.8610
  111OSM   H16G11574   1.686   0.810   9.036 -2.1610 -0.2468  1.3865
  111OSM   C17F11575   1.592   0.773   8.838  0.5530 -0.2920  0.3080
  111OSM   H17F11576   1.499   0.816   8.794  1.2528  1.8284  0.8155
  111OSM   H17G11577   1.567   0.665   8.850 -2.2331  0.2957  0.1237
  111OSM   C18F11578   1.705   0.797   8.737 -0.0633 -0.0577 -0.4012
  111OSM   H18F11579   1.702   0.905   8.710 -1.3202  0.5110  1.8653
  111OSM   H18G11580   1.695   0.737   8.644 -2.3330 -0.9546  0.3948
  111OSM   H18H11581   1.806   0.770   8.776  0.7464  2.9039 -0.3425
  112OSM      N11582   1.885   6.291  10.993  0.4977 -0.4034 -0.6078
  112OSM    C1511583   1.782   6.198  11.049  0.6630  0.6346  0.2316
  112OSM   H15A11584   1.797   6.193  11.156  2.3506  1.4396  0.0427
  112OSM   H15B11585   1.785   6.108  10.990  2.3310  0.9951 -0.2526
  112OSM   H15C11586   1.683   6.238  11.031  0.4713  0.7012  1.3649
  112OSM    C1411587   1.859   6.424  11.047 -0.3890  0.3017 -0.7654
  112OSM   H14A11588   1.756   6.457  11.046 -0.2346  0.8714  0.5354
  112OSM   H14B11589   1.922   6.491  10.990  0.0324 -1.4345 -2.4035
  112OSM   H14C11590   1.886   6.418  11.151 -2.1689 -0.0291 -0.2952
  112OSM    C1311591   2.019   6.251  11.034 -0.9054 -0.0603 -0.4106
  112OSM   H13A11592   2.050   6.167  10.973  2.3607  0.5331  0.3194
  112OSM   H13B11593   2.016   6.221  11.138  1.2136 -1.4689 -0.7139
  112OSM   H13C11594   2.085   6.336  11.030 -0.3608 -0.4693 -0.2155
  112OSM    C1211595   1.881   6.288  10.834 -0.5000 -0.5795 -0.0094
  112OSM   H12A11596   1.979   6.315  10.797 -1.4264  1.0524 -1.3460
  112OSM   H12B11597   1.811   6.364  10.803  0.1414  0.2470  0.5494
  112OSM    C1111598   1.847   6.151  10.764  0.3129 -0.8919  0.3329
  112OSM   H11A11599   1.841   6.165  10.654 -2.7847 -0.9513  0.4507
  112OSM   H11B11600   1.743   6.122  10.790  0.2644 -0.2925  0.8198
  112OSM      P11601   1.913   5.906  10.825 -0.0222  0.0522 -0.1191
  112OSM    O1311602   2.025   5.821  10.798 -0.0094 -0.5427  0.3451
  112OSM    O1411603   1.858   5.893  10.964 -0.1736  0.0627 -1.1064
  112OSM    O1111604   1.803   5.863  10.726 -0.2782  0.2890  0.1181
  112OSM    O1211605   1.947   6.054  10.789 -0.0070  0.8270 -0.1047
  112OSM    C1S11606   1.817   5.872  10.587  0.3973 -0.6849 -0.2072
  112OSM    H1S11607   1.922   5.858  10.554  0.6849 -1.5749  1.0344
  112OSM    H1T11608   1.796   5.974  10.550 -0.6612 -0.7595  0.1536
  112OSM     NF11609   1.722   5.798  10.377 -0.4717  0.6250  0.0027
  112OSM    HNF11610   1.636   5.835  10.343 -0.4117  0.2708 -0.5431
  112OSM    C2S11611   1.729   5.764  10.515 -1.0902 -0.5996  0.0948
  112OSM    H2S11612   1.793   5.675  10.530 -1.5684 -0.9343  0.1631
  112OSM    C3S11613   1.589   5.750  10.579 -0.1554  0.0732  0.0973
  112OSM    H3S11614   1.536   5.844  10.551  0.3111 -0.0612 -1.2909
  112OSM     O311615   1.580   5.736  10.722 -0.4669  0.0850 -0.0446
  112OSM    HO311616   1.665   5.767  10.754 -0.5661  0.6075 -0.2807
  112OSM    C4S11617   1.529   5.626  10.510  0.2330 -0.0279  0.9920
  112OSM    H4S11618   1.572   5.528  10.535 -0.3699 -0.6743 -0.4377
  112OSM    C5S11619   1.425   5.632  10.428 -0.4905 -0.6570 -0.4854
  112OSM    H5S11620   1.389   5.731  10.395  0.2719 -0.1684  0.1320
  112OSM    C6S11621   1.367   5.519  10.355 -0.1789  0.3553  0.0639
  112OSM    H6S11622   1.269   5.488  10.395 -1.0834  0.9238 -1.6327
  112OSM    H6T11623   1.438   5.434  10.363 -0.8734 -0.2772 -0.4349
  112OSM    C7S11624   1.351   5.547  10.209 -0.2982  0.5611 -0.2487
  112OSM    H7S11625   1.277   5.628  10.188  1.3437  2.7158  1.9715
  112OSM    H7T11626   1.315   5.457  10.154 -0.1632  0.8418 -0.8034
  112OSM    C8S11627   1.489   5.586  10.137  0.2100  0.7234 -0.1088
  112OSM    H8S11628   1.552   5.494  10.132 -0.4288  0.2961 -0.4319
  112OSM    H8T11629   1.540   5.667  10.193  1.0684 -0.1338  0.3905
  112OSM    C9S11630   1.459   5.633   9.993  0.0721 -0.2837 -0.0129
  112OSM    H9S11631   1.545   5.691   9.953 -0.3500 -1.1256 -2.2045
  112OSM    H9T11632   1.376   5.704  10.016 -1.2358 -1.7646 -0.0681
  112OSM   C10S11633   1.410   5.529   9.889  0.2606 -0.0898 -0.1663
  112OSM   H10S11634   1.305   5.501   9.914  0.7428 -0.5078  1.3798
  112OSM   H10T11635   1.471   5.440   9.915 -0.7991 -0.0557  2.5091
  112OSM   C11S11636   1.423   5.579   9.748  0.0465 -0.2473  0.2518
  112OSM   H11S11637   1.477   5.676   9.743  2.6084 -1.5074  2.3636
  112OSM   H11T11638   1.320   5.595   9.709 -0.0575  1.5777  1.2453
  112OSM   C12S11639   1.492   5.477   9.659  1.0908 -0.4619 -0.2073
  112OSM   H12S11640   1.440   5.381   9.679 -2.2293  1.2784 -0.1577
  112OSM   H12T11641   1.594   5.457   9.699  0.2488  1.7211  3.2659
  112OSM   C13S11642   1.499   5.518   9.509  0.0643 -0.3612  0.2107
  112OSM   H13S11643   1.557   5.608   9.479 -0.3643 -0.3499 -0.5971
  112OSM   H13T11644   1.394   5.543   9.483  0.4694 -0.1875 -1.3464
  112OSM   C14S11645   1.548   5.409   9.414 -0.2251  0.2420  0.1895
  112OSM   H14S11646   1.482   5.319   9.419 -1.3833  1.1566  2.0787
  112OSM   H14T11647   1.645   5.372   9.453  0.7411  2.6912  0.2071
  112OSM   C15S11648   1.542   5.454   9.265 -0.2586 -0.2928 -0.1170
  112OSM   H15S11649   1.614   5.538   9.258  0.5204 -0.8775  0.7441
  112OSM   H15T11650   1.442   5.487   9.230  0.0163  0.6851 -0.0069
  112OSM   C16S11651   1.593   5.341   9.179 -0.6431  1.0432 -0.0479
  112OSM   H16S11652   1.533   5.249   9.197  2.6252 -1.1517 -0.0152
  112OSM   H16T11653   1.688   5.309   9.226 -0.8051  0.9502  0.2210
  112OSM   C17S11654   1.628   5.383   9.037 -0.0480 -0.3478  0.5695
  112OSM   H17S11655   1.698   5.469   9.027  0.1665 -0.8637 -3.0224
  112OSM   H17T11656   1.534   5.418   8.991 -2.2519 -2.0711  3.6130
  112OSM   C18S11657   1.680   5.273   8.956  0.1655 -0.1525 -0.5537
  112OSM   H18S11658   1.691   5.311   8.852 -0.5929  2.8458  0.3965
  112OSM   H18T11659   1.611   5.186   8.956 -0.9840  0.7315  0.1971
  112OSM   H18U11660   1.776   5.235   8.997 -1.0772 -2.7104  0.1048
  112OSM    C1F11661   1.823   5.769  10.288  0.0636 -0.0038  0.1306
  112OSM     OF11662   1.922   5.707  10.318  0.3535  1.1725  0.3940
  112OSM    C2F11663   1.810   5.827  10.146  0.1087 -0.7814  0.4920
  112OSM    H2F11664   1.847   5.932  10.144  1.6253 -1.2420  3.0583
  112OSM    H2G11665   1.706   5.824  10.108  1.2269  0.0160 -2.8546
  112OSM    C3F11666   1.876   5.752  10.042  0.3422 -0.4227 -0.3777
  112OSM    H3F11667   1.821   5.656  10.028 -1.1305  0.5998 -1.7313
  112OSM    H3G11668   1.986   5.744  10.057  0.5935  1.1894 -1.2261
  112OSM    C4F11669   1.860   5.819   9.902 -0.1172  0.2681  0.7328
  112OSM    H4F11670   1.912   5.916   9.912 -1.8490  1.2745  0.1898
  112OSM    H4G11671   1.753   5.830   9.877  0.0695 -0.8154 -0.6112
  112OSM    C5F11672   1.920   5.735   9.785 -0.9016  0.1735  0.2047
  112OSM    H5F11673   1.866   5.638   9.784 -0.5168 -0.0408  0.4470
  112OSM    H5G11674   2.027   5.718   9.806 -0.8683 -0.3450 -0.3739
  112OSM    C6F11675   1.918   5.811   9.656 -0.1355 -0.2192  0.9908
  112OSM    H6F11676   2.008   5.876   9.644  1.8400 -3.0120  0.2432
  112OSM    H6G11677   1.832   5.878   9.635  0.8495  1.0582  0.9381
  112OSM    C7F11678   1.928   5.712   9.534 -0.2637  0.9043 -0.2979
  112OSM    H7F11679   1.832   5.657   9.544  0.4525 -0.3839 -0.4085
  112OSM    H7G11680   2.013   5.643   9.553 -0.7220  1.0800  2.4713
  112OSM    C8F11681   1.944   5.780   9.399 -0.0797 -0.2232 -0.4839
  112OSM    H8F11682   2.024   5.856   9.405 -0.3689  0.1128 -0.8553
  112OSM    H8G11683   1.855   5.841   9.373 -0.1566  0.0721  0.4680
  112OSM    C9F11684   1.942   5.678   9.293 -0.1454 -0.6943  0.6260
  112OSM    H9F11685   1.842   5.635   9.278 -0.3073 -0.8954  2.1486
  112OSM   C10F11686   2.032   5.648   9.199  0.6229 -0.6411 -0.1882
  112OSM   H10F11687   2.013   5.572   9.121  0.9167 -1.9269  0.9704
  112OSM   C11F11688   2.177   5.703   9.204  0.1895  0.0490  0.8119
  112OSM   H11F11689   2.234   5.620   9.252 -0.9823 -0.9205  0.5450
  112OSM   H11G11690   2.184   5.788   9.276  1.7989  0.2749  0.4095
  112OSM   C12F11691   2.248   5.741   9.075  0.4859  0.0231 -0.1107
  112OSM   H12F11692   2.340   5.799   9.099 -0.0811  1.3507 -1.0783
  112OSM   H12G11693   2.187   5.808   9.011  0.8834 -1.8290 -2.4663
  112OSM   C13F11694   2.267   5.611   8.999  0.5650  0.3016  0.1557
  112OSM   H13F11695   2.169   5.561   8.986  0.2544  0.8519  0.3640
  112OSM   H13G11696   2.336   5.547   9.059 -0.6111 -0.8362  0.3211
  112OSM   C14F11697   2.325   5.632   8.863 -0.4905 -0.3484 -0.1809
  112OSM   H14F11698   2.387   5.546   8.831  0.5159  0.1528  0.3915
  112OSM   H14G11699   2.392   5.720   8.861 -1.8334  0.7968  2.4804
  112OSM   C15F11700   2.227   5.654   8.755  0.2057  0.0854  0.7103
  112OSM   H15F11701   2.190   5.759   8.747  0.5230  0.1624  0.2406
  112OSM   H15G11702   2.137   5.588   8.759  0.1881  0.0023 -0.9089
  112OSM   C16F11703   2.281   5.620   8.614 -0.7331 -0.2292 -0.2636
  112OSM   H16F11704   2.329   5.520   8.626 -0.9918 -0.0516  2.5308
  112OSM   H16G11705   2.363   5.691   8.591 -1.1093  0.0791 -0.6517
  112OSM   C17F11706   2.178   5.633   8.509 -0.5610  1.3757 -0.5708
  112OSM   H17F11707   2.084   5.577   8.530  0.1303  1.0181  1.7094
  112OSM   H17G11708   2.226   5.586   8.421  0.0045  0.9663 -0.0424
  112OSM   C18F11709   2.147   5.781   8.474  0.2750 -0.5902  0.4854
  112OSM   H18F11710   2.244   5.811   8.429  1.2514 -3.4214  0.5800
  112OSM   H18G11711   2.122   5.847   8.560  0.4391  1.0693 -0.7069
  112OSM   H18H11712   2.062   5.795   8.405 -1.5263 -0.8089  2.6062
  113OSM      N11713   6.200   2.028  11.085 -0.0483  0.1315 -0.4336
  113OSM    C1511714   6.236   2.145  11.159 -1.1577  0.1403 -0.1767
  113OSM   H15A11715   6.341   2.165  11.140 -0.9155 -1.8184 -0.9666
  113OSM   H15B11716   6.226   2.125  11.264 -0.6173  0.8897  0.0226
  113OSM   H15C11717   6.177   2.230  11.129 -1.1734  0.3065  0.3168
  113OSM    C1411718   6.294   1.916  11.108  0.0032 -0.2984 -0.4852
  113OSM   H14A11719   6.270   1.838  11.036 -0.5603 -1.0838  0.5461
  113OSM   H14B11720   6.287   1.880  11.209  3.0017  0.1941 -0.0685
  113OSM   H14C11721   6.397   1.945  11.094 -0.1287  2.0531  2.9255
  113OSM    C1311722   6.058   1.989  11.114 -0.2690 -0.3089 -0.6697
  113OSM   H13A11723   6.023   1.906  11.055  3.1668 -2.2754 -0.1159
  113OSM   H13B11724   5.995   2.075  11.097 -1.8895 -1.3045  0.1306
  113OSM   H13C11725   6.045   1.953  11.215  1.8300 -0.9498 -0.5945
  113OSM    C1211726   6.209   2.056  10.930 -0.4400 -0.8111 -0.1161
  113OSM   H12A11727   6.236   1.968  10.873 -2.5517 -1.4836 -0.1156
  113OSM   H12B11728   6.295   2.120  10.923 -3.8192  3.8843 -0.8173
  113OSM    C1111729   6.089   2.138  10.865 -0.3172  1.1059 -0.3031
  113OSM   H11A11730   5.995   2.080  10.878 -0.0995  0.8321  0.0678
  113OSM   H11B11731   6.127   2.144  10.761 -0.7095 -1.3002 -0.6083
  113OSM      P11732   5.951   2.338  10.967 -0.1853 -0.1838  0.2270
  113OSM    O1311733   5.901   2.297  11.102 -0.9995  0.1432  0.7904
  113OSM    O1411734   5.973   2.487  10.946  0.5272 -0.1760 -0.6599
  113OSM    O1111735   5.855   2.285  10.857  0.1667  0.1815 -0.2402
  113OSM    O1211736   6.086   2.265  10.929 -0.5707  0.2519 -0.4552
  113OSM    C1S11737   5.853   2.348  10.725  0.5605 -0.1165  0.0897
  113OSM    H1S11738   5.906   2.275  10.661  2.7492 -0.9022  2.7582
  113OSM    H1T11739   5.903   2.446  10.707  1.8537 -0.8459 -0.3326
  113OSM     NF11740   5.723   2.437  10.531  0.3308  0.1375  0.3248
  113OSM    HNF11741   5.732   2.535  10.517  1.4290 -0.1914 -1.4926
  113OSM    C2S11742   5.711   2.377  10.669  0.4722 -1.0156  0.5306
  113OSM    H2S11743   5.659   2.279  10.661  0.2571 -0.9186  0.7468
  113OSM    C3S11744   5.643   2.463  10.782  0.1869  0.5134 -0.5805
  113OSM    H3S11745   5.713   2.545  10.808 -0.5919  0.5054  1.6466
  113OSM     O311746   5.622   2.393  10.910  0.0816  0.2371 -0.2690
  113OSM    HO311747   5.693   2.328  10.909 -1.1742 -1.2196  1.3706
  113OSM    C4S11748   5.509   2.518  10.735 -0.2651 -0.0791  0.4113
  113OSM    H4S11749   5.442   2.455  10.675  1.7671 -1.2112 -0.7182
  113OSM    C5S11750   5.485   2.650  10.730  0.2813  0.3790 -0.3640
  113OSM    H5S11751   5.558   2.720  10.774  1.8247 -1.2669 -0.2470
  113OSM    C6S11752   5.367   2.722  10.669  0.1595 -0.6175 -0.3566
  113OSM    H6S11753   5.326   2.796  10.742  0.4553  0.6545 -1.4551
  113OSM    H6T11754   5.288   2.651  10.640 -1.0290  1.0947 -1.4339
  113OSM    C7S11755   5.411   2.794  10.540 -0.3079 -0.6944  0.2617
  113OSM    H7S11756   5.497   2.860  10.565 -0.5598 -0.8361  1.4818
  113OSM    H7T11757   5.325   2.863  10.527  0.0631 -0.1153  0.8210
  113OSM    C8S11758   5.457   2.708  10.419  0.5069  0.0941  0.1790
  113OSM    H8S11759   5.369   2.641  10.404  1.6632 -1.3726 -0.1082
  113OSM    H8T11760   5.551   2.652  10.437 -0.4135 -1.5684 -0.0105
  113OSM    C9S11761   5.450   2.787  10.285  0.1432  0.7215  0.0493
  113OSM    H9S11762   5.358   2.850  10.292 -0.5379 -0.2154 -0.2582
  113OSM    H9T11763   5.425   2.708  10.211 -1.5556 -0.3549  1.7110
  113OSM   C10S11764   5.585   2.848  10.250 -0.1155 -0.5208  0.4127
  113OSM   H10S11765   5.667   2.773  10.254 -1.1860 -1.8639 -1.9889
  113OSM   H10T11766   5.594   2.920  10.335  0.0354  0.7118 -0.6375
  113OSM   C11S11767   5.579   2.926  10.115 -0.1125  0.1312 -1.5894
  113OSM   H11S11768   5.654   3.008  10.109 -2.6582  2.5877 -1.0127
  113OSM   H11T11769   5.482   2.979  10.114  0.5331  1.4700  1.0450
  113OSM   C12S11770   5.585   2.834   9.995 -0.2125 -0.4451 -0.7541
  113OSM   H12S11771   5.519   2.745  10.000  0.5774 -1.0831 -1.4759
  113OSM   H12T11772   5.689   2.794   9.997 -0.4457 -1.0361 -0.3893
  113OSM   C13S11773   5.548   2.897   9.854  0.5389 -0.0225 -0.6647
  113OSM   H13S11774   5.577   3.005   9.852  0.5342 -0.0346 -1.6286
  113OSM   H13T11775   5.440   2.897   9.832 -0.0094 -0.3147  1.8951
  113OSM   C14S11776   5.609   2.824   9.732 -0.0253 -0.2719  0.2157
  113OSM   H14S11777   5.719   2.811   9.741  0.2434  2.0427  0.6462
  113OSM   H14T11778   5.595   2.889   9.643 -2.3737 -0.5170  0.3639
  113OSM   C15S11779   5.540   2.686   9.699  0.5225  0.5911  0.4599
  113OSM   H15S11780   5.537   2.631   9.796 -1.5484  0.2101  0.2181
  113OSM   H15T11781   5.604   2.625   9.631  1.1535  0.8130  0.8562
  113OSM   C16S11782   5.410   2.696   9.627 -0.0297 -0.5570 -0.2002
  113OSM   H16S11783   5.350   2.743   9.708 -0.1963 -2.8853  1.0632
  113OSM   H16T11784   5.384   2.590   9.609 -1.1469  0.2755 -3.9633
  113OSM   C17S11785   5.422   2.772   9.495 -0.2840  0.6593  0.8371
  113OSM   H17S11786   5.468   2.873   9.494 -0.7718  0.8758 -0.3359
  113OSM   H17T11787   5.317   2.790   9.462  0.1444  4.8575  1.4628
  113OSM   C18S11788   5.509   2.692   9.391  0.1492  0.2340  0.2498
  113OSM   H18S11789   5.491   2.582   9.386 -0.3328  0.3920 -2.3078
  113OSM   H18T11790   5.616   2.693   9.420  0.7324 -1.7321 -1.6792
  113OSM   H18U11791   5.493   2.729   9.288  0.8845 -1.4533 -0.4836
  113OSM    C1F11792   5.764   2.362  10.430  0.0088 -1.1278  0.2882
  113OSM     OF11793   5.769   2.244  10.436 -0.3340 -0.3488  0.1755
  113OSM    C2F11794   5.821   2.435  10.313  0.2837  0.3935  0.3857
  113OSM    H2F11795   5.923   2.476  10.333  0.4203  0.0486  0.4080
  113OSM    H2G11796   5.758   2.525  10.307  1.2226  1.0704  0.5021
  113OSM    C3F11797   5.802   2.365  10.176  0.3505 -0.3160  0.6123
  113OSM    H3F11798   5.695   2.334  10.174  0.3576 -0.3193  0.2662
  113OSM    H3G11799   5.861   2.271  10.177  0.8269 -0.0200  0.4084
  113OSM    C4F11800   5.833   2.458  10.058 -0.6478 -0.2271  0.0785
  113OSM    H4F11801   5.941   2.485  10.053 -0.3342 -1.1635  1.5145
  113OSM    H4G11802   5.785   2.558  10.066 -0.6784 -0.2081 -0.3235
  113OSM    C5F11803   5.776   2.408   9.926  0.2797  0.0507  0.2789
  113OSM    H5F11804   5.801   2.482   9.847  0.9200  0.6637  1.0533
  113OSM    H5G11805   5.665   2.395   9.922 -0.1690  3.2823  0.5966
  113OSM    C6F11806   5.848   2.282   9.872 -0.0237  0.3103  0.4698
  113OSM    H6F11807   5.822   2.195   9.935 -0.8627  0.8949  0.9389
  113OSM    H6G11808   5.955   2.294   9.900  0.3728 -0.7999 -0.5523
  113OSM    C7F11809   5.823   2.261   9.721  0.1719 -0.4988  0.1145
  113OSM    H7F11810   5.714   2.279   9.713  0.6156  1.3499 -2.4387
  113OSM    H7G11811   5.843   2.156   9.692 -1.8895 -0.0063 -3.2762
  113OSM    C8F11812   5.897   2.359   9.625 -0.0301  0.3162  0.1491
  113OSM    H8F11813   6.004   2.329   9.628 -0.9534 -3.1204  1.1977
  113OSM    H8G11814   5.888   2.463   9.664 -2.9310  0.0326  0.3255
  113OSM    C9F11815   5.841   2.355   9.484 -0.4078  0.3018  0.3357
  113OSM    H9F11816   5.739   2.391   9.468  0.1541  1.9594  0.4042
  113OSM   C10F11817   5.912   2.340   9.367 -0.0193 -0.0643  0.4175
  113OSM   H10F11818   5.852   2.347   9.276  2.8149  0.8634 -1.4453
  113OSM   C11F11819   6.058   2.299   9.356  0.4535 -0.1167  0.7152
  113OSM   H11F11820   6.067   2.189   9.367 -0.4221  0.0867  4.0136
  113OSM   H11G11821   6.124   2.341   9.435  0.1266  3.1880 -0.6783
  113OSM   C12F11822   6.121   2.360   9.225 -0.4938  0.1894 -0.2197
  113OSM   H12F11823   6.224   2.318   9.214 -0.4968  0.0461  0.2718
  113OSM   H12G11824   6.123   2.470   9.241  2.2760  0.0757  0.4935
  113OSM   C13F11825   6.047   2.316   9.100 -0.5574  0.2120 -0.4289
  113OSM   H13F11826   5.949   2.363   9.079 -2.2886 -2.8062  0.5178
  113OSM   H13G11827   6.012   2.211   9.107  1.5219 -0.3216  2.9859
  113OSM   C14F11828   6.137   2.334   8.973 -0.1219 -0.0575  0.1306
  113OSM   H14F11829   6.235   2.282   8.974  0.2221  0.5898  0.4675
  113OSM   H14G11830   6.161   2.443   8.975  0.6062 -0.2220  0.9984
  113OSM   C15F11831   6.051   2.312   8.842  0.2535  0.4873 -0.7663
  113OSM   H15F11832   5.959   2.374   8.846 -0.3518 -0.4527  0.2874
  113OSM   H15G11833   6.024   2.205   8.847  2.1032 -0.0150 -0.9829
  113OSM   C16F11834   6.115   2.342   8.713 -0.3993 -0.3789  0.5867
  113OSM   H16F11835   6.216   2.296   8.708  0.5395  1.5463  1.0854
  113OSM   H16G11836   6.140   2.450   8.707 -1.0921 -0.2503  0.0097
  113OSM   C17F11837   6.041   2.292   8.591 -0.7625 -0.4386 -1.2530
  113OSM   H17F11838   6.052   2.182   8.598  1.6486 -0.0960  1.1374
  113OSM   H17G11839   6.087   2.326   8.495  0.6947  2.9884  0.5248
  113OSM   C18F11840   5.897   2.332   8.583  0.1184  0.0340 -0.4374
  113OSM   H18F11841   5.894   2.441   8.559 -3.5858 -0.1373 -0.9633
  113OSM   H18G11842   5.833   2.312   8.672 -0.9727 -0.0185 -1.2241
  113OSM   H18H11843   5.844   2.279   8.502 -2.4952  1.7427  0.0794
  114OSM      N11844   0.883   5.669  11.210 -0.0605 -0.4340 -0.0727
  114OSM    C1511845   0.944   5.666  11.348 -0.1083  0.1603 -0.0314
  114OSM   H15A11846   0.860   5.658  11.415 -0.3886 -0.1784 -0.4234
  114OSM   H15B11847   0.991   5.757  11.384  0.6443 -0.6177  0.9712
  114OSM   H15C11848   1.019   5.590  11.364  0.3273  0.6486  0.2854
  114OSM    C1411849   0.801   5.538  11.191  0.8212  0.1617  0.3895
  114OSM   H14A11850   0.736   5.540  11.104  0.8395 -0.0850  0.3686
  114OSM   H14B11851   0.742   5.513  11.278 -2.2512  0.1292 -1.5917
  114OSM   H14C11852   0.857   5.446  11.182 -1.2100 -0.9558 -1.2025
  114OSM    C1311853   0.782   5.780  11.215  0.1483  0.3477  0.6044
  114OSM   H13A11854   0.704   5.752  11.285 -0.2976  0.2428  0.0767
  114OSM   H13B11855   0.730   5.795  11.121 -1.1032 -2.6967  0.7392
  114OSM   H13C11856   0.828   5.869  11.254  3.0264 -1.8465  2.4294
  114OSM    C1211857   0.987   5.698  11.103  0.2573 -0.0878 -0.1437
  114OSM   H12A11858   1.062   5.620  11.101 -0.8728 -1.2075  0.2334
  114OSM   H12B11859   1.048   5.781  11.133  0.3411 -0.5086  0.8703
  114OSM    C1111860   0.939   5.719  10.954 -0.3415 -0.3079  0.1887
  114OSM   H11A11861   0.900   5.623  10.915 -1.8379  1.0626 -1.7866
  114OSM   H11B11862   1.038   5.734  10.905 -0.4907  1.0062  0.2684
  114OSM      P11863   0.861   5.966  10.916 -0.1706  0.2908 -0.4939
  114OSM    O1311864   0.732   6.037  10.937  0.1122 -0.1442 -0.1820
  114OSM    O1411865   0.978   6.002  11.006 -0.0920 -0.1900 -0.9050
  114OSM    O1111866   0.899   5.974  10.766  0.9642  0.1417 -0.2327
  114OSM    O1211867   0.833   5.810  10.930 -0.3273  0.2046  0.0033
  114OSM    C1S11868   0.826   5.882  10.675 -1.2530  0.2338 -0.5395
  114OSM    H1S11869   0.719   5.912  10.681 -0.4472  3.2806 -0.6292
  114OSM    H1T11870   0.826   5.777  10.712 -0.3825 -0.4179 -2.3227
  114OSM     NF11871   0.790   5.789  10.448  0.0339  0.2472 -0.0376
  114OSM    HNF11872   0.814   5.692  10.458  1.1805  0.4689 -0.5311
  114OSM    C2S11873   0.869   5.884  10.525 -0.7344 -0.1005  0.2218
  114OSM    H2S11874   0.843   5.989  10.498 -0.6682 -0.2325 -0.3818
  114OSM    C3S11875   1.025   5.869  10.508  0.4363  0.2841 -0.2063
  114OSM    H3S11876   1.063   5.781  10.563  0.5813 -0.3673 -1.3412
  114OSM     O311877   1.094   5.983  10.555 -0.2424 -0.7576 -0.9723
  114OSM    HO311878   1.032   6.024  10.616  0.3642  1.4496 -1.7700
  114OSM    C4S11879   1.055   5.861  10.361  0.2273  0.8714 -0.6114
  114OSM    H4S11880   1.080   5.758  10.333  0.7591 -0.3650  4.0442
  114OSM    C5S11881   1.054   5.963  10.269 -0.2060 -0.0473  0.0382
  114OSM    H5S11882   1.036   6.062  10.312 -3.1355 -0.8367  0.7315
  114OSM    C6S11883   1.099   5.950  10.119 -0.5308 -0.3967  0.5583
  114OSM    H6S11884   1.201   5.985  10.092 -1.7857  1.6544 -1.6716
  114OSM    H6T11885   1.039   6.022  10.060 -0.1754 -0.4212  0.1641
  114OSM    C7S11886   1.067   5.825  10.042  0.5279 -0.4045  0.3850
  114OSM    H7S11887   0.958   5.805  10.048  0.1413  1.2594 -0.6598
  114OSM    H7T11888   1.121   5.740  10.088  0.1058  0.0194  1.6847
  114OSM    C8S11889   1.113   5.839   9.900 -0.3227  0.1750  0.0552
  114OSM    H8S11890   1.217   5.877   9.894  0.2254 -0.7189  3.0344
  114OSM    H8T11891   1.051   5.922   9.859  1.3091  1.1894 -0.3892
  114OSM    C9S11892   1.070   5.719   9.818 -0.7950 -0.2812 -0.0239
  114OSM    H9S11893   0.968   5.688   9.848 -0.9121 -2.7826 -2.8474
  114OSM    H9T11894   1.145   5.641   9.843 -0.1653 -0.2710 -1.8029
  114OSM   C10S11895   1.072   5.749   9.666 -0.1055 -0.1361  1.0249
  114OSM   H10S11896   1.168   5.799   9.641 -1.0567  0.9001 -0.6508
  114OSM   H10T11897   0.990   5.821   9.645  0.7937  0.5747 -0.1507
  114OSM   C11S11898   1.043   5.625   9.579  0.4000 -0.6422 -0.0515
  114OSM   H11S11899   0.943   5.588   9.608 -0.0356  1.3787  1.1234
  114OSM   H11T11900   1.116   5.545   9.602 -0.1959 -0.9701  0.7020
  114OSM   C12S11901   1.052   5.645   9.433  0.6071 -0.4489 -0.4909
  114OSM   H12S11902   1.130   5.721   9.411  0.3925 -0.2000 -0.3957
  114OSM   H12T11903   0.957   5.685   9.393  1.6942  1.6573 -1.0737
  114OSM   C13S11904   1.080   5.509   9.359 -0.2581  0.1761 -0.1864
  114OSM   H13S11905   1.005   5.431   9.385  0.6229 -1.1183 -1.4533
  114OSM   H13T11906   1.174   5.463   9.396 -0.2040 -0.7971 -1.5182
  114OSM   C14S11907   1.092   5.529   9.203 -0.1286 -0.0990  0.0511
  114OSM   H14S11908   1.143   5.627   9.195 -2.3977  0.8814 -2.8195
  114OSM   H14T11909   0.988   5.552   9.175  0.4591  0.4368 -1.7212
  114OSM   C15S11910   1.145   5.407   9.127 -0.5797  0.7577  0.1804
  114OSM   H15S11911   1.086   5.323   9.169  1.9724 -0.4083  1.5024
  114OSM   H15T11912   1.253   5.394   9.149 -1.0413  0.2020  2.2993
  114OSM   C16S11913   1.120   5.407   8.971 -0.7020  1.3377  0.0272
  114OSM   H16S11914   1.189   5.475   8.917 -0.4421 -0.4480 -1.9221
  114OSM   H16T11915   1.017   5.445   8.958 -0.6543  0.7858 -2.0738
  114OSM   C17S11916   1.146   5.268   8.914  0.2980  0.0830  0.0446
  114OSM   H17S11917   1.124   5.272   8.805 -0.6400 -0.2156  0.2178
  114OSM   H17T11918   1.073   5.193   8.951  1.7322 -0.1238  2.5407
  114OSM   C18S11919   1.284   5.204   8.936  0.5487 -0.0360  0.0827
  114OSM   H18S11920   1.303   5.188   9.044  0.4608 -1.0206 -0.0438
  114OSM   H18T11921   1.364   5.269   8.895  1.2396 -1.0155 -0.1444
  114OSM   H18U11922   1.304   5.107   8.885  0.6276 -1.5415  2.8816
  114OSM    C1F11923   0.664   5.809  10.414 -0.6682  0.1202  0.4115
  114OSM     OF11924   0.596   5.901  10.461 -0.1970  0.3873 -0.1490
  114OSM    C2F11925   0.627   5.729  10.296 -0.0667  0.5105  0.4221
  114OSM    H2F11926   0.643   5.621  10.314 -1.4338  0.5622  2.1160
  114OSM    H2G11927   0.697   5.766  10.219  1.3950  1.9031  2.3669
  114OSM    C3F11928   0.477   5.741  10.253 -0.3115  0.1324 -0.1916
  114OSM    H3F11929   0.457   5.850  10.248  1.2763  0.5280  1.3564
  114OSM    H3G11930   0.413   5.693  10.330  0.2507  1.3928  1.0988
  114OSM    C4F11931   0.442   5.679  10.116 -0.2156 -0.0940 -0.0007
  114OSM    H4F11932   0.449   5.568  10.117 -0.1065 -0.0866  0.0194
  114OSM    H4G11933   0.519   5.721  10.048  0.6196 -1.4001  0.1163
  114OSM    C5F11934   0.296   5.717  10.071  0.2200 -0.4257  0.4259
  114OSM    H5F11935   0.293   5.827  10.058  2.2837 -0.5898 -1.6599
  114OSM    H5G11936   0.227   5.693  10.155 -0.0141  1.5640  0.8252
  114OSM    C6F11937   0.243   5.640   9.954 -0.6318 -0.0819 -0.6029
  114OSM    H6F11938   0.134   5.659   9.945  0.1616  4.4644 -1.8406
  114OSM    H6G11939   0.241   5.534   9.985 -0.7740  0.1522  0.2014
  114OSM    C7F11940   0.315   5.667   9.818 -0.0728  0.5137  0.0603
  114OSM    H7F11941   0.309   5.569   9.765  1.2505  0.4154  0.0815
  114OSM    H7G11942   0.425   5.686   9.821 -0.1718  1.0947  0.0665
  114OSM    C8F11943   0.250   5.772   9.726  0.8120 -0.4309 -1.0645
  114OSM    H8F11944   0.252   5.868   9.781 -0.5844 -1.2005  0.3432
  114OSM    H8G11945   0.148   5.738   9.699  0.0037  1.4174 -0.4024
  114OSM    C9F11946   0.328   5.788   9.596 -1.0181 -0.1742 -0.3863
  114OSM    H9F11947   0.435   5.800   9.618 -1.2070 -1.9622  1.7365
  114OSM   C10F11948   0.278   5.793   9.470  0.0953 -0.4058 -0.0213
  114OSM   H10F11949   0.333   5.820   9.379 -0.2986  1.0160  0.1466
  114OSM   C11F11950   0.135   5.777   9.438  0.2837  0.5496 -0.3564
  114OSM   H11F11951   0.071   5.731   9.515  1.2551  0.5424  0.4580
  114OSM   H11G11952   0.133   5.697   9.361  1.4934  2.0914 -2.0614
  114OSM   C12F11953   0.073   5.907   9.371 -0.5493 -0.3675  0.3840
  114OSM   H12F11954   0.098   5.992   9.438  2.2435 -1.4961  0.8355
  114OSM   H12G11955  -0.037   5.894   9.358 -0.8668  1.3527  1.2394
  114OSM   C13F11956   0.131   5.941   9.238 -0.0890  0.2587 -0.5555
  114OSM   H13F11957   0.222   5.882   9.214 -0.4022 -0.4628  0.0026
  114OSM   H13G11958   0.158   6.048   9.247 -1.1447  0.5972 -1.3972
  114OSM   C14F11959   0.020   5.931   9.129 -0.2757  0.2788 -0.6109
  114OSM   H14F11960  -0.036   6.026   9.139  1.3099  1.4378 -2.4694
  114OSM   H14G11961  -0.043   5.846   9.163 -0.6232  0.4338 -0.8782
  114OSM   C15F11962   0.068   5.923   8.981  0.2598  0.0222  0.2495
  114OSM   H15F11963   0.145   5.842   8.981  0.5770  0.3271  1.3986
  114OSM   H15G11964   0.119   6.016   8.947 -1.1314  0.5269 -0.4981
  114OSM   C16F11965  -0.051   5.885   8.886 -0.8331  0.5307 -0.1332
  114OSM   H16F11966  -0.122   5.970   8.875 -0.6334  0.7733  0.3822
  114OSM   H16G11967  -0.107   5.803   8.935  0.4708 -0.4326 -0.2252
  114OSM   C17F11968  -0.024   5.845   8.742 -0.4514 -0.0561  0.5699
  114OSM   H17F11969  -0.115   5.838   8.679  0.2762  1.8200 -0.7491
  114OSM   H17G11970   0.033   5.750   8.749 -0.6051 -0.1190  1.0420
  114OSM   C18F11971   0.063   5.951   8.676 -0.4377  0.0417  0.4330
  114OSM   H18F11972   0.152   5.971   8.739  0.2571  0.9462 -0.8094
  114OSM   H18G11973   0.003   6.043   8.659  0.5682  0.3925 -1.2831
  114OSM   H18H11974   0.094   5.907   8.579 -1.9476 -2.3362  1.0095
  115OSM      N11975   4.073   4.886  10.928  0.1844  0.1172  0.4490
  115OSM    C1511976   4.222   4.876  10.931 -0.0754  0.3530 -1.0617
  115OSM   H15A11977   4.275   4.931  11.006  0.4344 -0.4302 -0.8393
  115OSM   H15B11978   4.267   4.912  10.840 -0.8938  1.2720 -1.1159
  115OSM   H15C11979   4.247   4.771  10.927 -0.9136  0.1452 -1.1391
  115OSM    C1411980   4.013   4.836  11.053  0.4282 -0.2076  0.1461
  115OSM   H14A11981   4.065   4.888  11.132  3.7250 -1.1591 -1.3206
  115OSM   H14B11982   4.022   4.729  11.066  0.5326  0.0864  2.6197
  115OSM   H14C11983   3.907   4.858  11.055  1.0766  3.2159  0.4667
  115OSM    C1311984   4.037   5.036  10.906  0.3132  0.5144 -0.0692
  115OSM   H13A11985   4.077   5.094  10.987 -0.8944 -0.0809  0.9694
  115OSM   H13B11986   3.930   5.050  10.900  0.4931  2.0418  0.1639
  115OSM   H13C11987   4.066   5.070  10.808 -4.9478  1.2597 -1.5032
  115OSM    C1211988   4.013   4.804  10.810  0.1041 -0.3545 -0.5895
  115OSM   H12A11989   4.023   4.868  10.723 -0.9352  2.4956  1.3219
  115OSM   H12B11990   3.907   4.795  10.828 -0.4358  5.2740 -0.0303
  115OSM    C1111991   4.062   4.660  10.776 -0.3822  0.0362 -0.1944
  115OSM   H11A11992   4.169   4.684  10.757 -0.2423 -1.2407 -1.1140
  115OSM   H11B11993   4.017   4.613  10.686  1.5444 -3.2101  0.4428
  115OSM      P11994   4.179   4.497  10.949  0.3981  0.2433 -0.3106
  115OSM    O1311995   4.286   4.594  10.962 -0.5125  0.1221 -0.3389
  115OSM    O1411996   4.134   4.426  11.070 -0.1870 -0.3245 -0.1798
  115OSM    O1111997   4.226   4.397  10.838  0.0504 -0.2140 -0.0667
  115OSM    O1211998   4.048   4.569  10.890  0.3684  0.1691  0.8456
  115OSM    C1S11999   4.141   4.328  10.743  0.7433 -0.0214 -0.3728
  115OSM    H1S12000   4.120   4.400  10.661  0.8219 -1.1593 -1.3986
  115OSM    H1T12001   4.042   4.311  10.789  0.6484  0.7283 -0.2829
  115OSM     NF12002   4.167   4.186  10.539  0.0770 -1.1411 -0.3458
  115OSM    HNF12003   4.071   4.167  10.521 -0.0011 -0.4315 -0.7070
  115OSM    C2S12004   4.206   4.200  10.680 -0.0555 -0.1899 -0.0779
  115OSM    H2S12005   4.317   4.204  10.691 -0.1559  1.1602  0.5312
  115OSM    C3S12006   4.166   4.071  10.768  0.6580 -0.7705  0.1160
  115OSM    H3S12007   4.055   4.069  10.762  0.5857  0.8751  0.4879
  115OSM     O312008   4.209   4.088  10.904  0.4796  0.3616  0.7030
  115OSM    HO312009   4.238   4.179  10.911  0.5188  0.3019  1.3072
  115OSM    C4S12010   4.222   3.951  10.711  0.2082 -0.2851  0.5389
  115OSM    H4S12011   4.329   3.932  10.734  0.2245 -0.3572  0.4019
  115OSM    C5S12012   4.154   3.846  10.659  0.2930  0.1500  0.9503
  115OSM    H5S12013   4.046   3.854  10.640  0.2918  1.3128  1.3770
  115OSM    C6S12014   4.207   3.721  10.606 -0.4361 -0.5027  0.2852
  115OSM    H6S12015   4.130   3.642  10.592 -1.5286  0.6523 -0.2769
  115OSM    H6T12016   4.278   3.680  10.681 -1.2135  0.5025  1.6080
  115OSM    C7S12017   4.287   3.724  10.476 -0.5057 -0.3506 -0.7284
  115OSM    H7S12018   4.354   3.636  10.465 -0.7326 -0.7348  0.8373
  115OSM    H7T12019   4.364   3.802  10.496 -1.0138  0.1799 -0.8270
  115OSM    C8S12020   4.196   3.748  10.349  0.7259  0.1477 -0.3232
  115OSM    H8S12021   4.178   3.857  10.352  1.7583  0.2589  2.7384
  115OSM    H8T12022   4.105   3.685  10.359  0.4460  0.7996  1.2404
  115OSM    C9S12023   4.264   3.711  10.213  0.4678 -0.1961 -0.2767
  115OSM    H9S12024   4.285   3.602  10.225 -0.3193 -0.4457 -1.0918
  115OSM    H9T12025   4.357   3.769  10.197  1.3995 -1.5593  0.1248
  115OSM   C10S12026   4.168   3.700  10.097 -0.2305  0.5879 -0.0924
  115OSM   H10S12027   4.117   3.795  10.071  1.6747  1.5635 -0.3561
  115OSM   H10T12028   4.091   3.631  10.138  0.3814  0.0559  0.1714
  115OSM   C11S12029   4.234   3.623   9.979  0.5507 -0.6916 -0.2834
  115OSM   H11S12030   4.253   3.518  10.007  0.1248 -0.7141 -0.0796
  115OSM   H11T12031   4.334   3.666   9.954  0.5605 -0.0344  0.8508
  115OSM   C12S12032   4.150   3.631   9.854 -0.4355  0.1913 -0.6260
  115OSM   H12S12033   4.133   3.737   9.825  0.2908  0.7281  0.8590
  115OSM   H12T12034   4.049   3.585   9.865 -0.0867 -0.4807 -0.2278
  115OSM   C13S12035   4.223   3.568   9.742  0.5854 -0.4903 -0.3660
  115OSM   H13S12036   4.249   3.463   9.766 -0.2532  0.1597  3.7991
  115OSM   H13T12037   4.323   3.613   9.728 -1.1169  3.0180 -1.9378
  115OSM   C14S12038   4.164   3.587   9.602 -0.2308 -0.4674  0.3729
  115OSM   H14S12039   4.236   3.545   9.530 -1.2056  1.4841 -1.8210
  115OSM   H14T12040   4.145   3.689   9.562 -1.9615 -0.5240  0.9711
  115OSM   C15S12041   4.034   3.514   9.589 -0.6392  0.3119 -0.0224
  115OSM   H15S12042   3.966   3.531   9.675 -0.4335 -3.2930  0.9188
  115OSM   H15T12043   4.047   3.404   9.588  1.4928  0.5446 -1.8383
  115OSM   C16S12044   3.977   3.542   9.454  0.0371  0.1204  0.6328
  115OSM   H16S12045   3.968   3.652   9.439  1.8765  0.1144 -0.7904
  115OSM   H16T12046   3.871   3.509   9.453  0.1104 -0.0875 -0.7021
  115OSM   C17S12047   4.058   3.482   9.337  0.4749 -0.2889 -0.0032
  115OSM   H17S12048   4.053   3.372   9.352 -2.6005 -0.0666  1.0565
  115OSM   H17T12049   4.163   3.516   9.345 -0.0381  0.7735  2.9762
  115OSM   C18S12050   4.002   3.507   9.196 -1.0133  0.6655 -0.4576
  115OSM   H18S12051   4.049   3.441   9.120  2.6556  1.1483  1.2686
  115OSM   H18T12052   4.028   3.612   9.170 -0.1788  0.2684 -1.2523
  115OSM   H18U12053   3.893   3.486   9.200 -0.8643  0.1661  1.5835
  115OSM    C1F12054   4.217   4.282  10.461 -0.0921  0.3595  0.7990
  115OSM     OF12055   4.310   4.349  10.500  0.1171  0.5675 -0.1374
  115OSM    C2F12056   4.141   4.310  10.335  0.0260 -0.3906  0.1848
  115OSM    H2F12057   4.035   4.339  10.344  0.1833 -0.0772  1.1411
  115OSM    H2G12058   4.153   4.221  10.269  0.3900  0.1048 -0.4193
  115OSM    C3F12059   4.212   4.430  10.264 -0.6413 -0.6372 -0.2819
  115OSM    H3F12060   4.319   4.405  10.246 -0.7772  0.0298 -2.0619
  115OSM    H3G12061   4.198   4.515  10.335  1.4883  0.0650 -0.6623
  115OSM    C4F12062   4.149   4.460  10.131  0.7247 -0.0373  0.5455
  115OSM    H4F12063   4.139   4.369  10.068 -1.7028 -0.1485  1.0361
  115OSM    H4G12064   4.220   4.517  10.069 -0.7704  0.1197 -1.0648
  115OSM    C5F12065   4.021   4.542  10.134 -0.0526  0.1615  0.2410
  115OSM    H5F12066   4.031   4.609  10.222  2.6754 -0.8629  0.7691
  115OSM    H5G12067   3.933   4.477  10.152  0.5661 -0.9366 -0.6523
  115OSM    C6F12068   3.999   4.630  10.017 -0.1085  0.1832 -0.1595
  115OSM    H6F12069   4.096   4.674   9.984 -0.4851 -0.1545 -1.7556
  115OSM    H6G12070   3.935   4.710  10.060  1.1597  0.5020  1.1985
  115OSM    C7F12071   3.940   4.556   9.900 -0.2424 -0.0138 -0.7664
  115OSM    H7F12072   3.841   4.524   9.939  0.5020 -0.3622  0.8995
  115OSM    H7G12073   4.008   4.472   9.873  0.3886 -1.0041  3.5397
  115OSM    C8F12074   3.909   4.654   9.779  0.2625 -0.5623  0.1959
  115OSM    H8F12075   4.007   4.678   9.733 -0.0574 -2.2302 -1.4010
  115OSM    H8G12076   3.876   4.749   9.828  0.0444 -1.6649  2.2603
  115OSM    C9F12077   3.806   4.614   9.680  0.7246  0.7238  0.3736
  115OSM    H9F12078   3.700   4.601   9.708  1.1114 -0.7728  1.1441
  115OSM   C10F12079   3.828   4.591   9.550 -0.9177 -0.0260  0.2753
  115OSM   H10F12080   3.746   4.553   9.487 -2.0953 -1.2769  2.5130
  115OSM   C11F12081   3.959   4.592   9.483 -0.4417 -1.0762 -0.2263
  115OSM   H11F12082   4.046   4.580   9.552 -2.0079 -1.8316  1.6565
  115OSM   H11G12083   3.980   4.687   9.429 -1.5911 -2.7831 -3.8543
  115OSM   C12F12084   3.971   4.473   9.381 -0.0463 -0.2519 -0.2578
  115OSM   H12F12085   3.969   4.377   9.438  0.3324 -0.3406 -0.3932
  115OSM   H12G12086   4.075   4.475   9.342  0.4132 -0.3902  0.9491
  115OSM   C13F12087   3.880   4.470   9.262  0.6813 -0.4170  0.1270
  115OSM   H13F12088   3.903   4.561   9.204 -0.7178 -0.3585 -0.3510
  115OSM   H13G12089   3.773   4.473   9.289  0.0513  0.0766 -2.3624
  115OSM   C14F12090   3.895   4.347   9.160  0.5799  0.0852 -0.3049
  115OSM   H14F12091   3.886   4.254   9.221 -1.1057  0.3349 -0.1508
  115OSM   H14G12092   3.993   4.335   9.110  1.0649 -0.2401  0.7049
  115OSM   C15F12093   3.796   4.347   9.051  0.6135 -0.1379 -0.0843
  115OSM   H15F12094   3.759   4.451   9.043 -0.0406 -0.1245  2.6143
  115OSM   H15G12095   3.703   4.289   9.067  0.9796 -0.8530 -0.5132
  115OSM   C16F12096   3.857   4.296   8.915  0.2617  0.0330  0.2260
  115OSM   H16F12097   3.910   4.199   8.925 -1.6426 -1.0150  0.3826
  115OSM   H16G12098   3.937   4.365   8.879 -2.0953  1.4598 -2.4768
  115OSM   C17F12099   3.750   4.276   8.804  0.1592 -0.0142  0.0841
  115OSM   H17F12100   3.712   4.372   8.762  2.6158 -0.1600 -2.6258
  115OSM   H17G12101   3.673   4.204   8.841  1.1563 -1.2228 -0.1678
  115OSM   C18F12102   3.815   4.207   8.685  0.1264  0.3660  0.3198
  115OSM   H18F12103   3.763   4.220   8.588  0.6408 -2.3552 -0.3492
  115OSM   H18G12104   3.835   4.100   8.705  3.8003  1.0225  0.6082
  115OSM   H18H12105   3.911   4.263   8.682  0.9847 -0.8490  3.1513
  116OSM      N12106   0.884   0.675  10.873  0.0333 -0.0553 -0.3711
  116OSM    C1512107   0.828   0.538  10.888 -0.1657  0.3789  0.2252
  116OSM   H15A12108   0.777   0.511  10.797  0.6539  0.7579 -0.3599
  116OSM   H15B12109   0.754   0.542  10.967 -0.3822  0.0612  0.0400
  116OSM   H15C12110   0.908   0.473  10.921 -1.5870 -1.4836  0.0862
  116OSM    C1412111   0.940   0.725  10.998  0.1031  0.4846 -0.8526
  116OSM   H14A12112   1.027   0.668  11.028  0.4480 -1.3756 -5.0641
  116OSM   H14B12113   0.869   0.718  11.080  2.1788 -0.7047  0.8984
  116OSM   H14C12114   0.973   0.826  10.984 -0.2640  0.6543 -0.5266
  116OSM    C1312115   0.991   0.665  10.768  0.4709  0.4901 -0.7530
  116OSM   H13A12116   0.954   0.612  10.681  1.0038  0.0139 -0.6887
  116OSM   H13B12117   1.067   0.604  10.815  2.4221  0.8671 -3.2799
  116OSM   H13C12118   1.039   0.760  10.751 -1.3574  1.4442 -0.7376
  116OSM    C1212119   0.773   0.768  10.842  0.0027 -0.0286  1.1386
  116OSM   H12A12120   0.696   0.753  10.915  0.1099  3.1714  1.9812
  116OSM   H12B12121   0.719   0.731  10.756  1.1199  1.8692 -0.4353
  116OSM    C1112122   0.800   0.918  10.814 -0.1310 -0.5607  0.4004
  116OSM   H11A12123   0.701   0.960  10.788 -0.8780 -1.8244  1.1262
  116OSM   H11B12124   0.862   0.933  10.724 -0.8757 -1.0466 -0.2007
  116OSM      P12125   0.957   1.080  10.947 -0.3391  0.1376 -0.3991
  116OSM    O1312126   0.949   1.131  11.087 -0.4057 -0.3280 -0.1605
  116OSM    O1412127   1.077   1.020  10.898 -0.1256 -0.0469 -0.2373
  116OSM    O1112128   0.906   1.186  10.846 -0.5478 -0.1831 -0.4389
  116OSM    O1212129   0.843   0.974  10.934 -0.1590 -0.0549 -0.7099
  116OSM    C1S12130   0.985   1.220  10.737 -0.4524 -0.4900  1.1542
  116OSM    H1S12131   1.007   1.131  10.674  1.1694  0.8490 -0.2254
  116OSM    H1T12132   1.081   1.266  10.770 -1.1041  1.1200  0.8692
  116OSM     NF12133   0.961   1.351  10.524  0.0179 -0.2700 -0.2619
  116OSM    HNF12134   0.989   1.440  10.491  1.1764 -1.0144 -1.3072
  116OSM    C2S12135   0.907   1.330  10.659 -0.8420  0.4218  0.8240
  116OSM    H2S12136   0.806   1.286  10.646 -0.1834 -0.9230  0.1323
  116OSM    C3S12137   0.898   1.457  10.751 -0.2070  0.4249 -0.2948
  116OSM    H3S12138   1.006   1.480  10.767  0.3956 -4.0048  2.7423
  116OSM     O312139   0.847   1.436  10.883 -0.1628 -0.3505 -0.6054
  116OSM    HO312140   0.842   1.341  10.878 -0.5733 -0.3093 -1.0498
  116OSM    C4S12141   0.831   1.579  10.693 -0.1958 -0.0064 -0.4964
  116OSM    H4S12142   0.899   1.656  10.653  0.5678 -0.8640 -0.8637
  116OSM    C5S12143   0.692   1.590  10.690  0.0643 -0.4347 -0.3668
  116OSM    H5S12144   0.627   1.505  10.715  0.0717 -0.2930  0.1268
  116OSM    C6S12145   0.616   1.707  10.631  0.3839  0.7257 -0.0256
  116OSM    H6S12146   0.580   1.778  10.708  1.9012  1.1093  0.3479
  116OSM    H6T12147   0.531   1.686  10.562  1.0704  0.1712 -0.7032
  116OSM    C7S12148   0.706   1.806  10.554  0.4702 -0.4217  0.0422
  116OSM    H7S12149   0.763   1.747  10.479 -0.0070 -2.3675  1.1704
  116OSM    H7T12150   0.777   1.858  10.621  2.2803 -2.1820 -0.4693
  116OSM    C8S12151   0.624   1.926  10.501 -0.5969 -0.3927  0.0214
  116OSM    H8S12152   0.695   1.991  10.445 -0.6173 -2.4366 -2.4737
  116OSM    H8T12153   0.587   1.981  10.590  1.7078  0.3312  0.5776
  116OSM    C9S12154   0.508   1.903  10.400  0.0111 -0.3515  1.1221
  116OSM    H9S12155   0.443   1.814  10.416 -0.7042  0.0287  0.3820
  116OSM    H9T12156   0.559   1.883  10.303  1.4764 -1.3496  2.0689
  116OSM   C10S12157   0.408   2.022  10.380 -0.6487 -1.0598 -0.4839
  116OSM   H10S12158   0.465   2.118  10.382 -1.6937 -0.4471  0.2091
  116OSM   H10T12159   0.348   2.033  10.473  0.6431 -0.9511  0.3598
  116OSM   C11S12160   0.313   2.025  10.262 -0.0027  0.2299 -0.1642
  116OSM   H11S12161   0.259   2.122  10.269  0.3512  0.4915 -1.0279
  116OSM   H11T12162   0.239   1.943  10.267  0.0142  0.2035 -0.3754
  116OSM   C12S12163   0.397   2.032  10.128  0.5163  0.5907 -0.3598
  116OSM   H12S12164   0.446   1.933  10.113  1.7957  1.0560  0.6660
  116OSM   H12T12165   0.471   2.115  10.134  0.6443  0.4120  0.7960
  116OSM   C13S12166   0.312   2.073  10.015  0.0617  0.3753  0.1201
  116OSM   H13S12167   0.260   2.168  10.037 -0.9400  0.0325 -0.7545
  116OSM   H13T12168   0.225   2.005  10.003  0.1866  0.3765 -0.8069
  116OSM   C14S12169   0.379   2.068   9.872 -1.0205  0.1657 -0.3157
  116OSM   H14S12170   0.456   2.147   9.862  0.5611 -1.1433  1.1938
  116OSM   H14T12171   0.296   2.083   9.800 -1.9423 -0.8990  0.5012
  116OSM   C15S12172   0.450   1.938   9.827 -0.2724 -0.7519  0.3310
  116OSM   H15S12173   0.382   1.852   9.847  1.6145 -2.1958  0.7404
  116OSM   H15T12174   0.545   1.909   9.877 -0.0688 -1.2692 -0.3555
  116OSM   C16S12175   0.481   1.934   9.672 -0.6039 -0.5574  0.8885
  116OSM   H16S12176   0.395   1.984   9.620 -0.8417 -1.2496  0.6148
  116OSM   H16T12177   0.493   1.830   9.637  0.1619 -0.9232  2.2121
  116OSM   C17S12178   0.618   2.006   9.638  0.2101  0.1677 -0.3466
  116OSM   H17S12179   0.692   1.925   9.651 -0.4784 -0.2034  1.3931
  116OSM   H17T12180   0.640   2.090   9.707  0.0916 -1.2733  1.4880
  116OSM   C18S12181   0.623   2.064   9.490  0.2213  0.0066  0.3636
  116OSM   H18S12182   0.702   2.141   9.484  0.0400  0.0509 -1.9453
  116OSM   H18T12183   0.526   2.113   9.467 -0.0465 -1.0757 -0.9075
  116OSM   H18U12184   0.629   1.978   9.419 -0.1912  0.6529 -0.4697
  116OSM    C1F12185   0.945   1.253  10.439 -0.2258 -0.4941  0.0797
  116OSM     OF12186   0.869   1.162  10.460  0.3150  0.1592  0.1040
  116OSM    C2F12187   1.026   1.258  10.312 -0.2902 -0.0777 -0.1204
  116OSM    H2F12188   1.118   1.202  10.339  0.1472  1.1585  0.9814
  116OSM    H2G12189   1.041   1.363  10.281  0.7076 -0.3450 -0.5773
  116OSM    C3F12190   0.955   1.183  10.192  0.4024 -0.0706 -0.0504
  116OSM    H3F12191   0.858   1.234  10.173 -0.6261 -2.3369 -0.9368
  116OSM    H3G12192   0.939   1.081  10.231 -1.4769 -0.0607 -0.7428
  116OSM    C4F12193   1.033   1.166  10.066  0.0381  0.5748  0.9691
  116OSM    H4F12194   1.038   1.060  10.035 -1.8257  0.1570  1.9973
  116OSM    H4G12195   1.138   1.201  10.077 -0.3702  1.8206  0.9974
  116OSM    C5F12196   0.968   1.248   9.948 -0.1837 -0.3571  0.2570
  116OSM    H5F12197   1.010   1.349   9.960 -0.6779 -0.3349  1.9237
  116OSM    H5G12198   0.861   1.272   9.965  0.4404  2.4430  0.4535
  116OSM    C6F12199   0.980   1.188   9.808 -0.1119 -0.0104  0.4237
  116OSM    H6F12200   0.927   1.253   9.735  1.3012  1.8819  1.0601
  116OSM    H6G12201   0.935   1.087   9.802  1.4274 -0.7362  0.9586
  116OSM    C7F12202   1.120   1.167   9.768 -0.6543  0.8316  0.1122
  116OSM    H7F12203   1.162   1.081   9.824  0.0874 -1.3266 -3.5699
  116OSM    H7G12204   1.173   1.257   9.804  0.5237 -0.2848  1.2139
  116OSM    C8F12205   1.138   1.141   9.624  0.5819 -0.6569  0.3915
  116OSM    H8F12206   1.249   1.135   9.617  0.5420 -1.7720  0.6251
  116OSM    H8G12207   1.093   1.225   9.566 -1.6562 -1.4643  0.9196
  116OSM    C9F12208   1.097   1.004   9.576  0.4987  0.2056 -0.4574
  116OSM    H9F12209   1.103   0.921   9.647 -1.3909 -0.4388 -1.0199
  116OSM   C10F12210   1.057   0.979   9.448  0.3898  0.9459  0.0132
  116OSM   H10F12211   1.037   0.881   9.405 -0.3628  0.7312  0.8478
  116OSM   C11F12212   1.049   1.075   9.335  0.3154  0.5083 -0.7610
  116OSM   H11F12213   1.102   1.169   9.361  1.9484 -0.1415 -1.6622
  116OSM   H11G12214   0.943   1.085   9.304  0.0191 -0.2700 -0.0192
  116OSM   C12F12215   1.108   1.023   9.200  0.5776 -0.1943  0.2403
  116OSM   H12F12216   1.038   0.945   9.163  1.8813 -0.7317 -1.1571
  116OSM   H12G12217   1.194   0.959   9.230 -0.1803 -2.1581 -1.5688
  116OSM   C13F12218   1.158   1.124   9.096  0.3791 -0.0704  0.3469
  116OSM   H13F12219   1.228   1.202   9.135 -1.0874  0.4868  1.9144
  116OSM   H13G12220   1.073   1.192   9.073 -1.3807 -3.0146 -2.2069
  116OSM   C14F12221   1.217   1.066   8.966 -0.0701 -0.2671  0.4735
  116OSM   H14F12222   1.137   1.002   8.924  0.4162 -0.4795 -0.1502
  116OSM   H14G12223   1.299   0.995   8.987 -0.8298 -1.2678  0.0805
  116OSM   C15F12224   1.268   1.165   8.854  0.4302  0.3521 -0.6000
  116OSM   H15F12225   1.324   1.118   8.770  1.5349 -3.3954  2.0889
  116OSM   H15G12226   1.335   1.235   8.906  1.3313 -0.8425 -0.1343
  116OSM   C16F12227   1.157   1.250   8.808  0.2903  0.7049  0.6621
  116OSM   H16F12228   1.093   1.286   8.891  1.1726 -0.4166  1.8614
  116OSM   H16G12229   1.091   1.187   8.745  2.5871 -1.6722  0.5689
  116OSM   C17F12230   1.201   1.367   8.715  0.0843 -0.0753  0.0888
  116OSM   H17F12231   1.223   1.321   8.616 -1.0281 -1.1399  0.3185
  116OSM   H17G12232   1.296   1.403   8.761  1.1603 -0.4035 -1.8212
  116OSM   C18F12233   1.097   1.481   8.705  0.2229 -0.1735 -0.2398
  116OSM   H18F12234   1.067   1.525   8.802 -0.6441 -2.6176  0.6539
  116OSM   H18G12235   1.018   1.445   8.635  2.2020 -0.7018 -2.2366
  116OSM   H18H12236   1.139   1.567   8.648 -0.7685 -0.4279 -1.3717
  117OSM      N12237   5.547   1.937  11.191 -0.2373  0.0024 -0.1924
  117OSM    C1512238   5.650   1.840  11.243  0.2963  0.0027  0.4906
  117OSM   H15A12239   5.645   1.816  11.348  1.5925 -1.7295  0.1959
  117OSM   H15B12240   5.743   1.888  11.215 -0.0406  0.6804  0.5267
  117OSM   H15C12241   5.634   1.746  11.193 -0.8099  0.0006  0.8445
  117OSM    C1412242   5.409   1.900  11.248  0.0879 -0.2899 -0.5187
  117OSM   H14A12243   5.413   1.914  11.355  0.3271 -0.2798 -0.5302
  117OSM   H14B12244   5.386   1.797  11.226  1.0067  0.0163 -3.1120
  117OSM   H14C12245   5.332   1.968  11.214  2.0447  3.1410  1.6360
  117OSM    C1312246   5.576   2.072  11.253  0.2710  0.4345 -0.0678
  117OSM   H13A12247   5.675   2.112  11.239  0.7518 -0.6050  0.3914
  117OSM   H13B12248   5.565   2.053  11.359 -0.1691 -1.2315 -0.4090
  117OSM   H13C12249   5.494   2.136  11.223  1.0915 -0.0072 -3.3791
  117OSM    C1212250   5.542   1.945  11.043 -0.7253  0.5665  0.2714
  117OSM   H12A12251   5.466   2.016  11.017 -1.7503  0.7414  3.4580
  117OSM   H12B12252   5.518   1.846  11.008  0.6504 -0.0047  0.8683
  117OSM    C1112253   5.667   1.997  10.967 -0.4032  0.3159 -0.4491
  117OSM   H11A12254   5.694   2.099  11.003  0.6546  1.0209 -3.1349
  117OSM   H11B12255   5.640   2.013  10.861 -0.4645  4.1845  0.0850
  117OSM      P12256   5.816   1.794  10.909 -0.1852 -0.0282  0.0222
  117OSM    O1312257   5.965   1.769  10.890  0.0685 -0.3775 -0.2763
  117OSM    O1412258   5.737   1.690  10.975 -0.3008  0.1860  0.1943
  117OSM    O1112259   5.754   1.822  10.765  0.3258 -0.1977 -0.8532
  117OSM    O1212260   5.793   1.926  10.993 -0.1918  0.2790 -0.3697
  117OSM    C1S12261   5.815   1.917  10.677  0.9590 -0.5103 -0.3506
  117OSM    H1S12262   5.922   1.933  10.701  0.7154  0.5512  0.0465
  117OSM    H1T12263   5.757   2.010  10.693  1.5029 -0.5088  1.7096
  117OSM     NF12264   5.866   1.968  10.439  0.3875  0.0096  0.2638
  117OSM    HNF12265   5.815   2.050  10.417  1.3714  0.7083  0.5554
  117OSM    C2S12266   5.789   1.878  10.529  0.6724  0.4316  0.1336
  117OSM    H2S12267   5.846   1.783  10.523 -3.1863 -2.0461  1.1767
  117OSM    C3S12268   5.646   1.857  10.500 -0.2272 -0.7593  0.6617
  117OSM    H3S12269   5.592   1.954  10.510  0.3535 -0.3948  0.2651
  117OSM     O312270   5.580   1.758  10.578  0.1476 -0.7043  0.0356
  117OSM    HO312271   5.630   1.756  10.660 -0.4211  0.7815  0.4382
  117OSM    C4S12272   5.643   1.810  10.352 -0.1718 -0.2959 -0.3941
  117OSM    H4S12273   5.657   1.703  10.335  1.8684 -0.8186  3.8890
  117OSM    C5S12274   5.590   1.889  10.260  0.2826  0.1524  0.7259
  117OSM    H5S12275   5.550   1.986  10.293  0.1689 -1.1527  4.6581
  117OSM    C6S12276   5.567   1.854  10.112  0.1352 -0.0894 -0.2762
  117OSM    H6S12277   5.463   1.874  10.077  0.1637 -1.8000 -1.4101
  117OSM    H6T12278   5.573   1.745  10.093 -1.4397 -0.5322  1.5928
  117OSM    C7S12279   5.661   1.914   9.998 -0.1818  1.5612  1.6414
  117OSM    H7S12280   5.768   1.897  10.020  0.2428 -1.1144 -2.0872
  117OSM    H7T12281   5.639   2.023   9.992 -3.4566  0.7931 -1.8661
  117OSM    C8S12282   5.616   1.855   9.861 -0.2312  0.2295 -0.0009
  117OSM    H8S12283   5.513   1.894   9.845 -0.1158  0.4131 -0.3027
  117OSM    H8T12284   5.619   1.744   9.855 -2.0221  0.2403 -1.5973
  117OSM    C9S12285   5.706   1.897   9.756 -0.2631 -0.2991 -0.3213
  117OSM    H9S12286   5.812   1.873   9.780 -0.3886  2.5105  3.4561
  117OSM    H9T12287   5.706   2.008   9.751 -1.1767 -0.3924 -3.3917
  117OSM   C10S12288   5.667   1.848   9.617  0.0046  0.1993  0.5955
  117OSM   H10S12289   5.558   1.870   9.608 -0.4482 -0.9803  2.7272
  117OSM   H10T12290   5.693   1.741   9.604 -0.1576  0.3950 -1.5552
  117OSM   C11S12291   5.742   1.924   9.495  0.0272 -0.3069 -1.0400
  117OSM   H11S12292   5.852   1.925   9.503 -0.0921  0.1429  0.8466
  117OSM   H11T12293   5.718   2.033   9.491  0.8660 -0.1167 -0.9574
  117OSM   C12S12294   5.718   1.860   9.353  0.4129  0.1626 -0.4238
  117OSM   H12S12295   5.613   1.869   9.319 -0.5793 -2.1849  1.8839
  117OSM   H12T12296   5.744   1.752   9.345 -0.5622 -0.2419  1.5525
  117OSM   C13S12297   5.807   1.922   9.249 -0.8492  0.2696  0.5580
  117OSM   H13S12298   5.912   1.920   9.286 -0.7272 -0.4539  0.1835
  117OSM   H13T12299   5.773   2.027   9.257 -2.0883 -0.2117  1.8582
  117OSM   C14S12300   5.769   1.879   9.103  0.1756 -0.3822  0.2851
  117OSM   H14S12301   5.664   1.901   9.075 -0.0999  0.5970  2.0342
  117OSM   H14T12302   5.781   1.769   9.096 -1.7074 -0.6535  1.0105
  117OSM   C15S12303   5.866   1.936   8.996 -0.1485 -0.6464  0.5945
  117OSM   H15S12304   5.971   1.902   9.001  0.0502 -0.4055 -1.5195
  117OSM   H15T12305   5.866   2.046   9.008 -0.6739 -0.7709  1.8737
  117OSM   C16S12306   5.814   1.913   8.853  1.0161  0.1917 -0.6588
  117OSM   H16S12307   5.703   1.915   8.857  1.0666 -0.4068  1.2002
  117OSM   H16T12308   5.854   1.810   8.839 -0.3590 -1.1716  4.5610
  117OSM   C17S12309   5.862   2.007   8.739 -0.1799 -0.1648  0.5164
  117OSM   H17S12310   5.973   2.014   8.728 -0.5286  0.4027 -3.0393
  117OSM   H17T12311   5.836   2.112   8.764 -2.5049 -0.4669 -0.4986
  117OSM   C18S12312   5.806   1.979   8.594  0.3781 -0.1670  0.1732
  117OSM   H18S12313   5.695   1.974   8.599  0.3963 -0.7048  0.0252
  117OSM   H18T12314   5.854   1.890   8.549 -0.4112  0.9329 -3.0304
  117OSM   H18U12315   5.837   2.071   8.539 -0.1415 -0.3776 -0.4757
  117OSM    C1F12316   6.000   1.975  10.443 -0.5460  0.3777 -0.0648
  117OSM     OF12317   6.060   1.883  10.496  0.0313 -0.8469 -0.1633
  117OSM    C2F12318   6.069   2.091  10.390 -0.6326  0.5287  0.4572
  117OSM    H2F12319   6.107   2.145  10.479  1.3626 -0.2163  0.1014
  117OSM    H2G12320   5.984   2.153  10.353 -0.7133 -0.8016 -1.6577
  117OSM    C3F12321   6.182   2.058  10.293  0.3461 -0.0620 -0.1139
  117OSM    H3F12322   6.249   1.989  10.348 -1.9032 -1.4054  1.0230
  117OSM    H3G12323   6.236   2.151  10.265 -0.3673  0.7626  1.2197
  117OSM    C4F12324   6.133   1.982  10.169 -0.2953 -0.4030  0.8771
  117OSM    H4F12325   6.090   1.882  10.190  0.0878 -1.0795 -1.4639
  117OSM    H4G12326   6.230   1.961  10.121 -0.5237  0.1965  0.1363
  117OSM    C5F12327   6.053   2.068  10.072  0.2640  0.0084  0.6429
  117OSM    H5F12328   6.094   2.170  10.053  0.8603  0.2822  3.2196
  117OSM    H5G12329   5.951   2.069  10.114 -0.9300  0.5947 -2.1849
  117OSM    C6F12330   6.021   1.983   9.945  0.0719 -0.2414  0.0153
  117OSM    H6F12331   5.917   2.004   9.912  0.0798 -0.3437 -0.0785
  117OSM    H6G12332   6.030   1.873   9.961 -0.9065 -0.2593  0.4551
  117OSM    C7F12333   6.127   2.014   9.839  0.1933 -0.3851  0.6250
  117OSM    H7F12334   6.226   2.001   9.889  1.7986 -1.6546 -2.7220
  117OSM    H7G12335   6.115   2.120   9.809 -0.0752 -0.6251 -0.1356
  117OSM    C8F12336   6.127   1.923   9.714 -0.1746 -0.3708 -0.5880
  117OSM    H8F12337   6.036   1.944   9.654 -0.7395 -1.3899 -0.1059
  117OSM    H8G12338   6.108   1.817   9.742  0.7648  0.0206  1.5919
  117OSM    C9F12339   6.258   1.917   9.642  0.4033  0.7917  0.1141
  117OSM    H9F12340   6.353   1.938   9.693  0.3921 -1.9114  1.3268
  117OSM   C10F12341   6.268   1.905   9.510  0.6008  0.1871  0.3931
  117OSM   H10F12342   6.362   1.895   9.455  0.2116 -0.8079 -0.0873
  117OSM   C11F12343   6.151   1.895   9.410 -0.3289  0.1987  0.4259
  117OSM   H11F12344   6.062   1.959   9.428 -0.9458 -0.8578  1.2202
  117OSM   H11G12345   6.107   1.793   9.423 -0.4278  0.2956  0.8403
  117OSM   C12F12346   6.198   1.891   9.259 -0.0002 -0.9714 -0.3889
  117OSM   H12F12347   6.108   1.858   9.203  0.6989 -3.2547 -0.2397
  117OSM   H12G12348   6.262   1.801   9.246  0.7145 -0.5354  0.1144
  117OSM   C13F12349   6.272   2.010   9.194  0.0610 -0.6838  0.2813
  117OSM   H13F12350   6.372   2.014   9.244 -0.3038 -1.5756  1.0838
  117OSM   H13G12351   6.211   2.094   9.232 -3.3750 -2.4337 -1.2183
  117OSM   C14F12352   6.280   2.023   9.046 -0.1482 -0.5194  0.3217
  117OSM   H14F12353   6.357   2.098   9.018 -3.8300  2.1217 -3.3712
  117OSM   H14G12354   6.179   2.046   9.007 -0.0803  0.6310  0.8272
  117OSM   C15F12355   6.316   1.885   8.979 -0.4341  0.3709 -0.3447
  117OSM   H15F12356   6.222   1.826   8.982  0.0172 -0.3083  0.6827
  117OSM   H15G12357   6.394   1.839   9.042 -1.9955 -1.9803 -0.0829
  117OSM   C16F12358   6.354   1.893   8.833  0.3282  0.3530  1.0894
  117OSM   H16F12359   6.269   1.920   8.768  0.6165 -1.7994 -0.2472
  117OSM   H16G12360   6.381   1.790   8.801  1.4208  0.8919  0.2034
  117OSM   C17F12361   6.480   1.988   8.811  0.7669  0.0404 -0.0395
  117OSM   H17F12362   6.563   1.951   8.875  3.0419  1.5427 -2.0222
  117OSM   H17G12363   6.467   2.094   8.844 -1.5721  0.1455 -1.2112
  117OSM   C18F12364   6.535   1.981   8.666 -0.0996  0.3273 -0.2141
  117OSM   H18F12365   6.455   1.973   8.589  0.5063  0.9850 -0.9204
  117OSM   H18G12366   6.614   1.904   8.658  0.7741  1.4562 -2.8600
  117OSM   H18H12367   6.582   2.081   8.654 -0.4446  0.5671  0.3899
  118OSM      N12368   5.748   2.648  11.183  0.6507 -0.1317  0.2512
  118OSM    C1512369   5.901   2.647  11.192  0.1290  0.0367 -0.4412
  118OSM   H15A12370   5.933   2.624  11.293 -0.8096  0.4586 -0.0398
  118OSM   H15B12371   5.950   2.734  11.153  0.9765 -1.5446 -3.0228
  118OSM   H15C12372   5.934   2.569  11.125  0.5940 -0.0430 -0.1186
  118OSM    C1412373   5.703   2.513  11.222 -0.3202 -0.1271  0.3933
  118OSM   H14A12374   5.735   2.501  11.324  1.3222  1.0932  0.0553
  118OSM   H14B12375   5.752   2.436  11.164 -0.5053  1.0077 -1.3265
  118OSM   H14C12376   5.596   2.501  11.223 -0.1123 -2.1207 -0.2237
  118OSM    C1312377   5.698   2.746  11.279  0.0598  0.6918 -0.3227
  118OSM   H13A12378   5.737   2.720  11.376  0.5325  0.5200 -0.5583
  118OSM   H13B12379   5.591   2.762  11.275 -0.2392 -0.9187  0.7208
  118OSM   H13C12380   5.734   2.847  11.263  2.2319 -0.0315 -0.1376
  118OSM    C1212381   5.698   2.676  11.038  0.2251 -0.0019 -0.9042
  118OSM   H12A12382   5.590   2.673  11.046  0.2778 -0.5509 -0.3492
  118OSM   H12B12383   5.733   2.600  10.970  0.3010 -0.3310 -0.4973
  118OSM    C1112384   5.726   2.816  10.979 -0.2829 -0.0766  0.1675
  118OSM   H11A12385   5.679   2.825  10.878  1.0644 -1.7979 -0.6416
  118OSM   H11B12386   5.834   2.828  10.957 -1.0936  2.9276 -2.6796
  118OSM      P12387   5.525   2.956  11.062 -0.0201  0.1685 -0.2299
  118OSM    O1312388   5.454   2.827  11.081 -0.6694 -0.5625 -0.5646
  118OSM    O1412389   5.497   3.069  11.154  0.2548 -0.2829  0.1345
  118OSM    O1112390   5.501   3.010  10.915 -0.1277  0.1389  0.7903
  118OSM    O1212391   5.683   2.924  11.058  0.2803  0.1988 -0.4554
  118OSM    C1S12392   5.585   3.101  10.855 -0.5947 -0.0506  0.1313
  118OSM    H1S12393   5.680   3.048  10.833 -1.8299 -1.9564 -0.7626
  118OSM    H1T12394   5.606   3.193  10.913 -1.7102 -0.6927  1.5794
  118OSM     NF12395   5.621   3.270  10.684 -0.5510  0.2688  0.0845
  118OSM    HNF12396   5.576   3.358  10.699  1.0481  1.2636 -0.8762
  118OSM    C2S12397   5.538   3.158  10.718  0.8947 -0.1588 -0.1780
  118OSM    H2S12398   5.565   3.072  10.653  0.1526 -0.9162  0.4998
  118OSM    C3S12399   5.389   3.195  10.711  0.7899  0.8039  0.0725
  118OSM    H3S12400   5.374   3.282  10.779  3.7299  1.4263 -0.0139
  118OSM     O312401   5.302   3.080  10.757  0.2208 -0.2655  0.5530
  118OSM    HO312402   5.365   3.014  10.786  0.6160 -0.3994 -0.5827
  118OSM    C4S12403   5.358   3.227  10.573 -0.1314 -0.4589  0.1470
  118OSM    H4S12404   5.349   3.135  10.514  2.0723 -0.7510  0.2045
  118OSM    C5S12405   5.317   3.345  10.525  0.0815  0.1953  0.1207
  118OSM    H5S12406   5.312   3.438  10.584 -1.5678  1.0266 -1.2708
  118OSM    C6S12407   5.278   3.368  10.384  0.4313  0.1265 -0.0992
  118OSM    H6S12408   5.342   3.451  10.348  2.0950 -1.5642 -1.0886
  118OSM    H6T12409   5.173   3.403  10.374 -0.0007 -1.0837  0.2010
  118OSM    C7S12410   5.282   3.262  10.273  0.0754 -0.8023  0.1835
  118OSM    H7S12411   5.220   3.175  10.301 -2.1003  0.6698  0.0758
  118OSM    H7T12412   5.385   3.223  10.257 -1.3426 -3.5640 -2.8057
  118OSM    C8S12413   5.239   3.304  10.135 -0.0875 -0.7034  0.7426
  118OSM    H8S12414   5.299   3.390  10.100  1.3723 -2.0238 -0.0373
  118OSM    H8T12415   5.132   3.334  10.134  0.3538  0.9412  0.9651
  118OSM    C9S12416   5.256   3.182  10.043  0.4557  0.1958  0.2167
  118OSM    H9S12417   5.208   3.093  10.089  0.4996 -0.6157 -1.2549
  118OSM    H9T12418   5.361   3.158  10.016  0.2639  1.9901 -2.3211
  118OSM   C10S12419   5.187   3.217   9.906 -0.1254  0.1148 -0.7467
  118OSM   H10S12420   5.227   3.318   9.882  2.6560 -1.2083 -1.8276
  118OSM   H10T12421   5.077   3.231   9.921 -0.3814 -2.0931 -0.4372
  118OSM   C11S12422   5.204   3.108   9.799  0.2336 -0.3155  1.5174
  118OSM   H11S12423   5.150   3.016   9.830  0.4189 -0.1444  2.3650
  118OSM   H11T12424   5.311   3.083   9.811  0.0040 -0.7276  2.7233
  118OSM   C12S12425   5.167   3.154   9.661  0.0962 -0.5634 -0.0872
  118OSM   H12S12426   5.230   3.237   9.624 -0.5731 -0.7982 -1.8231
  118OSM   H12T12427   5.062   3.189   9.649  0.0510 -0.1594  1.3730
  118OSM   C13S12428   5.186   3.042   9.562  0.0881 -0.2655  0.3785
  118OSM   H13S12429   5.117   2.961   9.593 -0.6098  0.3932  0.5901
  118OSM   H13T12430   5.289   3.002   9.557 -0.1848 -0.8727 -0.4698
  118OSM   C14S12431   5.138   3.082   9.420 -0.2131  0.1873 -0.0397
  118OSM   H14S12432   5.034   3.122   9.421 -1.7149 -3.5615  0.9975
  118OSM   H14T12433   5.127   2.990   9.359 -2.2457  0.7544 -0.5828
  118OSM   C15S12434   5.241   3.164   9.341  0.0860 -0.0935  0.4413
  118OSM   H15S12435   5.340   3.120   9.369  0.1548 -0.3217 -0.1454
  118OSM   H15T12436   5.244   3.269   9.375  2.3665 -0.0636  0.2725
  118OSM   C16S12437   5.225   3.164   9.182 -0.2166  0.6339  0.4911
  118OSM   H16S12438   5.273   3.254   9.138 -0.9073  1.0634  0.6178
  118OSM   H16T12439   5.119   3.151   9.153  0.3578  0.6081 -1.6842
  118OSM   C17S12440   5.300   3.042   9.123 -0.5387 -0.3101  0.4235
  118OSM   H17S12441   5.243   2.954   9.160 -1.4085  0.6681  1.4298
  118OSM   H17T12442   5.400   3.049   9.171 -0.4527  1.4604  0.0183
  118OSM   C18S12443   5.320   3.034   8.973  0.1812 -0.6518 -0.4445
  118OSM   H18S12444   5.380   2.944   8.949 -0.5814 -1.6676  1.3659
  118OSM   H18T12445   5.374   3.124   8.936 -0.9404 -0.1046 -0.7828
  118OSM   H18U12446   5.225   3.023   8.915  0.5965 -2.1142 -0.8657
  118OSM    C1F12447   5.752   3.263  10.659 -0.9535 -0.3404 -0.7493
  118OSM     OF12448   5.800   3.155  10.634  0.2147  0.4178  0.2285
  118OSM    C2F12449   5.825   3.392  10.655 -0.6535  0.6960 -0.6255
  118OSM    H2F12450   5.871   3.416  10.753 -0.0221 -1.8832 -0.2766
  118OSM    H2G12451   5.745   3.469  10.641 -2.3325 -0.8255  0.4982
  118OSM    C3F12452   5.923   3.414  10.544 -0.4433  0.1407 -0.8530
  118OSM    H3F12453   6.009   3.347  10.560  0.4390  1.2172 -1.0148
  118OSM    H3G12454   5.959   3.519  10.545 -1.7964  0.6202 -0.6598
  118OSM    C4F12455   5.851   3.387  10.409  0.0607 -0.0436 -0.0370
  118OSM    H4F12456   5.766   3.458  10.407  0.1162  0.0067 -0.7890
  118OSM    H4G12457   5.810   3.284  10.400  1.1579 -0.8435  3.2244
  118OSM    C5F12458   5.938   3.412  10.285  0.1384  0.3960 -0.6750
  118OSM    H5F12459   6.032   3.353  10.277  0.2978  0.7728 -1.7079
  118OSM    H5G12460   5.982   3.514  10.287 -1.9090  1.2919 -0.1610
  118OSM    C6F12461   5.874   3.390  10.152  0.0968 -0.5666 -0.0540
  118OSM    H6F12462   5.948   3.440  10.086  1.4285 -0.5460  1.4407
  118OSM    H6G12463   5.777   3.444  10.150  0.7679  0.7283  1.4274
  118OSM    C7F12464   5.837   3.242  10.116 -0.1408  0.5262 -0.6213
  118OSM    H7F12465   5.746   3.222  10.176 -0.5704  2.0197 -0.7568
  118OSM    H7G12466   5.918   3.176  10.153 -1.2339  0.5084  1.8485
  118OSM    C8F12467   5.806   3.228   9.966 -0.0749  0.9760  0.4489
  118OSM    H8F12468   5.788   3.121   9.941  0.8481  1.4045 -2.1116
  118OSM    H8G12469   5.886   3.270   9.902  0.9130 -1.4226  0.0312
  118OSM    C9F12470   5.676   3.297   9.938  0.5476 -0.6055  0.0631
  118OSM    H9F12471   5.597   3.298  10.014  0.9483 -2.3700  0.5332
  118OSM   C10F12472   5.643   3.341   9.815 -0.4619 -0.2976 -0.6585
  118OSM   H10F12473   5.545   3.387   9.796  0.6791  1.2345 -3.1851
  118OSM   C11F12474   5.709   3.342   9.682 -0.5587 -0.0881  0.1046
  118OSM   H11F12475   5.819   3.331   9.697 -0.7325  0.2790  1.7828
  118OSM   H11G12476   5.715   3.443   9.638 -1.9122 -0.2844 -0.5576
  118OSM   C12F12477   5.652   3.249   9.569  0.0895 -1.0603  0.1839
  118OSM   H12F12478   5.547   3.284   9.560  0.3662 -0.0516  0.9044
  118OSM   H12G12479   5.652   3.151   9.621  2.3557 -0.9514  0.4165
  118OSM   C13F12480   5.731   3.254   9.435 -0.0578 -0.0109 -0.6182
  118OSM   H13F12481   5.815   3.182   9.443 -1.7536 -2.0454 -0.7500
  118OSM   H13G12482   5.771   3.357   9.423  1.4748 -0.5959 -0.6181
  118OSM   C14F12483   5.655   3.207   9.310 -0.9075  0.2862  0.1474
  118OSM   H14F12484   5.552   3.247   9.315 -0.1981  2.2291 -0.3525
  118OSM   H14G12485   5.644   3.097   9.309 -3.1079  0.4352  2.6076
  118OSM   C15F12486   5.714   3.265   9.182 -0.3006  0.5070 -0.2834
  118OSM   H15F12487   5.818   3.229   9.167  0.7740  3.5864 -0.6651
  118OSM   H15G12488   5.725   3.374   9.204 -0.9208  0.5628 -0.2473
  118OSM   C16F12489   5.625   3.236   9.062 -0.2284  0.5682 -0.5222
  118OSM   H16F12490   5.526   3.284   9.080 -0.0165  1.3041 -1.2578
  118OSM   H16G12491   5.629   3.126   9.047  1.3158 -0.2141  4.6182
  118OSM   C17F12492   5.675   3.303   8.932 -0.0941 -0.2445  0.3983
  118OSM   H17F12493   5.699   3.411   8.941  0.7180 -0.4231  0.4867
  118OSM   H17G12494   5.583   3.285   8.874 -0.1486  3.0361 -0.6130
  118OSM   C18F12495   5.795   3.229   8.862  0.2642  0.5288  0.1111
  118OSM   H18F12496   5.761   3.126   8.837  0.4041  0.6755 -0.6967
  118OSM   H18G12497   5.878   3.221   8.936  0.5334 -0.8248 -0.3310
  118OSM   H18H12498   5.834   3.278   8.770  1.7498 -0.9705 -0.0764
  119OSM      N12499   0.038   2.392  11.375  0.5384  0.6238  0.6736
  119OSM    C1512500   0.053   2.251  11.427 -0.1205 -0.0947 -0.1444
  119OSM   H15A12501   0.116   2.188  11.366  0.8059 -0.2815  0.9774
  119OSM   H15B12502  -0.044   2.206  11.447 -0.9135  1.4937 -0.3398
  119OSM   H15C12503   0.092   2.246  11.528  0.8703 -1.3237 -0.5779
  119OSM    C1412504  -0.079   2.450  11.446  0.0420 -0.0246  0.4526
  119OSM   H14A12505  -0.102   2.554  11.425 -1.9349 -0.7479 -1.0925
  119OSM   H14B12506  -0.076   2.441  11.554 -0.2789 -0.6723  0.4063
  119OSM   H14C12507  -0.169   2.400  11.415  1.6527 -2.2591 -0.7381
  119OSM    C1312508   0.162   2.468  11.404 -0.3080 -0.3853 -0.1870
  119OSM   H13A12509   0.157   2.562  11.352  0.3863 -0.0672  0.3036
  119OSM   H13B12510   0.248   2.404  11.394 -1.4295 -2.1806  1.3595
  119OSM   H13C12511   0.157   2.488  11.510 -1.3758  1.9794 -0.6573
  119OSM    C1212512   0.016   2.386  11.220  0.1445 -0.1702 -0.1090
  119OSM   H12A12513  -0.049   2.305  11.192 -0.4517  0.3952 -0.3715
  119OSM   H12B12514   0.102   2.352  11.163 -0.0244 -1.4673  0.4117
  119OSM    C1112515  -0.023   2.525  11.155  0.0216 -0.5156 -0.4906
  119OSM   H11A12516  -0.018   2.503  11.046 -0.4420  0.0898 -0.6379
  119OSM   H11B12517   0.061   2.593  11.181 -1.6673  1.0020  1.1968
  119OSM      P12518  -0.187   2.731  11.144  0.4480  0.0902 -0.3866
  119OSM    O1312519  -0.330   2.750  11.180 -0.2543 -0.5907  0.5956
  119OSM    O1412520  -0.097   2.821  11.218 -0.6129 -0.1370 -0.6819
  119OSM    O1112521  -0.168   2.740  10.993 -0.6880 -0.2082 -0.0249
  119OSM    O1212522  -0.155   2.579  11.178 -0.0544  0.4483 -0.7159
  119OSM    C1S12523  -0.238   2.645  10.910  0.6035 -0.5208  0.1471
  119OSM    H1S12524  -0.345   2.638  10.941  0.8424 -1.8898  0.6779
  119OSM    H1T12525  -0.183   2.549  10.902  0.2106 -0.7891  0.5997
  119OSM     NF12526  -0.340   2.604  10.679 -0.6522  0.4326 -0.4230
  119OSM    HNF12527  -0.296   2.564  10.599  2.9074  3.0016  0.1183
  119OSM    C2S12528  -0.255   2.697  10.762 -0.2394  0.3795  0.7655
  119OSM    H2S12529  -0.309   2.794  10.763 -1.6033 -0.3520  0.1813
  119OSM    C3S12530  -0.122   2.714  10.691  0.2703  0.3118  0.6944
  119OSM    H3S12531  -0.080   2.612  10.685 -0.4802 -0.0915  2.0414
  119OSM     O312532  -0.032   2.802  10.756  0.2942 -0.0043 -0.0636
  119OSM    HO312533  -0.060   2.810  10.848  1.5782  0.2504  0.3083
  119OSM    C4S12534  -0.140   2.773  10.557  0.2649 -0.7929  0.4822
  119OSM    H4S12535  -0.188   2.872  10.561  0.5489 -0.6836  1.2917
  119OSM    C5S12536  -0.112   2.716  10.442 -0.4199 -0.0749  0.3727
  119OSM    H5S12537  -0.067   2.616  10.438 -3.6917 -1.5557 -1.1713
  119OSM    C6S12538  -0.147   2.779  10.309 -0.3974  0.6501  0.1955
  119OSM    H6S12539  -0.154   2.693  10.240 -2.2950  0.4139  0.6656
  119OSM    H6T12540  -0.063   2.840  10.270  0.6532 -1.4714 -0.9287
  119OSM    C7S12541  -0.276   2.866  10.305 -0.1931 -0.4141  0.7612
  119OSM    H7S12542  -0.262   2.939  10.388  4.8870 -0.6688  0.2934
  119OSM    H7T12543  -0.368   2.806  10.318  0.0233 -1.1522 -0.9920
  119OSM    C8S12544  -0.286   2.947  10.170 -0.0362  0.8161  0.0768
  119OSM    H8S12545  -0.194   3.008  10.169  1.1904 -0.9922  0.5207
  119OSM    H8T12546  -0.375   3.013  10.161 -0.7288  0.4019  3.1330
  119OSM    C9S12547  -0.296   2.861  10.041  0.4757  0.1379 -0.0105
  119OSM    H9S12548  -0.394   2.811  10.056  0.3775  0.9349  2.1024
  119OSM    H9T12549  -0.212   2.789  10.033  0.2154 -0.1050 -0.6633
  119OSM   C10S12550  -0.307   2.941   9.911  0.0526  0.9031 -0.6997
  119OSM   H10S12551  -0.235   3.026   9.917  0.2493  0.6499  0.5249
  119OSM   H10T12552  -0.402   2.995   9.891 -0.3491  0.3762 -0.1786
  119OSM   C11S12553  -0.266   2.854   9.788 -0.1644  0.4080 -0.3982
  119OSM   H11S12554  -0.317   2.756   9.798  0.5239  0.2316  1.6154
  119OSM   H11T12555  -0.157   2.838   9.803 -0.5297 -1.2018  0.6811
  119OSM   C12S12556  -0.308   2.910   9.654 -0.4694  0.0943 -0.1115
  119OSM   H12S12557  -0.259   3.009   9.646 -0.5463  0.0808 -0.7978
  119OSM   H12T12558  -0.418   2.918   9.650 -0.4385  0.0094 -1.5324
  119OSM   C13S12559  -0.272   2.813   9.543  0.3931  1.0139 -0.4894
  119OSM   H13S12560  -0.327   2.717   9.548  0.1033  1.0319 -2.6274
  119OSM   H13T12561  -0.166   2.781   9.546 -0.1152 -0.8576 -1.5069
  119OSM   C14S12562  -0.293   2.867   9.401  0.3678  0.2347  0.1409
  119OSM   H14S12563  -0.241   2.963   9.379  2.0447 -0.9926 -1.4444
  119OSM   H14T12564  -0.400   2.891   9.390 -0.0539 -1.5569  0.0793
  119OSM   C15S12565  -0.261   2.768   9.291 -0.2655  0.1557 -0.1038
  119OSM   H15S12566  -0.157   2.727   9.296 -1.1006 -1.9337  0.9116
  119OSM   H15T12567  -0.265   2.818   9.192  2.1002  1.6500  0.5110
  119OSM   C16S12568  -0.353   2.646   9.292  0.2267 -0.0601 -0.4833
  119OSM   H16S12569  -0.456   2.681   9.317  0.2982  0.7831 -1.3279
  119OSM   H16T12570  -0.316   2.576   9.370 -0.6624 -0.9633 -0.8575
  119OSM   C17S12571  -0.362   2.578   9.156  0.3209 -0.2379  0.0635
  119OSM   H17S12572  -0.397   2.473   9.157  1.6166 -0.7437 -2.5036
  119OSM   H17T12573  -0.258   2.586   9.117  0.2751  0.1207  0.0065
  119OSM   C18S12574  -0.456   2.656   9.055 -0.4161  0.0750  0.1252
  119OSM   H18S12575  -0.423   2.762   9.043  2.0920 -0.6800  0.0056
  119OSM   H18T12576  -0.552   2.665   9.110  0.3215 -0.3255  1.4869
  119OSM   H18U12577  -0.474   2.603   8.959  2.7030 -1.4744  0.3479
  119OSM    C1F12578  -0.470   2.580  10.702  0.4505  0.2486 -0.1384
  119OSM     OF12579  -0.527   2.654  10.781 -0.1302 -0.2407 -0.1526
  119OSM    C2F12580  -0.553   2.471  10.633 -0.4518  0.5006 -0.3634
  119OSM    H2F12581  -0.646   2.520  10.597 -1.3627 -0.2585  0.9088
  119OSM    H2G12582  -0.581   2.396  10.711  1.8116  0.6070  0.5809
  119OSM    C3F12583  -0.487   2.403  10.505 -0.1826 -0.8441 -0.1611
  119OSM    H3F12584  -0.565   2.328  10.480 -0.6161  0.4519 -2.8689
  119OSM    H3G12585  -0.393   2.358  10.543  0.3955  1.7470  1.6250
  119OSM    C4F12586  -0.458   2.486  10.382  0.2624  0.2038  0.2103
  119OSM    H4F12587  -0.360   2.536  10.396  0.4670  0.1992 -1.1422
  119OSM    H4G12588  -0.536   2.566  10.386  0.9431  1.1677 -3.2689
  119OSM    C5F12589  -0.474   2.414  10.247 -0.7579  0.0512 -0.1110
  119OSM    H5F12590  -0.575   2.368  10.241 -1.3600  0.9183  2.6427
  119OSM    H5G12591  -0.390   2.341  10.238 -0.1491  0.7988 -0.5171
  119OSM    C6F12592  -0.463   2.512  10.135 -0.2578 -0.4522 -0.0179
  119OSM    H6F12593  -0.363   2.557  10.116 -0.3979 -0.3475 -0.5178
  119OSM    H6G12594  -0.514   2.608  10.159  2.2518  0.7290  0.7759
  119OSM    C7F12595  -0.500   2.444  10.001  0.3645  0.7055 -0.8073
  119OSM    H7F12596  -0.611   2.445  10.001  0.3371  0.7171  1.0604
  119OSM    H7G12597  -0.461   2.341  10.010 -0.3225  0.6314  2.0142
  119OSM    C8F12598  -0.452   2.527   9.879 -1.2737 -0.1867  0.6405
  119OSM    H8F12599  -0.342   2.516   9.872 -1.3690 -1.0092  0.4378
  119OSM    H8G12600  -0.477   2.635   9.882  0.9025  0.3298  3.1779
  119OSM    C9F12601  -0.516   2.477   9.758  0.2997 -0.5170 -0.1459
  119OSM    H9F12602  -0.610   2.529   9.734  0.7599  1.0104  1.3381
  119OSM   C10F12603  -0.471   2.380   9.674 -0.0383  0.1094 -0.0226
  119OSM   H10F12604  -0.534   2.356   9.587 -2.1875  1.7649  1.0250
  119OSM   C11F12605  -0.343   2.303   9.692 -0.1920  0.8527  0.8161
  119OSM   H11F12606  -0.367   2.195   9.700 -1.0136  0.9091 -0.6254
  119OSM   H11G12607  -0.276   2.331   9.775  1.9658 -0.1997 -0.5223
  119OSM   C12F12608  -0.250   2.312   9.567  0.5801 -0.3025 -0.2941
  119OSM   H12F12609  -0.162   2.249   9.596  0.1010 -0.5986  0.5540
  119OSM   H12G12610  -0.210   2.411   9.537 -2.1687  0.7096 -0.6941
  119OSM   C13F12611  -0.303   2.241   9.444  0.2158  0.2322 -0.1430
  119OSM   H13F12612  -0.382   2.309   9.408 -1.1109 -0.7180  0.9309
  119OSM   H13G12613  -0.351   2.143   9.465  0.9268 -0.7799 -3.0334
  119OSM   C14F12614  -0.197   2.229   9.337  0.5320  0.1275 -0.1219
  119OSM   H14F12615  -0.115   2.303   9.341 -0.8253  1.5980  0.9906
  119OSM   H14G12616  -0.249   2.258   9.244  0.0946  0.5800  0.2612
  119OSM   C15F12617  -0.122   2.093   9.327  0.0833  0.8544 -0.2785
  119OSM   H15F12618  -0.196   2.011   9.333  1.1550 -0.0023  1.7961
  119OSM   H15G12619  -0.065   2.083   9.422 -0.5405  0.6650  0.0751
  119OSM   C16F12620  -0.037   2.079   9.198 -0.1203 -0.5579  0.1075
  119OSM   H16F12621  -0.100   2.105   9.111  0.9773  2.2257  0.1005
  119OSM   H16G12622  -0.007   1.973   9.183  2.0895 -0.5063  3.5144
  119OSM   C17F12623   0.083   2.172   9.194 -0.5416 -0.0161 -0.0397
  119OSM   H17F12624   0.140   2.141   9.284 -1.6495 -1.7447  0.1010
  119OSM   H17G12625   0.050   2.276   9.214 -0.2274 -0.0164  0.4759
  119OSM   C18F12626   0.168   2.164   9.068 -0.4084 -0.9370  0.6928
  119OSM   H18F12627   0.270   2.205   9.081 -0.6374 -0.7336  1.9929
  119OSM   H18G12628   0.125   2.228   8.988  1.7851  0.0145  0.2369
  119OSM   H18H12629   0.176   2.062   9.025  0.9922 -0.6192  0.1854
  120OSM      N12630   5.081   5.970  10.898 -0.4499 -0.1507  0.4368
  120OSM    C1512631   5.075   6.117  10.886 -0.1088 -0.3054  0.0157
  120OSM   H15A12632   4.972   6.149  10.875 -0.6879 -1.9483  0.5141
  120OSM   H15B12633   5.130   6.149  10.799 -2.1839  0.8324 -0.9356
  120OSM   H15C12634   5.106   6.170  10.974  0.7414 -1.1947  0.2611
  120OSM    C1412635   5.223   5.942  10.945  0.9408  0.0716 -0.5908
  120OSM   H14A12636   5.241   5.836  10.942 -2.7100 -0.6821  1.2905
  120OSM   H14B12637   5.236   5.962  11.050  0.5725 -0.3844 -0.4595
  120OSM   H14C12638   5.293   6.000  10.887 -0.5374  1.5168 -0.9620
  120OSM    C1312639   4.987   5.929  11.004  0.1260  0.0527 -0.5136
  120OSM   H13A12640   4.884   5.943  10.973  0.1864  1.5992 -0.0486
  120OSM   H13B12641   5.002   5.997  11.086  1.9398 -0.4317 -0.4128
  120OSM   H13C12642   5.005   5.825  11.029  0.2894 -0.2924 -2.0075
  120OSM    C1212643   5.049   5.902  10.764 -0.4869 -0.8254  0.6513
  120OSM   H12A12644   4.947   5.927  10.740 -0.3569  1.6069  2.4928
  120OSM   H12B12645   5.054   5.794  10.763 -0.5107 -0.8266  0.5684
  120OSM    C1112646   5.134   5.949  10.643  0.6104 -0.5089  0.1665
  120OSM   H11A12647   5.112   6.053  10.611 -2.3628 -1.8413 -2.3829
  120OSM   H11B12648   5.105   5.903  10.546 -1.2852  0.4042  0.2643
  120OSM      P12649   5.326   5.774  10.638  0.1288  0.0707 -0.6785
  120OSM    O1312650   5.474   5.773  10.630  0.3289  0.1799  0.2355
  120OSM    O1412651   5.274   5.681  10.738  0.9435  0.6124  0.0694
  120OSM    O1112652   5.268   5.730  10.506 -0.3642  0.3859  0.1953
  120OSM    O1212653   5.272   5.920  10.664 -0.2038 -0.0153 -0.5242
  120OSM    C1S12654   5.313   5.779  10.378  0.5186  0.1122  0.1492
  120OSM    H1S12655   5.416   5.743  10.354 -0.1749 -1.6140 -0.3116
  120OSM    H1T12656   5.301   5.890  10.377 -3.2404 -0.2469  0.0640
  120OSM     NF12657   5.296   5.779  10.136 -0.2009  0.1524 -0.2019
  120OSM    HNF12658   5.260   5.858  10.085 -0.3184  1.7740  2.3155
  120OSM    C2S12659   5.227   5.724  10.254 -0.5235  0.2853 -0.4739
  120OSM    H2S12660   5.235   5.614  10.266  3.0295  0.5434  0.1300
  120OSM    C3S12661   5.075   5.754  10.265 -0.4255  0.7040  0.5026
  120OSM    H3S12662   5.062   5.864  10.274 -0.6745  0.7058  0.1074
  120OSM     O312663   5.011   5.705  10.387  0.2130  0.1828 -0.1296
  120OSM    HO312664   5.078   5.656  10.434  0.1674 -0.2147 -0.4794
  120OSM    C4S12665   5.006   5.700  10.144  0.5369  0.5850 -0.7508
  120OSM    H4S12666   5.001   5.786  10.076  0.5685  0.8907 -0.3709
  120OSM    C5S12667   4.962   5.577  10.117 -0.3845  0.4296  0.0670
  120OSM    H5S12668   4.980   5.493  10.186 -0.8728  0.4312  0.1976
  120OSM    C6S12669   4.890   5.559   9.984 -0.4563 -0.2346 -0.1479
  120OSM    H6S12670   4.799   5.623   9.981 -0.3955 -0.1062  0.6895
  120OSM    H6T12671   4.849   5.456   9.990  0.3602 -0.5491 -0.0012
  120OSM    C7S12672   4.963   5.580   9.851 -0.1960  0.0280  0.0100
  120OSM    H7S12673   5.039   5.501   9.833  0.1521  0.2843  0.3559
  120OSM    H7T12674   5.020   5.676   9.848  0.7292 -0.5669 -2.7303
  120OSM    C8S12675   4.861   5.585   9.735  0.0071  0.3537  0.3358
  120OSM    H8S12676   4.780   5.655   9.764  0.8055  0.8282  1.4630
  120OSM    H8T12677   4.808   5.488   9.741 -0.8786  0.9253  1.9160
  120OSM    C9S12678   4.915   5.634   9.597 -0.1499  0.1523 -0.1067
  120OSM    H9S12679   5.016   5.588   9.597  0.5000  1.5136 -2.1041
  120OSM    H9T12680   4.930   5.744   9.592  1.8009 -0.1273 -0.4335
  120OSM   C10S12681   4.840   5.580   9.475  0.7331 -0.2134 -0.5852
  120OSM   H10S12682   4.744   5.635   9.466  0.2391 -1.3164 -2.2242
  120OSM   H10T12683   4.815   5.473   9.487  3.2233 -0.8804 -1.1609
  120OSM   C11S12684   4.910   5.583   9.343 -0.2585 -1.0653 -0.1712
  120OSM   H11S12685   4.850   5.510   9.285 -2.3354 -1.6068  2.5519
  120OSM   H11T12686   5.007   5.532   9.365 -0.8292 -0.9715  2.7704
  120OSM   C12S12687   4.935   5.724   9.283 -0.2964  0.4244 -0.1401
  120OSM   H12S12688   4.994   5.788   9.352 -1.5230 -0.1347  1.4614
  120OSM   H12T12689   4.834   5.770   9.276 -0.9461 -0.9478  0.0723
  120OSM   C13S12690   4.996   5.713   9.140  0.2090 -0.0949  0.0499
  120OSM   H13S12691   4.924   5.664   9.071  0.9872  0.8465 -1.4563
  120OSM   H13T12692   5.081   5.641   9.148 -0.6659 -0.9097  2.5060
  120OSM   C14S12693   5.048   5.843   9.085 -0.1862 -0.6813  0.2278
  120OSM   H14S12694   5.156   5.835   9.058 -0.3561  1.1676 -1.0918
  120OSM   H14T12695   5.032   5.911   9.171 -2.0924  0.2201 -0.8055
  120OSM   C15S12696   4.973   5.892   8.951  0.4473 -0.2771 -0.0908
  120OSM   H15S12697   5.013   5.992   8.926 -0.4524  1.0626  3.6272
  120OSM   H15T12698   4.865   5.888   8.977 -0.1528  1.1787 -2.1644
  120OSM   C16S12699   4.986   5.796   8.827  0.2448 -0.1780 -0.1705
  120OSM   H16S12700   4.943   5.695   8.842  2.1548 -0.8246  1.1640
  120OSM   H16T12701   5.095   5.780   8.812 -0.0341 -1.7900 -0.5892
  120OSM   C17S12702   4.910   5.850   8.709  0.2707 -0.1090 -0.1927
  120OSM   H17S12703   4.940   5.955   8.688  0.7181 -0.5359 -1.7861
  120OSM   H17T12704   4.801   5.854   8.730 -0.0649 -0.6959 -1.7333
  120OSM   C18S12705   4.933   5.771   8.575 -0.1444  0.2631 -0.3658
  120OSM   H18S12706   5.041   5.770   8.551  0.3041 -3.4366  1.4556
  120OSM   H18T12707   4.876   5.820   8.493  0.4951  1.1541 -0.2824
  120OSM   H18U12708   4.912   5.662   8.581  2.3909 -0.3008 -1.0534
  120OSM    C1F12709   5.413   5.728  10.101 -0.7031 -0.7180  0.8933
  120OSM     OF12710   5.434   5.611  10.126  0.0997  0.2257 -0.3851
  120OSM    C2F12711   5.515   5.817  10.034 -0.4592  0.0623  0.6215
  120OSM    H2F12712   5.457   5.899   9.987 -1.0624 -1.5223 -1.4528
  120OSM    H2G12713   5.557   5.756   9.951 -0.2019  1.2682 -0.1506
  120OSM    C3F12714   5.622   5.859  10.140 -0.5099  0.2820  0.7232
  120OSM    H3F12715   5.677   5.768  10.172 -1.9015 -0.7924  0.0913
  120OSM    H3G12716   5.559   5.886  10.228 -0.2047  1.0692  0.7048
  120OSM    C4F12717   5.711   5.984  10.105  0.0580  0.5618 -0.4126
  120OSM    H4F12718   5.650   6.071  10.072 -0.8890  0.6873  1.5823
  120OSM    H4G12719   5.770   5.958  10.015 -2.1201  0.0275 -1.7240
  120OSM    C5F12720   5.814   6.013  10.211  0.0799 -0.5506  0.1826
  120OSM    H5F12721   5.879   5.926  10.235  0.7287 -0.1634 -0.1752
  120OSM    H5G12722   5.764   6.052  10.303 -1.1083  0.4237 -0.8625
  120OSM    C6F12723   5.903   6.123  10.165 -1.2530 -0.7669  0.0723
  120OSM    H6F12724   5.847   6.215  10.139 -1.1442 -0.1136  2.0227
  120OSM    H6G12725   5.945   6.077  10.073  1.1517 -0.2674  0.8807
  120OSM    C7F12726   6.030   6.150  10.246  0.3028  0.5840  0.1229
  120OSM    H7F12727   6.101   6.066  10.260 -0.4986 -0.0583  0.3924
  120OSM    H7G12728   6.004   6.182  10.349  0.4450 -1.5299  0.8487
  120OSM    C8F12729   6.119   6.258  10.194 -0.6143 -0.0046 -0.7869
  120OSM    H8F12730   6.202   6.280  10.264 -0.9824 -0.2126 -0.2861
  120OSM    H8G12731   6.061   6.351  10.180 -0.3767  0.1596 -0.6715
  120OSM    C9F12732   6.177   6.228  10.054  0.4626 -0.3385 -0.1513
  120OSM    H9F12733   6.224   6.129  10.057 -2.3335 -1.6308  2.9463
  120OSM   C10F12734   6.190   6.302   9.942 -0.7630  0.2277 -0.8355
  120OSM   H10F12735   6.265   6.262   9.873 -0.5867 -0.7885 -0.0602
  120OSM   C11F12736   6.170   6.452   9.925 -0.0488 -0.0018  0.5963
  120OSM   H11F12737   6.249   6.491   9.858 -1.7874 -1.7039 -2.5704
  120OSM   H11G12738   6.187   6.508  10.020 -0.5021 -0.7488  1.1218
  120OSM   C12F12739   6.034   6.481   9.850 -0.4018 -0.0761  0.3077
  120OSM   H12F12740   6.046   6.584   9.809  1.1923 -0.6048 -0.6252
  120OSM   H12G12741   5.953   6.477   9.926 -0.2331 -1.9705  0.4143
  120OSM   C13F12742   5.998   6.397   9.726  0.2010  0.1361 -0.1170
  120OSM   H13F12743   5.897   6.428   9.692 -0.1766 -0.0662  0.7844
  120OSM   H13G12744   5.970   6.296   9.763 -1.4231  0.6131  0.0253
  120OSM   C14F12745   6.089   6.405   9.606 -0.3603  0.3331  0.1613
  120OSM   H14F12746   6.195   6.376   9.622 -0.8268 -1.1116  0.7766
  120OSM   H14G12747   6.090   6.511   9.574  1.6305  0.2764 -0.0457
  120OSM   C15F12748   6.036   6.329   9.482  0.0295 -0.6710  0.0616
  120OSM   H15F12749   5.930   6.362   9.479 -0.0817 -1.1494 -1.7774
  120OSM   H15G12750   6.027   6.220   9.504  1.2336 -0.9390 -0.6845
  120OSM   C16F12751   6.105   6.364   9.353  0.7415  0.0071 -0.0799
  120OSM   H16F12752   6.059   6.298   9.276 -0.0149 -0.2104  0.5594
  120OSM   H16G12753   6.213   6.337   9.359 -0.0316 -2.9291  1.6599
  120OSM   C17F12754   6.075   6.504   9.300 -0.0181  0.3046 -0.2310
  120OSM   H17F12755   6.138   6.571   9.361 -2.8428  1.1152  1.9272
  120OSM   H17G12756   5.968   6.517   9.329  0.0271 -2.2582  1.3350
  120OSM   C18F12757   6.103   6.522   9.156 -0.3344 -0.1026  0.3712
  120OSM   H18F12758   6.209   6.505   9.129 -0.5725 -1.2465  0.1385
  120OSM   H18G12759   6.088   6.626   9.118  2.3141  0.2769  0.3153
  120OSM   H18H12760   6.030   6.464   9.095  1.1755  0.2244 -1.8233
  121OSM      N12761   4.679   1.792  10.989  0.2922 -0.8276 -0.3330
  121OSM    C1512762   4.572   1.896  11.021  0.1370 -0.0430  0.0012
  121OSM   H15A12763   4.518   1.919  10.931  1.0001  0.6319 -0.3517
  121OSM   H15B12764   4.614   1.988  11.061  0.0715  0.8762 -2.0127
  121OSM   H15C12765   4.501   1.856  11.093  2.5844 -2.0157  1.3967
  121OSM    C1412766   4.743   1.771  11.127 -0.5082  0.3397  0.4203
  121OSM   H14A12767   4.665   1.750  11.198  0.9309 -0.0615  1.9044
  121OSM   H14B12768   4.802   1.857  11.154  1.7866 -0.5660 -1.5367
  121OSM   H14C12769   4.801   1.681  11.122 -0.5791  0.3468 -0.9777
  121OSM    C1312770   4.609   1.667  10.955  0.2197  0.1048  0.8091
  121OSM   H13A12771   4.684   1.592  10.934  1.6688  1.7564  0.0002
  121OSM   H13B12772   4.541   1.686  10.873 -0.3438 -0.7215  1.0795
  121OSM   H13C12773   4.550   1.624  11.035 -1.5053 -0.0069 -0.4737
  121OSM    C1212774   4.772   1.830  10.873  0.3908 -0.2346 -0.6505
  121OSM   H12A12775   4.812   1.929  10.888 -1.4894 -0.0595  4.1936
  121OSM   H12B12776   4.714   1.840  10.783 -3.5826 -0.5945  1.7209
  121OSM    C1112777   4.903   1.746  10.850  0.6261  0.3725 -0.6460
  121OSM   H11A12778   4.944   1.770  10.750 -1.6483  0.2557 -1.6242
  121OSM   H11B12779   4.859   1.646  10.832  2.1759 -0.9321  2.4318
  121OSM      P12780   5.059   1.901  10.997  0.1441 -0.2696 -0.2461
  121OSM    O1312781   5.001   2.011  10.921  0.3815  0.0319 -0.0882
  121OSM    O1412782   5.051   1.919  11.144  0.4402  0.3732 -0.0940
  121OSM    O1112783   5.211   1.876  10.961 -0.0795 -0.5283 -0.4052
  121OSM    O1212784   4.987   1.767  10.966  0.4905 -0.2991 -0.2178
  121OSM    C1S12785   5.251   1.793  10.856 -0.3625  0.0664 -0.4586
  121OSM    H1S12786   5.189   1.702  10.844 -2.0051  1.1795 -0.5593
  121OSM    H1T12787   5.355   1.755  10.869  0.5918  2.8295  0.3220
  121OSM     NF12788   5.280   1.783  10.609  0.7824 -0.0394  0.0191
  121OSM    HNF12789   5.378   1.783  10.591  0.9213  2.0754  0.6112
  121OSM    C2S12790   5.243   1.870  10.719  0.2002  0.3724 -0.0152
  121OSM    H2S12791   5.137   1.902  10.709  0.1569  1.1260  2.5335
  121OSM    C3S12792   5.337   1.995  10.732 -0.7121 -0.2235  0.5789
  121OSM    H3S12793   5.440   1.961  10.758  0.0738 -0.1754 -2.2868
  121OSM     O312794   5.317   2.087  10.835  0.0852  0.4556 -0.2470
  121OSM    HO312795   5.257   2.038  10.891 -0.0742 -0.8223 -1.4950
  121OSM    C4S12796   5.347   2.076  10.605  0.3086 -0.6141  0.1267
  121OSM    H4S12797   5.406   2.032  10.523 -0.6248  0.6025 -1.2313
  121OSM    C5S12798   5.276   2.190  10.574  0.0138  0.3270 -0.9419
  121OSM    H5S12799   5.193   2.222  10.639 -0.8590  0.8545 -2.3021
  121OSM    C6S12800   5.279   2.253  10.436  0.2257  0.0596 -0.4695
  121OSM    H6S12801   5.319   2.356  10.452 -2.1141  1.1150 -1.2453
  121OSM    H6T12802   5.172   2.263  10.407  0.4128 -0.1695 -1.2544
  121OSM    C7S12803   5.367   2.185  10.324  0.0108 -0.6386 -0.0860
  121OSM    H7S12804   5.347   2.076  10.320 -1.0351 -0.4105 -1.3569
  121OSM    H7T12805   5.475   2.195  10.345 -0.0200 -0.7764  0.1445
  121OSM    C8S12806   5.333   2.249  10.185 -0.6530  0.2049  0.6358
  121OSM    H8S12807   5.341   2.360  10.185 -2.0828  0.3733  3.6393
  121OSM    H8T12808   5.224   2.229  10.183 -0.2126 -2.4650  1.9198
  121OSM    C9S12809   5.421   2.187  10.071  0.0176 -1.1233 -0.3106
  121OSM    H9S12810   5.411   2.077  10.064  3.1037 -1.3549 -1.5840
  121OSM    H9T12811   5.528   2.205  10.093 -0.2941  1.0414 -0.4115
  121OSM   C10S12812   5.368   2.246   9.928 -0.0260 -0.1836  0.8287
  121OSM   H10S12813   5.389   2.355   9.930 -2.4270  0.3841 -1.6526
  121OSM   H10T12814   5.258   2.238   9.915 -0.3403  1.4032  2.2708
  121OSM   C11S12815   5.444   2.187   9.807 -0.1955  0.2835  0.2353
  121OSM   H11S12816   5.432   2.077   9.797 -1.3850  0.5024 -1.0200
  121OSM   H11T12817   5.552   2.209   9.822  0.4442 -0.3681 -2.9070
  121OSM   C12S12818   5.397   2.257   9.670 -0.1622  0.0404  0.2789
  121OSM   H12S12819   5.413   2.366   9.687 -2.4840  0.2662  1.2051
  121OSM   H12T12820   5.288   2.249   9.648 -0.1376 -1.2657  0.5968
  121OSM   C13S12821   5.475   2.205   9.553 -0.2156 -0.3787  0.5386
  121OSM   H13S12822   5.458   2.095   9.553 -3.2028  0.0439 -0.1115
  121OSM   H13T12823   5.584   2.225   9.566  0.1910 -0.5098 -2.3506
  121OSM   C14S12824   5.424   2.256   9.421 -0.6424 -0.4615  0.0845
  121OSM   H14S12825   5.425   2.367   9.422  0.6932 -0.4668  0.1141
  121OSM   H14T12826   5.315   2.240   9.401 -0.4681 -0.8248 -0.5920
  121OSM   C15S12827   5.517   2.220   9.306  0.1339 -0.3650  0.5478
  121OSM   H15S12828   5.528   2.110   9.300  0.9559 -0.2651  0.0393
  121OSM   H15T12829   5.623   2.246   9.327 -0.0671  1.3793 -0.4650
  121OSM   C16S12830   5.467   2.291   9.182  0.0683  0.0060  0.1303
  121OSM   H16S12831   5.502   2.395   9.194 -0.7072  0.4619 -1.4027
  121OSM   H16T12832   5.356   2.288   9.188 -0.1063 -0.0084 -2.6214
  121OSM   C17S12833   5.521   2.236   9.046  0.6054 -0.6727 -0.1814
  121OSM   H17S12834   5.443   2.251   8.969  0.6439 -2.1128 -0.5102
  121OSM   H17T12835   5.532   2.126   9.059 -1.1785 -0.8465  0.0545
  121OSM   C18S12836   5.645   2.317   9.002 -0.6034 -0.3873 -0.6819
  121OSM   H18S12837   5.687   2.282   8.905  0.5400  0.2646 -0.4302
  121OSM   H18T12838   5.724   2.312   9.080 -0.2028  1.0494 -0.9661
  121OSM   H18U12839   5.599   2.418   8.994 -0.8251 -0.5930 -2.2213
  121OSM    C1F12840   5.209   1.681  10.550  0.2891  0.2427  0.5941
  121OSM     OF12841   5.093   1.648  10.582 -0.7081 -0.6564 -0.9485
  121OSM    C2F12842   5.274   1.612  10.434 -0.0017  0.2619  0.2558
  121OSM    H2F12843   5.381   1.607  10.463  0.0726  1.4489  0.2317
  121OSM    H2G12844   5.254   1.681  10.349 -2.4156  0.9134  1.3199
  121OSM    C3F12845   5.234   1.463  10.397  0.3658 -0.6597 -0.7780
  121OSM    H3F12846   5.125   1.458  10.379  0.0977  1.4197  0.1457
  121OSM    H3G12847   5.252   1.402  10.488  0.0845  0.2953 -0.0780
  121OSM    C4F12848   5.302   1.408  10.268 -0.2243  0.3254 -0.2177
  121OSM    H4F12849   5.251   1.319  10.226 -1.4899  0.9505 -0.0393
  121OSM    H4G12850   5.410   1.387  10.287 -0.0531  0.4326 -1.0326
  121OSM    C5F12851   5.289   1.510  10.149 -0.0660  0.0234 -0.0835
  121OSM    H5F12852   5.354   1.594  10.179  1.5574 -1.0076 -0.6377
  121OSM    H5G12853   5.189   1.558  10.151 -0.2378 -0.1823 -2.3758
  121OSM    C6F12854   5.319   1.454  10.007  0.3308  0.2779  1.0836
  121OSM    H6F12855   5.281   1.520   9.927  0.0843 -0.0187  0.9547
  121OSM    H6G12856   5.254   1.365  10.021 -0.6772  0.8122 -0.2486
  121OSM    C7F12857   5.464   1.414   9.976  0.0524 -0.4740  0.5374
  121OSM    H7F12858   5.498   1.336  10.048  1.9585  0.3745  0.5848
  121OSM    H7G12859   5.521   1.503  10.008 -2.5606  0.9432  1.4112
  121OSM    C8F12860   5.498   1.383   9.823 -0.5495  0.2649  0.2823
  121OSM    H8F12861   5.437   1.294   9.801  0.9503 -0.9751  1.0047
  121OSM    H8G12862   5.605   1.355   9.836 -0.0583  2.0242  0.1659
  121OSM    C9F12863   5.483   1.498   9.723 -0.0073  0.3105  0.1074
  121OSM    H9F12864   5.528   1.594   9.754 -1.0171  1.3005 -1.4330
  121OSM   C10F12865   5.428   1.498   9.601 -0.7302 -0.0429  0.0670
  121OSM   H10F12866   5.405   1.597   9.560 -2.2583 -0.4327 -0.0336
  121OSM   C11F12867   5.367   1.385   9.519  0.2385 -0.6705 -0.2794
  121OSM   H11F12868   5.259   1.411   9.518 -0.1986 -2.3769  0.8391
  121OSM   H11G12869   5.357   1.292   9.579  0.3817 -0.8129 -0.4710
  121OSM   C12F12870   5.420   1.345   9.382  0.1118 -0.0536  0.2342
  121OSM   H12F12871   5.339   1.273   9.357 -1.3689  1.6480 -0.0002
  121OSM   H12G12872   5.513   1.285   9.394 -0.3327 -0.6441  0.7426
  121OSM   C13F12873   5.433   1.463   9.289 -0.2230  0.2833 -0.5582
  121OSM   H13F12874   5.526   1.521   9.308  0.8521 -1.4599 -0.3885
  121OSM   H13G12875   5.345   1.530   9.292 -1.9369 -1.9471  1.1973
  121OSM   C14F12876   5.454   1.428   9.144 -0.1599 -0.1966  0.3559
  121OSM   H14F12877   5.381   1.354   9.105 -1.9155  1.1599  0.9907
  121OSM   H14G12878   5.554   1.380   9.137  1.0814  2.6002 -3.1380
  121OSM   C15F12879   5.465   1.547   9.043 -0.6912 -0.2344  0.2766
  121OSM   H15F12880   5.557   1.607   9.059 -0.8807  1.2593 -3.7349
  121OSM   H15G12881   5.371   1.606   9.042 -0.1165  0.7245  1.5053
  121OSM   C16F12882   5.481   1.489   8.903 -0.8224  0.4598 -0.1299
  121OSM   H16F12883   5.408   1.408   8.882  0.5295 -1.7542  3.1797
  121OSM   H16G12884   5.580   1.440   8.885 -1.3352 -0.3199 -0.8244
  121OSM   C17F12885   5.465   1.590   8.792 -0.9595  0.8861 -0.4383
  121OSM   H17F12886   5.508   1.688   8.822 -1.1343  0.2654  1.9448
  121OSM   H17G12887   5.358   1.619   8.778 -1.2906 -0.0064  0.2050
  121OSM   C18F12888   5.521   1.542   8.663  0.4154  0.2740  0.7045
  121OSM   H18F12889   5.630   1.526   8.652 -0.0935 -2.7778 -0.5306
  121OSM   H18G12890   5.501   1.616   8.582  0.4292  1.5026  1.8025
  121OSM   H18H12891   5.484   1.441   8.636 -0.3986  0.8639 -0.4522
  122OSM      N12892   5.512   6.599  10.593 -0.2326  0.5683 -0.4508
  122OSM    C1512893   5.648   6.648  10.561  0.7213  0.2899  0.3205
  122OSM   H15A12894   5.701   6.685  10.648 -1.0368  0.4357  1.3455
  122OSM   H15B12895   5.639   6.731  10.492  0.4492  0.2749  0.3411
  122OSM   H15C12896   5.710   6.580  10.505 -0.3856  1.0357 -1.8624
  122OSM    C1412897   5.436   6.575  10.457  0.2960 -0.2170  0.0934
  122OSM   H14A12898   5.490   6.521  10.380  0.2657 -1.5118  0.9710
  122OSM   H14B12899   5.433   6.677  10.420  0.4869 -0.6832 -1.2109
  122OSM   H14C12900   5.337   6.533  10.464 -0.2514  0.8765 -0.9674
  122OSM    C1312901   5.528   6.458  10.655 -0.1025 -0.4139  0.2223
  122OSM   H13A12902   5.429   6.414  10.658 -1.3304  2.0110 -2.2395
  122OSM   H13B12903   5.564   6.453  10.756 -1.0086 -0.8329  0.5308
  122OSM   H13C12904   5.594   6.393  10.599 -0.6506 -0.4243 -0.4169
  122OSM    C1212905   5.427   6.694  10.670 -0.0890 -0.4085 -0.1503
  122OSM   H12A12906   5.326   6.656  10.679 -0.3586 -0.1364 -1.8791
  122OSM   H12B12907   5.400   6.785  10.619  0.5367 -1.1267 -1.8082
  122OSM    C1112908   5.472   6.741  10.809  0.4736  0.6135  0.1431
  122OSM   H11A12909   5.517   6.656  10.863  0.1963  0.2343 -0.2188
  122OSM   H11B12910   5.391   6.775  10.877  0.6353  1.0347  0.1278
  122OSM      P12911   5.527   6.990  10.776  0.4194  0.0710 -0.7244
  122OSM    O1312912   5.422   7.020  10.873  0.0994  0.0893  0.5415
  122OSM    O1412913   5.647   7.078  10.775  0.0075  0.2605 -0.0849
  122OSM    O1112914   5.466   6.976  10.636  0.3811 -0.1957  0.3170
  122OSM    O1212915   5.576   6.845  10.802 -0.0198  0.0430  0.2402
  122OSM    C1S12916   5.544   7.019  10.521  0.0626 -0.0785  0.8321
  122OSM    H1S12917   5.628   6.947  10.506  0.0982  0.0372  0.4529
  122OSM    H1T12918   5.574   7.126  10.521 -1.7224  0.4254  0.6552
  122OSM     NF12919   5.549   7.021  10.270 -0.3005 -0.2781 -0.2044
  122OSM    HNF12920   5.544   7.102  10.213  0.3300 -0.9407 -1.2135
  122OSM    C2S12921   5.462   7.016  10.387  1.2298 -0.0936  0.6961
  122OSM    H2S12922   5.399   6.925  10.381 -2.7574  2.6117  0.2833
  122OSM    C3S12923   5.357   7.130  10.397 -0.2223 -0.1202  0.1143
  122OSM    H3S12924   5.413   7.226  10.399  3.0340 -1.9890  2.2748
  122OSM     O312925   5.271   7.127  10.510  0.4760 -0.4630 -0.8599
  122OSM    HO312926   5.308   7.060  10.568  0.1643 -1.5154 -1.8752
  122OSM    C4S12927   5.253   7.123  10.288 -0.2322 -0.5224  0.0643
  122OSM    H4S12928   5.198   7.028  10.287 -1.3510  0.0855  1.5473
  122OSM    C5S12929   5.239   7.216  10.190  0.8455 -0.3353 -0.0008
  122OSM    H5S12930   5.296   7.310  10.189 -0.6271  0.5815  0.3149
  122OSM    C6S12931   5.137   7.191  10.084 -0.1707 -0.0799  0.1671
  122OSM    H6S12932   5.052   7.263  10.088 -0.2233 -0.0920 -0.6580
  122OSM    H6T12933   5.088   7.091  10.088 -1.7171  0.6369 -0.1463
  122OSM    C7S12934   5.194   7.200   9.946  0.7528  0.4196 -0.5217
  122OSM    H7S12935   5.259   7.112   9.926  0.8318  1.0166 -3.1382
  122OSM    H7T12936   5.237   7.302   9.934  0.0930  0.7446 -0.0736
  122OSM    C8S12937   5.089   7.201   9.836 -0.1003  0.2951  0.8361
  122OSM    H8S12938   5.022   7.289   9.837  0.5348  0.8355 -1.6893
  122OSM    H8T12939   5.018   7.115   9.838 -0.8668  0.7931 -2.6031
  122OSM    C9S12940   5.149   7.212   9.693  0.2049 -0.0790  0.3695
  122OSM    H9S12941   5.194   7.112   9.677  1.9469  0.4128  1.9852
  122OSM    H9T12942   5.227   7.290   9.686  0.1822 -0.0083  0.8411
  122OSM   C10S12943   5.033   7.246   9.590 -0.1909 -0.7387  0.3288
  122OSM   H10S12944   4.999   7.350   9.610  1.9369 -0.4136  2.5409
  122OSM   H10T12945   4.949   7.174   9.603 -0.1549 -0.8205  0.1241
  122OSM   C11S12946   5.082   7.234   9.445  0.6778  0.5266 -0.0203
  122OSM   H11S12947   5.114   7.129   9.429  3.7962  1.3312  0.5222
  122OSM   H11T12948   5.169   7.301   9.428  0.8431  0.4740  0.6303
  122OSM   C12S12949   4.965   7.266   9.348 -0.0983  0.7050  0.3260
  122OSM   H12S12950   4.954   7.374   9.322 -1.3013  0.2080 -1.3539
  122OSM   H12T12951   4.869   7.219   9.376  0.8408 -1.7658 -0.5061
  122OSM   C13S12952   5.000   7.207   9.216 -0.0844 -0.2985 -0.1829
  122OSM   H13S12953   4.908   7.211   9.154 -0.9958  1.2889  1.2194
  122OSM   H13T12954   5.026   7.100   9.230 -1.5127 -0.6107  0.1893
  122OSM   C14S12955   5.110   7.284   9.147  0.3865 -0.4508  0.0053
  122OSM   H14S12956   5.197   7.294   9.217  1.0251 -1.4379 -0.6305
  122OSM   H14T12957   5.065   7.385   9.135  0.4862 -0.5168 -0.9259
  122OSM   C15S12958   5.152   7.220   9.018 -0.3009 -0.1990 -1.1941
  122OSM   H15S12959   5.072   7.217   8.941 -0.4823  2.7208 -1.1864
  122OSM   H15T12960   5.183   7.116   9.043 -0.4328  0.3644  1.4869
  122OSM   C16S12961   5.266   7.306   8.966 -0.0242 -0.2674 -0.0111
  122OSM   H16S12962   5.336   7.260   8.893 -0.6427 -2.6087  0.8283
  122OSM   H16T12963   5.326   7.359   9.043  0.3922 -1.4894  0.5056
  122OSM   C17S12964   5.214   7.422   8.884  0.1720  0.2287 -0.0092
  122OSM   H17S12965   5.181   7.496   8.960  0.7531 -0.8155  1.2846
  122OSM   H17T12966   5.137   7.388   8.811  1.4664  1.0809 -1.8055
  122OSM   C18S12967   5.318   7.484   8.791 -0.4432 -0.2746  0.1841
  122OSM   H18S12968   5.347   7.415   8.708  1.0225  1.5023 -0.8166
  122OSM   H18T12969   5.409   7.523   8.842  1.0546 -1.9960 -1.0744
  122OSM   H18U12970   5.281   7.576   8.741 -1.5865 -1.0002 -0.3112
  122OSM    C1F12971   5.626   6.917  10.234  0.5652  0.2243 -0.5574
  122OSM     OF12972   5.618   6.808  10.297 -0.0867  0.2056  0.0273
  122OSM    C2F12973   5.722   6.933  10.128  0.0475 -0.0192 -0.1473
  122OSM    H2F12974   5.822   6.928  10.175 -0.2725 -0.7952  0.4691
  122OSM    H2G12975   5.712   7.038  10.092  0.5203 -0.8559 -2.7956
  122OSM    C3F12976   5.702   6.844  10.001  0.2394  0.0057  0.4615
  122OSM    H3F12977   5.598   6.844   9.962 -0.7602  0.3781  3.0379
  122OSM    H3G12978   5.724   6.741  10.037  2.1913 -0.0110 -0.6840
  122OSM    C4F12979   5.808   6.862   9.887  0.0686 -0.8186  0.1634
  122OSM    H4F12980   5.911   6.828   9.908  1.0980  0.5677 -2.4082
  122OSM    H4G12981   5.816   6.973   9.887  1.4737 -0.9099 -0.7050
  122OSM    C5F12982   5.770   6.790   9.752  0.1913 -0.1756 -0.8850
  122OSM    H5F12983   5.667   6.820   9.722 -1.5366 -1.5803  3.2223
  122OSM    H5G12984   5.761   6.685   9.787 -0.7144  0.3262  0.4574
  122OSM    C6F12985   5.877   6.806   9.648  0.1628 -0.2907 -0.1709
  122OSM    H6F12986   5.974   6.770   9.690  0.9505  1.6895 -0.2196
  122OSM    H6G12987   5.885   6.914   9.624 -0.9375 -0.3576 -0.8595
  122OSM    C7F12988   5.859   6.725   9.518 -0.0838 -0.2245 -0.6755
  122OSM    H7F12989   5.853   6.620   9.553 -0.5521 -0.0706 -0.2895
  122OSM    H7G12990   5.948   6.736   9.452 -0.6744 -0.0151 -1.4369
  122OSM    C8F12991   5.730   6.748   9.441  0.3235  0.1247  0.0850
  122OSM    H8F12992   5.735   6.850   9.398  1.7907 -0.6164 -1.5659
  122OSM    H8G12993   5.641   6.738   9.507 -0.8172 -1.1668 -1.6284
  122OSM    C9F12994   5.724   6.646   9.331  0.0492  0.2657  0.5591
  122OSM    H9F12995   5.727   6.540   9.361 -0.0987 -0.0259 -0.4162
  122OSM   C10F12996   5.723   6.674   9.199  0.2230 -0.8651 -0.5071
  122OSM   H10F12997   5.701   6.591   9.130 -1.1226  1.9804 -3.6172
  122OSM   C11F12998   5.715   6.813   9.133 -0.4808  0.1841  0.1458
  122OSM   H11F12999   5.721   6.905   9.194  1.3961  1.2585 -1.6098
  122OSM   H11G13000   5.614   6.800   9.089  0.1127 -4.0994 -0.1683
  122OSM   C12F13001   5.805   6.842   9.012  0.4451 -0.2957 -1.1179
  122OSM   H12F13002   5.793   6.760   8.938 -0.2736  0.3358 -1.7023
  122OSM   H12G13003   5.912   6.853   9.040  0.1611  0.1449 -0.1889
  122OSM   C13F13004   5.774   6.976   8.944  0.0998  0.2913  0.3770
  122OSM   H13F13005   5.838   6.963   8.854  0.4772 -0.6021  0.7730
  122OSM   H13G13006   5.806   7.052   9.018  2.0968 -1.9290  1.8641
  122OSM   C14F13007   5.636   6.994   8.884  0.4338 -0.8980 -0.2123
  122OSM   H14F13008   5.638   7.095   8.836 -1.3085 -0.7166  0.0386
  122OSM   H14G13009   5.558   6.997   8.963 -0.7974  0.3684 -1.4384
  122OSM   C15F13010   5.583   6.887   8.792  0.3206 -0.0669  0.1776
  122OSM   H15F13011   5.551   6.794   8.843 -1.4239 -1.4258 -3.2171
  122OSM   H15G13012   5.667   6.861   8.725  0.9204 -1.4366  1.4431
  122OSM   C16F13013   5.469   6.933   8.697 -0.2658 -0.5914  0.0990
  122OSM   H16F13014   5.507   7.015   8.633 -0.9320 -1.0455 -0.8845
  122OSM   H16G13015   5.391   6.985   8.756  0.7206  1.2424 -0.1489
  122OSM   C17F13016   5.422   6.828   8.601  0.6880 -0.6464  0.1610
  122OSM   H17F13017   5.329   6.863   8.554  0.6896 -0.5009  0.2653
  122OSM   H17G13018   5.406   6.737   8.662  1.4258  0.4033  1.9726
  122OSM   C18F13019   5.511   6.799   8.478  0.0420  0.2439  0.9472
  122OSM   H18F13020   5.519   6.889   8.413 -1.0256 -0.8571 -0.7304
  122OSM   H18G13021   5.460   6.713   8.431 -0.6702  2.6503 -2.8932
  122OSM   H18H13022   5.617   6.778   8.505  0.5703 -0.0333 -1.2498
  123OSM      N13023   3.145   5.913   6.156 -0.6510  0.0716 -1.2464
  123OSM    C1513024   3.233   5.994   6.065 -0.1464 -0.1880  0.2725
  123OSM   H15A13025   3.330   6.003   6.113 -0.5233 -2.6772  1.5768
  123OSM   H15B13026   3.195   6.095   6.057 -0.0800 -0.0731  1.3243
  123OSM   H15C13027   3.243   5.950   5.967  0.9519 -1.2270  0.8342
  123OSM    C1413028   3.005   5.925   6.103  0.0077 -0.0476  0.0610
  123OSM   H14A13029   3.001   5.875   6.007 -0.6133  0.0248  0.0495
  123OSM   H14B13030   2.976   6.028   6.093 -1.1714 -0.3785  0.0893
  123OSM   H14C13031   2.928   5.878   6.161  0.1309  0.3824  0.5765
  123OSM    C1313032   3.186   5.770   6.169 -0.5344 -0.0795 -0.3776
  123OSM   H13A13033   3.159   5.727   6.074 -2.1161  1.6239 -0.7363
  123OSM   H13B13034   3.129   5.719   6.245 -0.9329 -0.7337 -1.1083
  123OSM   H13C13035   3.292   5.763   6.185 -0.5449 -2.2418 -1.0663
  123OSM    C1213036   3.150   5.978   6.299 -0.4147  0.1934 -0.8785
  123OSM   H12A13037   3.251   5.962   6.335 -0.3245  0.7285 -0.8997
  123OSM   H12B13038   3.087   5.920   6.365 -0.7510  0.3012 -1.1064
  123OSM    C1113039   3.098   6.124   6.324  0.2494  0.5550 -0.2711
  123OSM   H11A13040   3.157   6.184   6.252  0.5542 -1.2365 -1.5361
  123OSM   H11B13041   3.134   6.163   6.422  0.1345  0.5313 -0.2192
  123OSM      P13042   2.900   6.283   6.308 -0.1289  0.0953 -0.2488
  123OSM    O1313043   2.977   6.366   6.212  0.1774  1.1080  0.2579
  123OSM    O1413044   2.754   6.284   6.303 -0.3255 -0.0389 -0.3848
  123OSM    O1113045   2.935   6.337   6.462 -0.0618 -0.0622 -0.2079
  123OSM    O1213046   2.955   6.137   6.305  0.6148  0.0789 -0.5273
  123OSM    C1S13047   3.012   6.461   6.476 -0.1860 -0.7238  0.1524
  123OSM    H1S13048   2.968   6.553   6.432  2.3195  1.5470  2.2199
  123OSM    H1T13049   3.101   6.463   6.411  1.7309  3.5963  2.6854
  123OSM     NF13050   3.112   6.618   6.638 -0.1853  0.0182 -0.3042
  123OSM    HNF13051   3.206   6.631   6.667 -0.4313  1.2534 -0.0021
  123OSM    C2S13052   3.041   6.490   6.624 -0.2982  0.5154  0.4187
  123OSM    H2S13053   2.950   6.510   6.685  1.8672  0.1760  3.8848
  123OSM    C3S13054   3.124   6.372   6.685 -0.1883 -0.1525  0.4469
  123OSM    H3S13055   3.220   6.353   6.632 -0.0254 -2.6139  1.5486
  123OSM     O313056   3.053   6.248   6.678 -0.0030  0.1106  0.1566
  123OSM    HO313057   3.004   6.266   6.597 -1.0306  0.8964  0.9275
  123OSM    C4S13058   3.175   6.407   6.822 -0.2497 -0.5953 -0.2101
  123OSM    H4S13059   3.272   6.458   6.817 -0.2413 -0.4685  1.0332
  123OSM    C5S13060   3.127   6.372   6.940  0.4417  0.2166  0.1241
  123OSM    H5S13061   3.038   6.306   6.941  0.3131  0.3708 -0.6719
  123OSM    C6S13062   3.177   6.407   7.077 -0.3457 -0.1873  0.7202
  123OSM    H6S13063   3.255   6.328   7.087 -0.5023 -0.3318  0.7952
  123OSM    H6T13064   3.101   6.384   7.155 -0.7567 -1.8284 -0.1208
  123OSM    C7S13065   3.243   6.545   7.116  0.0833  0.1673 -0.0875
  123OSM    H7S13066   3.245   6.553   7.226 -0.3575 -0.6662 -0.0157
  123OSM    H7T13067   3.159   6.614   7.090 -1.8943 -2.4949 -1.0330
  123OSM    C8S13068   3.382   6.575   7.055 -0.0609 -0.0430  0.5304
  123OSM    H8S13069   3.409   6.682   7.064  1.8030 -0.5209  0.7816
  123OSM    H8T13070   3.383   6.555   6.945 -2.7386 -0.0068  0.4562
  123OSM    C9S13071   3.498   6.496   7.117 -0.6273 -0.2363  0.4604
  123OSM    H9S13072   3.486   6.396   7.069  0.6403 -0.3250  0.3114
  123OSM    H9T13073   3.489   6.483   7.227  1.7176 -1.2964  0.5630
  123OSM   C10S13074   3.634   6.551   7.087  0.1124 -0.7420  0.0812
  123OSM   H10S13075   3.642   6.651   7.135 -1.8973 -0.2438 -0.5727
  123OSM   H10T13076   3.641   6.570   6.978  1.0534  0.2149  0.2989
  123OSM   C11S13077   3.756   6.462   7.135 -0.0044  0.0868 -0.1526
  123OSM   H11S13078   3.840   6.529   7.108  0.4407 -0.0369  0.9073
  123OSM   H11T13079   3.759   6.365   7.080  1.8726  0.4005 -0.6184
  123OSM   C12S13080   3.752   6.423   7.287 -0.2042  0.2736 -0.1494
  123OSM   H12S13081   3.849   6.377   7.317  0.4187  1.8087  0.2401
  123OSM   H12T13082   3.677   6.343   7.303 -0.4305  0.7008  0.9520
  123OSM   C13S13083   3.718   6.541   7.378  0.6832  0.4868  0.2208
  123OSM   H13S13084   3.612   6.569   7.361 -0.1214 -2.8792 -0.6115
  123OSM   H13T13085   3.783   6.622   7.337  1.3314 -0.1408 -0.0020
  123OSM   C14S13086   3.737   6.504   7.529 -0.1692  0.1561 -0.4299
  123OSM   H14S13087   3.838   6.460   7.536 -0.2804 -0.0050  0.2158
  123OSM   H14T13088   3.660   6.428   7.556 -0.7993  0.9690  0.0750
  123OSM   C15S13089   3.735   6.621   7.633 -0.4527  0.3148  0.8444
  123OSM   H15S13090   3.643   6.682   7.625  0.3665  1.6162  1.1733
  123OSM   H15T13091   3.821   6.686   7.605 -0.2590 -0.8642 -1.4837
  123OSM   C16S13092   3.756   6.565   7.775 -0.5041 -0.6395  0.5802
  123OSM   H16S13093   3.680   6.487   7.797 -0.9911 -0.5642 -0.7754
  123OSM   H16T13094   3.725   6.644   7.848 -1.5570 -1.8411  1.4619
  123OSM   C17S13095   3.899   6.530   7.811 -0.2307  0.0688  0.4727
  123OSM   H17S13096   3.965   6.614   7.781  1.3168 -1.9565 -2.1466
  123OSM   H17T13097   3.932   6.445   7.747  1.5727  1.4585 -0.5056
  123OSM   C18S13098   3.918   6.501   7.963 -0.5681 -0.5307  0.4327
  123OSM   H18S13099   3.856   6.412   7.987 -0.3914 -0.5302  0.8970
  123OSM   H18T13100   3.905   6.588   8.031 -1.7430 -0.2613 -0.1116
  123OSM   H18U13101   4.024   6.468   7.970 -0.8545 -1.8341 -1.2293
  123OSM    C1F13102   3.050   6.734   6.608 -0.0436  0.7665 -0.4561
  123OSM     OF13103   2.928   6.741   6.587  0.5959  0.0139 -0.0860
  123OSM    C2F13104   3.136   6.856   6.602  0.3797  0.2573  0.2480
  123OSM    H2F13105   3.119   6.911   6.507 -0.5781  1.2598  0.9812
  123OSM    H2G13106   3.245   6.835   6.598  0.2992 -0.3655  1.1831
  123OSM    C3F13107   3.094   6.948   6.720  0.6106 -0.0769 -0.7749
  123OSM    H3F13108   2.996   6.999   6.704  0.0349 -1.7719 -2.8052
  123OSM    H3G13109   3.164   7.034   6.731  0.4729  0.1527 -1.6629
  123OSM    C4F13110   3.102   6.887   6.862  0.1863 -0.1539  0.0328
  123OSM    H4F13111   3.209   6.860   6.878 -0.5325 -1.9397  1.9962
  123OSM    H4G13112   3.039   6.801   6.893 -0.6412  0.1307 -0.8194
  123OSM    C5F13113   3.074   6.999   6.967  0.0428  0.9271 -0.2444
  123OSM    H5F13114   2.968   7.030   6.951 -0.5997 -0.6981  0.7591
  123OSM    H5G13115   3.134   7.091   6.949 -0.1124  1.4071  1.6340
  123OSM    C6F13116   3.080   6.961   7.116  0.1719 -0.1394 -0.0963
  123OSM    H6F13117   3.186   6.970   7.146 -0.1824  1.0084  0.8419
  123OSM    H6G13118   3.037   6.859   7.129 -0.1769  0.1776  1.2919
  123OSM    C7F13119   3.013   7.086   7.193 -0.2034 -0.5017 -0.7794
  123OSM    H7F13120   2.910   7.107   7.157 -0.2876  1.2879  0.4769
  123OSM    H7G13121   3.082   7.165   7.156 -0.5226 -0.2000 -0.7290
  123OSM    C8F13122   3.017   7.058   7.343  0.3467  0.1944  0.2654
  123OSM    H8F13123   3.122   7.034   7.370  0.5619  1.1715  0.3245
  123OSM    H8G13124   2.951   6.969   7.343 -2.9430  2.5056 -1.5449
  123OSM    C9F13125   2.979   7.175   7.442  0.1428  0.3654  0.3918
  123OSM    H9F13126   2.924   7.262   7.401 -1.0692 -0.4541  0.2496
  123OSM   C10F13127   2.983   7.169   7.578 -0.4661  0.0621  0.1751
  123OSM   H10F13128   2.948   7.255   7.636 -1.4252 -1.1425  1.3952
  123OSM   C11F13129   3.031   7.053   7.667  0.3971  0.2894  0.7795
  123OSM   H11F13130   3.118   7.074   7.733  1.9383 -0.8836 -0.8413
  123OSM   H11G13131   3.053   6.969   7.597 -1.0233  1.9611 -1.7708
  123OSM   C12F13132   2.919   7.024   7.767  0.5715 -0.2496  0.2760
  123OSM   H12F13133   2.919   6.920   7.806 -1.0179 -0.2517  0.3066
  123OSM   H12G13134   2.821   7.025   7.715  0.1707  1.1503  1.0489
  123OSM   C13F13135   2.915   7.126   7.889  0.0676 -0.0514  0.3803
  123OSM   H13F13136   2.887   7.228   7.857  1.3921  0.4578  0.7898
  123OSM   H13G13137   3.017   7.120   7.934 -0.0527 -1.7883  0.4662
  123OSM   C14F13138   2.813   7.073   7.989 -0.2246  0.2358 -1.0596
  123OSM   H14F13139   2.827   6.963   8.001  0.6439  0.3416 -1.0407
  123OSM   H14G13140   2.715   7.099   7.943 -0.0435  1.6391 -0.6673
  123OSM   C15F13141   2.826   7.142   8.127  0.1326  0.3643  0.1646
  123OSM   H15F13142   2.813   7.249   8.099  1.4363  0.1688 -1.2471
  123OSM   H15G13143   2.925   7.128   8.174 -0.2829  0.8131  1.2046
  123OSM   C16F13144   2.716   7.086   8.227 -0.1459 -0.1488  0.8271
  123OSM   H16F13145   2.747   6.981   8.245 -2.8394 -0.7453  2.2417
  123OSM   H16G13146   2.614   7.076   8.185 -0.3827  1.2657  1.0285
  123OSM   C17F13147   2.729   7.166   8.360 -0.3865 -0.2988 -0.6952
  123OSM   H17F13148   2.642   7.128   8.416  0.5665 -1.1354  0.2390
  123OSM   H17G13149   2.717   7.276   8.354  0.6500 -0.2051 -1.2203
  123OSM   C18F13150   2.855   7.138   8.443 -0.4738 -0.1764  1.2971
  123OSM   H18F13151   2.946   7.175   8.392 -1.4632 -1.3905 -1.4372
  123OSM   H18G13152   2.859   7.027   8.456  1.3979 -0.1126  1.3915
  123OSM   H18H13153   2.842   7.178   8.546 -2.3069  0.1986  0.9476
  124OSM      N13154   5.566   3.897   6.530  0.4123 -0.7050  0.5903
  124OSM    C1513155   5.684   3.814   6.548 -0.3707  0.0041  0.0753
  124OSM   H15A13156   5.680   3.715   6.591 -1.3143 -0.3209 -0.7470
  124OSM   H15B13157   5.741   3.868   6.622 -1.5060  0.2969  0.7475
  124OSM   H15C13158   5.739   3.807   6.455  0.8353 -2.8446  0.9499
  124OSM    C1413159   5.473   3.815   6.438 -0.3845 -0.2156 -0.3355
  124OSM   H14A13160   5.385   3.874   6.416  0.7027  1.5949  0.0526
  124OSM   H14B13161   5.447   3.723   6.488  2.1441  1.3225  4.1614
  124OSM   H14C13162   5.516   3.784   6.345  2.1031 -3.6007  1.8352
  124OSM    C1313163   5.499   3.923   6.655 -0.1615  0.4045 -0.8378
  124OSM   H13A13164   5.472   3.833   6.709 -0.1157  0.4539 -0.7333
  124OSM   H13B13165   5.415   3.991   6.644 -1.2975 -1.0423 -1.3038
  124OSM   H13C13166   5.568   3.978   6.717 -1.1172  1.2644 -0.5283
  124OSM    C1213167   5.602   4.023   6.463 -0.6206 -0.2821  0.7668
  124OSM   H12A13168   5.646   3.988   6.371 -2.0185  0.3116 -0.1410
  124OSM   H12B13169   5.673   4.078   6.523 -1.0771  0.3289  0.7557
  124OSM    C1113170   5.484   4.107   6.412  0.2219 -0.5523  0.4204
  124OSM   H11A13171   5.403   4.134   6.483 -0.6066  0.9230 -1.0470
  124OSM   H11B13172   5.442   4.050   6.327  1.6511 -0.8051 -0.1287
  124OSM      P13173   5.503   4.368   6.364  1.1526  0.3199  0.0571
  124OSM    O1313174   5.592   4.449   6.273 -0.3899 -0.2315 -0.0568
  124OSM    O1413175   5.354   4.374   6.330  0.2623  0.0866 -0.5273
  124OSM    O1113176   5.531   4.411   6.521 -0.0447 -0.7124 -0.1446
  124OSM    O1213177   5.550   4.222   6.359 -0.2313 -0.1722 -0.3372
  124OSM    C1S13178   5.612   4.341   6.613 -0.0075 -0.2464  0.1708
  124OSM    H1S13179   5.715   4.336   6.571 -0.5106  0.2410 -1.1570
  124OSM    H1T13180   5.581   4.237   6.632  0.3003 -0.6075 -1.2182
  124OSM     NF13181   5.729   4.385   6.841 -0.9216 -0.0195  0.2459
  124OSM    HNF13182   5.711   4.318   6.913 -2.6814 -0.8729 -0.9545
  124OSM    C2S13183   5.616   4.414   6.751 -0.2276  0.1353 -0.8642
  124OSM    H2S13184   5.614   4.523   6.730  0.6328  0.5560  1.1436
  124OSM    C3S13185   5.475   4.389   6.821  0.1426 -0.2756  0.5881
  124OSM    H3S13186   5.454   4.286   6.855  0.0052  0.3412  2.4151
  124OSM     O313187   5.362   4.420   6.738 -0.5659  0.2092 -0.3518
  124OSM    HO313188   5.376   4.392   6.647 -1.0253  0.3292 -0.4632
  124OSM    C4S13189   5.470   4.473   6.946  0.3189  0.3632 -0.1639
  124OSM    H4S13190   5.456   4.410   7.036  0.9560  0.7119  0.1845
  124OSM    C5S13191   5.451   4.607   6.952  0.4562 -0.2009  0.6303
  124OSM    H5S13192   5.441   4.672   6.864  1.7909  1.9785  2.0386
  124OSM    C6S13193   5.427   4.679   7.085  0.1283 -0.1217 -0.2326
  124OSM    H6S13194   5.335   4.741   7.073 -0.1954 -0.2680  1.3726
  124OSM    H6T13195   5.516   4.741   7.106 -1.1383  1.2148  1.2247
  124OSM    C7S13196   5.391   4.593   7.203  0.1313  0.3498 -0.3896
  124OSM    H7S13197   5.475   4.525   7.232  0.9084  1.0897 -0.8746
  124OSM    H7T13198   5.305   4.525   7.184 -0.0832  0.6075 -0.3392
  124OSM    C8S13199   5.363   4.680   7.322  0.6970  0.0006 -0.0846
  124OSM    H8S13200   5.257   4.708   7.300  0.3700 -0.0058  1.4095
  124OSM    H8T13201   5.424   4.773   7.324  2.5458 -1.1500 -1.1459
  124OSM    C9S13202   5.365   4.601   7.447  0.7106  0.1083 -0.4954
  124OSM    H9S13203   5.456   4.538   7.461 -0.8461 -2.4021 -1.2319
  124OSM    H9T13204   5.273   4.539   7.440 -0.6660  1.9042  1.2604
  124OSM   C10S13205   5.351   4.675   7.578  0.2535  0.1439 -0.0414
  124OSM   H10S13206   5.255   4.730   7.578  0.0834 -0.1547 -1.5771
  124OSM   H10T13207   5.430   4.753   7.586 -0.5574  0.9138  0.5224
  124OSM   C11S13208   5.366   4.589   7.707  0.5599  0.7430 -0.9444
  124OSM   H11S13209   5.470   4.551   7.712  0.5597  1.1096  3.8781
  124OSM   H11T13210   5.302   4.498   7.702  2.0497 -0.2864 -1.6256
  124OSM   C12S13211   5.338   4.669   7.840 -0.4590  0.4629 -0.3412
  124OSM   H12S13212   5.229   4.687   7.834 -0.2744  1.1007 -2.2194
  124OSM   H12T13213   5.391   4.766   7.848  0.3805 -0.2965  4.1786
  124OSM   C13S13214   5.359   4.602   7.978 -0.1499  0.2758  0.0533
  124OSM   H13S13215   5.312   4.660   8.061 -1.5703 -0.5114 -0.1798
  124OSM   H13T13216   5.463   4.602   8.016  0.1096  1.5362 -0.6246
  124OSM   C14S13217   5.293   4.463   7.989 -0.3588 -0.2582  0.0097
  124OSM   H14S13218   5.349   4.398   7.919  1.9209  2.0243 -0.3933
  124OSM   H14T13219   5.194   4.466   7.940  0.1501  1.1984 -0.9763
  124OSM   C15S13220   5.272   4.412   8.131  0.7551 -0.1925 -0.0694
  124OSM   H15S13221   5.370   4.422   8.181  0.0488  1.5231  0.9965
  124OSM   H15T13222   5.237   4.306   8.136  0.1968 -0.0647 -1.1565
  124OSM   C16S13223   5.160   4.490   8.211  0.1592 -0.3814  0.0488
  124OSM   H16S13224   5.180   4.597   8.234 -0.0501 -0.4825  0.7061
  124OSM   H16T13225   5.165   4.448   8.314 -1.0210  0.4500  0.4585
  124OSM   C17S13226   5.016   4.472   8.159 -1.2179 -0.1149 -0.2113
  124OSM   H17S13227   5.010   4.504   8.052 -0.4651 -1.2146 -0.5952
  124OSM   H17T13228   4.952   4.550   8.205 -2.5635 -2.0452  1.2504
  124OSM   C18S13229   4.956   4.335   8.161  0.0300 -0.8047 -0.0621
  124OSM   H18S13230   4.851   4.335   8.126 -0.0379  0.7075  0.0896
  124OSM   H18T13231   4.967   4.298   8.265  1.4933  1.4506  0.6416
  124OSM   H18U13232   5.008   4.263   8.094 -0.0141  0.3857 -1.4134
  124OSM    C1F13233   5.851   4.421   6.810  0.4460  0.4263 -0.3688
  124OSM     OF13234   5.883   4.501   6.721 -0.2326 -0.5031  0.4790
  124OSM    C2F13235   5.972   4.375   6.886 -0.1418 -1.2880 -0.3401
  124OSM    H2F13236   5.975   4.264   6.890 -1.4786 -1.3059  0.7181
  124OSM    H2G13237   5.952   4.411   6.990  0.4086 -0.4497 -0.5148
  124OSM    C3F13238   6.117   4.433   6.854 -1.1004  0.5118 -1.5791
  124OSM    H3F13239   6.117   4.543   6.867 -0.6333  0.3699 -0.2876
  124OSM    H3G13240   6.134   4.401   6.748 -0.1639 -0.4198 -1.1662
  124OSM    C4F13241   6.226   4.368   6.940  0.1938  0.2241 -0.5584
  124OSM    H4F13242   6.327   4.394   6.903 -0.3293  0.5612 -1.7758
  124OSM    H4G13243   6.238   4.260   6.915  3.2524  0.9350 -2.4198
  124OSM    C5F13244   6.196   4.379   7.088 -0.1940  0.0967  0.3036
  124OSM    H5F13245   6.097   4.329   7.095 -0.5125  0.8126  0.9874
  124OSM    H5G13246   6.166   4.480   7.124 -0.0878  0.5118 -0.7616
  124OSM    C6F13247   6.289   4.295   7.181 -0.2526 -0.8492  0.1600
  124OSM    H6F13248   6.378   4.362   7.186  0.3430 -1.6612  0.5863
  124OSM    H6G13249   6.320   4.203   7.127  0.1712 -0.6257  0.0221
  124OSM    C7F13250   6.223   4.266   7.313  1.0353  0.1208  0.8080
  124OSM    H7F13251   6.134   4.204   7.288 -0.1595  1.2998  2.0735
  124OSM    H7G13252   6.180   4.363   7.347  1.8004  0.7915 -0.1158
  124OSM    C8F13253   6.305   4.198   7.429 -0.4459 -0.4681 -0.0639
  124OSM    H8F13254   6.354   4.109   7.384 -1.3829 -0.2879 -1.4872
  124OSM    H8G13255   6.233   4.169   7.509  0.0020  0.2113  0.5878
  124OSM    C9F13256   6.401   4.286   7.502  0.0809  0.6403 -0.0066
  124OSM    H9F13257   6.493   4.319   7.451 -0.4699  0.3415 -1.2042
  124OSM   C10F13258   6.377   4.328   7.627 -0.1656  0.1639  0.1496
  124OSM   H10F13259   6.460   4.387   7.670  0.2785 -1.3005  1.3346
  124OSM   C11F13260   6.260   4.322   7.719  0.2672 -0.0123  0.2383
  124OSM   H11F13261   6.173   4.265   7.680 -1.0878  1.2176  1.3769
  124OSM   H11G13262   6.229   4.423   7.753 -0.0365 -0.8726  2.6533
  124OSM   C12F13263   6.304   4.249   7.847  0.3129  0.6046 -0.1471
  124OSM   H12F13264   6.370   4.316   7.906 -1.1454  1.4183  0.5970
  124OSM   H12G13265   6.359   4.153   7.834 -2.6454 -1.3291  1.0494
  124OSM   C13F13266   6.192   4.223   7.947  0.6697  0.3332 -0.4240
  124OSM   H13F13267   6.136   4.140   7.899  1.0720  0.9867 -2.0684
  124OSM   H13G13268   6.133   4.317   7.955  1.0254  0.7393 -2.3183
  124OSM   C14F13269   6.236   4.189   8.085 -0.2212 -0.4741  0.3590
  124OSM   H14F13270   6.144   4.181   8.147 -0.3852 -2.8134 -0.1094
  124OSM   H14G13271   6.304   4.265   8.130 -0.4812  0.4172 -0.7331
  124OSM   C15F13272   6.300   4.052   8.097  0.8328  0.4147  0.1591
  124OSM   H15F13273   6.397   4.047   8.043  0.9303 -0.9325  0.4621
  124OSM   H15G13274   6.231   3.989   8.037  0.1127  2.2098 -0.9432
  124OSM   C16F13275   6.309   4.003   8.240  0.4376 -0.1985  0.1702
  124OSM   H16F13276   6.210   4.013   8.290  1.1352  0.2176  1.4909
  124OSM   H16G13277   6.379   4.072   8.292  0.3592 -0.5754  0.7869
  124OSM   C17F13278   6.350   3.859   8.248  0.6214 -0.5571 -0.6492
  124OSM   H17F13279   6.300   3.810   8.162  0.4238  1.4572 -1.7265
  124OSM   H17G13280   6.304   3.828   8.345  1.1025 -2.1397 -0.9130
  124OSM   C18F13281   6.502   3.831   8.243 -0.2739  0.8922 -0.3876
  124OSM   H18F13282   6.549   3.894   8.164 -0.0277  0.4017 -0.6352
  124OSM   H18G13283   6.511   3.724   8.213 -0.0231  1.0786 -0.9875
  124OSM   H18H13284   6.552   3.849   8.340 -0.5234 -0.7868  0.0802
  125OSM      N13285   5.566   5.298   6.072  0.1508  0.5215  0.2632
  125OSM    C1513286   5.429   5.321   6.144  0.6607  0.0523  0.5290
  125OSM   H15A13287   5.421   5.417   6.193 -0.4335  0.1257  0.2147
  125OSM   H15B13288   5.403   5.243   6.214 -1.4826 -0.0660 -0.3752
  125OSM   H15C13289   5.353   5.311   6.068  0.1473 -0.5141  1.1176
  125OSM    C1413290   5.566   5.171   6.003 -0.0563  0.6013 -0.0100
  125OSM   H14A13291   5.523   5.090   6.060  1.5669 -0.6495 -0.5158
  125OSM   H14B13292   5.663   5.139   5.967 -1.1711 -0.3475 -2.2748
  125OSM   H14C13293   5.498   5.177   5.919  0.5662  0.1486 -0.5579
  125OSM    C1313294   5.578   5.412   5.970  0.2514 -0.1128 -0.5218
  125OSM   H13A13295   5.484   5.427   5.919  0.2582 -1.6445 -1.0238
  125OSM   H13B13296   5.655   5.384   5.900  1.0001 -0.3520  0.3890
  125OSM   H13C13297   5.608   5.500   6.024 -0.2321 -1.1357  1.4837
  125OSM    C1213298   5.680   5.298   6.171  0.1646 -0.1212  0.0242
  125OSM   H12A13299   5.771   5.296   6.112 -0.4078  1.1125 -0.9248
  125OSM   H12B13300   5.669   5.216   6.240  0.7675  1.0273  1.5156
  125OSM    C1113301   5.689   5.418   6.276 -0.5458  0.0214  0.1355
  125OSM   H11A13302   5.755   5.400   6.364  0.0290  0.6546 -0.1599
  125OSM   H11B13303   5.593   5.445   6.325 -0.6969 -1.8677  0.9424
  125OSM      P13304   5.899   5.558   6.193  0.1983  0.2063  0.2625
  125OSM    O1313305   5.964   5.448   6.126  0.0630 -0.0722 -0.3369
  125OSM    O1413306   5.917   5.690   6.124 -0.2629 -0.1826  0.2126
  125OSM    O1113307   5.944   5.558   6.338 -0.2074 -0.2427  0.4027
  125OSM    O1213308   5.743   5.536   6.205 -0.2555  0.6456  0.3639
  125OSM    C1S13309   5.908   5.666   6.430  0.2060 -0.3197  0.2386
  125OSM    H1S13310   5.803   5.699   6.416  1.4114  3.7647  0.2220
  125OSM    H1T13311   5.977   5.750   6.408  1.6070 -1.6213 -0.4172
  125OSM     NF13312   5.922   5.740   6.664  0.2438 -0.1491 -0.1299
  125OSM    HNF13313   6.001   5.762   6.721 -0.0714  2.6896 -0.7146
  125OSM    C2S13314   5.927   5.624   6.578 -0.1018  0.1175 -0.1483
  125OSM    H2S13315   5.843   5.557   6.606  0.2483 -0.5052 -0.5994
  125OSM    C3S13316   6.049   5.529   6.598  0.2857 -0.0769  0.5196
  125OSM    H3S13317   6.134   5.583   6.550 -0.5729 -0.6437 -1.7166
  125OSM     O313318   6.032   5.409   6.525 -0.4600  0.2316  0.3614
  125OSM    HO313319   6.000   5.437   6.439  2.3702  0.8667 -0.5416
  125OSM    C4S13320   6.078   5.496   6.743  0.9673  0.3662 -0.9282
  125OSM    H4S13321   6.154   5.544   6.807 -2.0199  1.4884  1.9414
  125OSM    C5S13322   6.020   5.398   6.812  0.3718  0.4442  0.1091
  125OSM    H5S13323   5.950   5.335   6.755  1.2799 -2.0404  1.6394
  125OSM    C6S13324   6.062   5.352   6.953  0.3655  0.0934  0.2011
  125OSM    H6S13325   6.026   5.419   7.034  0.3033  1.9414 -1.3178
  125OSM    H6T13326   6.172   5.341   6.960  0.1350 -3.1915 -0.7059
  125OSM    C7S13327   5.997   5.210   6.990  0.4547  0.4422  0.1401
  125OSM    H7S13328   6.034   5.134   6.918  0.1725  0.7923 -0.3754
  125OSM    H7T13329   5.888   5.219   6.971  0.3376  3.2550  1.8835
  125OSM    C8S13330   6.041   5.143   7.116 -0.5407  0.0430  0.1410
  125OSM    H8S13331   6.151   5.133   7.127 -0.6520  0.1050  1.3410
  125OSM    H8T13332   6.004   5.038   7.119 -0.5717  0.1168  4.2452
  125OSM    C9S13333   5.988   5.208   7.237 -0.3253 -0.5062 -0.7776
  125OSM    H9S13334   5.877   5.200   7.233 -0.5188  1.7606 -0.5754
  125OSM    H9T13335   6.021   5.314   7.241 -1.8803 -0.0764  1.2849
  125OSM   C10S13336   6.038   5.145   7.365  0.5730 -0.0469  0.0613
  125OSM   H10S13337   6.147   5.127   7.373  0.4224 -0.9366  0.2461
  125OSM   H10T13338   5.981   5.052   7.385 -0.5849  0.1895 -2.0244
  125OSM   C11S13339   5.997   5.232   7.488  0.3023  0.2702  0.0377
  125OSM   H11S13340   5.887   5.226   7.499  0.1591  1.1095 -0.7949
  125OSM   H11T13341   6.038   5.332   7.462 -1.4408  0.6403 -1.3889
  125OSM   C12S13342   6.058   5.185   7.618 -0.5066 -0.1327 -0.2777
  125OSM   H12S13343   6.164   5.159   7.601 -1.0651 -2.2707 -0.6514
  125OSM   H12T13344   6.018   5.082   7.633  0.2161 -0.3975 -0.1315
  125OSM   C13S13345   6.034   5.294   7.722 -0.1894 -0.4382  0.7733
  125OSM   H13S13346   5.923   5.294   7.728 -0.1642  0.6182  1.2861
  125OSM   H13T13347   6.079   5.389   7.687 -1.5310  0.0213  0.2937
  125OSM   C14S13348   6.107   5.267   7.855  0.1668  0.1162 -0.0014
  125OSM   H14S13349   6.213   5.297   7.836 -0.0879  0.3963 -1.0018
  125OSM   H14T13350   6.098   5.162   7.891  3.0701 -0.0176  0.4742
  125OSM   C15S13351   6.047   5.339   7.974  0.2406  0.0638  0.8212
  125OSM   H15S13352   5.940   5.322   7.997  0.0696 -0.3822 -0.2763
  125OSM   H15T13353   6.046   5.449   7.958 -1.1101 -0.1242 -0.5218
  125OSM   C16S13354   6.135   5.319   8.091  0.2422  0.2055  0.1269
  125OSM   H16S13355   6.242   5.331   8.063  0.2167  2.4924  0.9340
  125OSM   H16T13356   6.114   5.221   8.140 -1.8542  0.9747  0.7944
  125OSM   C17S13357   6.111   5.419   8.208 -0.2492  1.1087  0.0536
  125OSM   H17S13358   6.164   5.373   8.294 -0.7286  0.8722  0.2269
  125OSM   H17T13359   6.004   5.416   8.239 -0.0638  0.0697  0.6186
  125OSM   C18S13360   6.146   5.562   8.190 -0.0673 -0.0659  0.3324
  125OSM   H18S13361   6.251   5.578   8.159 -0.3369 -0.4201 -0.7621
  125OSM   H18T13362   6.138   5.626   8.281  1.7550  1.3908 -0.5026
  125OSM   H18U13363   6.086   5.616   8.114  0.4355 -0.2680 -0.2085
  125OSM    C1F13364   5.817   5.822   6.676  0.0185 -0.2273  0.0241
  125OSM     OF13365   5.705   5.785   6.639 -0.1263 -0.0954 -0.6741
  125OSM    C2F13366   5.836   5.943   6.763  0.0796 -0.5988  0.0898
  125OSM    H2F13367   5.922   5.997   6.718  0.4035 -0.6756  0.6036
  125OSM    H2G13368   5.871   5.916   6.865 -0.7446 -0.3640  0.4332
  125OSM    C3F13369   5.721   6.048   6.767  0.5484 -0.6309 -0.4145
  125OSM    H3F13370   5.630   5.989   6.788  0.0893  0.5852  1.1510
  125OSM    H3G13371   5.710   6.095   6.667  2.4939  0.8674  0.0302
  125OSM    C4F13372   5.748   6.152   6.882  0.5307  0.6896  0.3511
  125OSM    H4F13373   5.809   6.096   6.955 -0.2877  0.2007  0.6721
  125OSM    H4G13374   5.647   6.170   6.926  0.5365  0.1590  0.5764
  125OSM    C5F13375   5.820   6.274   6.837 -0.6600 -0.9463 -0.4157
  125OSM    H5F13376   5.747   6.325   6.770  0.1031  1.8298  0.7852
  125OSM    H5G13377   5.911   6.244   6.781 -0.4117 -0.3428 -0.3435
  125OSM    C6F13378   5.855   6.374   6.947 -0.7121 -0.1546  0.7240
  125OSM    H6F13379   5.775   6.397   7.021  0.1914 -0.0327  1.6861
  125OSM    H6G13380   5.891   6.472   6.907  2.1999 -0.0740  3.3123
  125OSM    C7F13381   5.975   6.324   7.035 -0.6268 -0.5703 -1.7413
  125OSM    H7F13382   6.060   6.304   6.966  0.0454 -1.9002 -0.5422
  125OSM    H7G13383   5.947   6.229   7.084 -0.8972  0.6873  0.6172
  125OSM    C8F13384   6.020   6.421   7.142 -0.3551  0.1197 -0.2529
  125OSM    H8F13385   6.047   6.505   7.075 -1.7106 -0.3484 -1.4197
  125OSM    H8G13386   6.110   6.379   7.191 -0.2209 -0.3871 -0.9314
  125OSM    C9F13387   5.910   6.459   7.241  0.5078 -0.2773  0.8045
  125OSM    H9F13388   5.809   6.456   7.197  1.0242  1.6794 -0.5920
  125OSM   C10F13389   5.936   6.481   7.374 -0.4394 -0.2807  0.1346
  125OSM   H10F13390   5.849   6.505   7.437  0.1007  0.9755  0.4384
  125OSM   C11F13391   6.065   6.477   7.453 -0.6865 -0.3702  0.6584
  125OSM   H11F13392   6.124   6.571   7.456  3.0304 -2.6416  1.7716
  125OSM   H11G13393   6.132   6.404   7.403  0.6833  2.3041 -1.4845
  125OSM   C12F13394   6.041   6.446   7.607  0.6306  0.2205  0.1661
  125OSM   H12F13395   6.131   6.388   7.639 -0.1787 -0.3510  1.4094
  125OSM   H12G13396   5.966   6.367   7.626  1.2146  0.0168  1.6515
  125OSM   C13F13397   5.999   6.575   7.687 -0.0187  0.4449  0.7783
  125OSM   H13F13398   5.900   6.608   7.650  0.4295  4.1443  2.7075
  125OSM   H13G13399   6.078   6.650   7.665 -1.2195  2.1227  2.0826
  125OSM   C14F13400   5.992   6.542   7.837 -0.5062  0.6964  0.0059
  125OSM   H14F13401   6.090   6.519   7.884 -0.8635  0.4078  0.6234
  125OSM   H14G13402   5.937   6.447   7.855  1.7201 -0.7204 -0.5822
  125OSM   C15F13403   5.917   6.657   7.915 -0.8561  0.2794 -0.3564
  125OSM   H15F13404   5.879   6.614   8.010  0.1582  0.4693  0.1407
  125OSM   H15G13405   5.825   6.668   7.853 -0.0855 -1.1402 -1.7729
  125OSM   C16F13406   5.987   6.794   7.928  0.1670  0.4233  0.2525
  125OSM   H16F13407   5.934   6.867   7.993 -1.2229 -1.3575  1.1753
  125OSM   H16G13408   5.977   6.838   7.827 -0.8196 -2.3403 -0.8778
  125OSM   C17F13409   6.138   6.787   7.981 -0.4661 -0.0378  0.1554
  125OSM   H17F13410   6.185   6.887   7.969  0.6340 -0.5955 -0.2052
  125OSM   H17G13411   6.192   6.720   7.911 -1.8452  0.0670 -1.0394
  125OSM   C18F13412   6.148   6.739   8.129  0.8782  0.0209  0.1407
  125OSM   H18F13413   6.111   6.635   8.137  0.8093  0.1049  0.8834
  125OSM   H18G13414   6.087   6.811   8.188 -0.3588 -1.0416  0.1658
  125OSM   H18H13415   6.252   6.722   8.163  1.6084 -0.7841 -2.3461
  126OSM      N13416   3.420   5.430   6.337 -0.2571  0.2643 -0.1430
  126OSM    C1513417   3.285   5.461   6.399 -0.7760 -0.0349  0.2099
  126OSM   H15A13418   3.267   5.567   6.413  2.3797  0.7430 -1.2273
  126OSM   H15B13419   3.278   5.409   6.494 -0.6533  0.6041  0.5695
  126OSM   H15C13420   3.204   5.422   6.339  0.0417 -0.8691 -0.3611
  126OSM    C1413421   3.422   5.475   6.193  0.4178  0.6569  0.0702
  126OSM   H14A13422   3.523   5.466   6.155 -0.4377  0.0130 -2.1144
  126OSM   H14B13423   3.406   5.582   6.196  0.3191  0.8079 -3.6799
  126OSM   H14C13424   3.346   5.426   6.134  1.9708  0.1888 -1.5893
  126OSM    C1313425   3.539   5.508   6.406 -0.1491 -0.0484  0.6888
  126OSM   H13A13426   3.518   5.614   6.405 -0.4231 -0.0683 -3.5694
  126OSM   H13B13427   3.626   5.473   6.354  0.4725  2.2594  0.1405
  126OSM   H13C13428   3.541   5.471   6.508 -2.8650 -1.9308  0.1228
  126OSM    C1213429   3.454   5.285   6.341  0.0378  0.1312 -0.0173
  126OSM   H12A13430   3.548   5.265   6.290 -0.3463  0.2040 -0.7661
  126OSM   H12B13431   3.380   5.234   6.281 -0.4381  1.4324 -0.5449
  126OSM    C1113432   3.457   5.215   6.480  0.2804  0.0044  0.1280
  126OSM   H11A13433   3.483   5.278   6.569  0.1216  2.9373 -1.8325
  126OSM   H11B13434   3.540   5.142   6.474  1.8358  1.7791 -0.3687
  126OSM      P13435   3.293   5.006   6.506 -0.2178 -0.1604 -0.3586
  126OSM    O1313436   3.183   4.985   6.410 -0.3717  0.1858 -0.0490
  126OSM    O1413437   3.409   4.916   6.505 -0.3387  0.2210 -0.1433
  126OSM    O1113438   3.235   4.993   6.651 -0.9055 -0.2335 -0.0922
  126OSM    O1213439   3.330   5.154   6.493  0.2786  0.1777  0.6142
  126OSM    C1S13440   3.249   5.087   6.750  0.5014  0.0634 -0.2174
  126OSM    H1S13441   3.223   5.190   6.719 -0.3815 -0.4976 -1.4267
  126OSM    H1T13442   3.353   5.087   6.789  0.3747 -0.4997  0.1337
  126OSM     NF13443   3.183   5.141   6.979 -0.1664 -0.2269  0.3007
  126OSM    HNF13444   3.243   5.112   7.054 -1.3630 -2.1944  0.5500
  126OSM    C2S13445   3.165   5.040   6.877  0.5181 -0.3701 -0.5178
  126OSM    H2S13446   3.056   5.042   6.858  0.6547  0.8385 -1.2574
  126OSM    C3S13447   3.201   4.897   6.922 -1.0696  0.5109  0.2106
  126OSM    H3S13448   3.309   4.897   6.949 -1.1421  1.0111  0.5240
  126OSM     O313449   3.184   4.791   6.822  0.1093  0.1566  0.3321
  126OSM    HO313450   3.206   4.833   6.739  1.4604  0.8853  1.0299
  126OSM    C4S13451   3.137   4.856   7.054  1.5645 -0.5752 -0.2060
  126OSM    H4S13452   3.208   4.880   7.135  0.1617 -3.5804  2.0025
  126OSM    C5S13453   3.022   4.793   7.086 -0.1049  0.1970  0.2391
  126OSM    H5S13454   2.951   4.758   7.009 -0.8580 -1.5168  1.6739
  126OSM    C6S13455   2.983   4.746   7.224 -0.0457  0.1521  0.0912
  126OSM    H6S13456   2.961   4.637   7.236 -1.5026  0.3903 -0.3602
  126OSM    H6T13457   2.883   4.787   7.248 -0.4265  0.8537 -2.6507
  126OSM    C7S13458   3.073   4.781   7.336  0.4699 -0.4895 -0.2203
  126OSM    H7S13459   3.084   4.891   7.335 -0.2027 -0.4204 -0.2914
  126OSM    H7T13460   3.172   4.740   7.308  1.0444  0.4441  0.4299
  126OSM    C8S13461   3.043   4.724   7.473  0.2709 -0.2532 -0.7732
  126OSM    H8S13462   3.027   4.615   7.458  2.9468 -0.5579 -1.5672
  126OSM    H8T13463   2.948   4.758   7.522  0.8752  2.0205 -1.1033
  126OSM    C9S13464   3.156   4.743   7.576 -0.3199 -0.6445  0.0603
  126OSM    H9S13465   3.161   4.850   7.602 -0.8318 -0.9358  1.3969
  126OSM    H9T13466   3.254   4.718   7.529  1.7090 -1.5442  4.5328
  126OSM   C10S13467   3.138   4.645   7.701 -0.2617  0.0965 -0.0013
  126OSM   H10S13468   3.161   4.541   7.671  2.7136  1.1547 -1.6691
  126OSM   H10T13469   3.030   4.649   7.724 -0.7795 -1.6593 -1.9582
  126OSM   C11S13470   3.211   4.690   7.823  0.0562 -0.0257 -0.1604
  126OSM   H11S13471   3.183   4.792   7.858 -1.6045 -0.7896  0.7553
  126OSM   H11T13472   3.318   4.688   7.790 -0.1541 -0.1191 -0.8347
  126OSM   C12S13473   3.191   4.593   7.944  0.4233 -0.3907  0.5783
  126OSM   H12S13474   3.231   4.492   7.919  2.2134  0.0516  1.6106
  126OSM   H12T13475   3.081   4.585   7.954  0.5405 -2.1676  0.6365
  126OSM   C13S13476   3.255   4.645   8.074 -0.0394 -0.0616  0.7848
  126OSM   H13S13477   3.346   4.707   8.059 -1.3996  1.2811 -2.3352
  126OSM   H13T13478   3.277   4.566   8.150  0.0321 -0.0639  0.7605
  126OSM   C14S13479   3.168   4.752   8.153 -0.1420  0.7223 -0.2072
  126OSM   H14S13480   3.070   4.700   8.158  1.4188 -2.5672 -1.8382
  126OSM   H14T13481   3.153   4.824   8.070 -0.3513 -0.5457 -1.2738
  126OSM   C15S13482   3.236   4.781   8.291  0.7342  0.4401  0.5064
  126OSM   H15S13483   3.339   4.820   8.273  1.2779 -0.3223  1.9127
  126OSM   H15T13484   3.241   4.691   8.355 -0.0224 -0.1011 -0.1859
  126OSM   C16S13485   3.146   4.875   8.379  0.0994  0.4789 -0.1001
  126OSM   H16S13486   3.043   4.837   8.400  0.1771  0.4332  0.2071
  126OSM   H16T13487   3.142   4.976   8.333  0.0685 -0.3235 -1.9100
  126OSM   C17S13488   3.211   4.907   8.513 -0.2997 -0.3968 -0.3601
  126OSM   H17S13489   3.211   4.818   8.580  0.9445  0.7675  1.2250
  126OSM   H17T13490   3.164   4.997   8.558  0.6200  0.8422 -1.8256
  126OSM   C18S13491   3.355   4.944   8.501  0.9597  0.3407  0.1978
  126OSM   H18S13492   3.361   5.037   8.440  2.7469  0.4200  0.4665
  126OSM   H18T13493   3.425   4.866   8.464 -0.0807 -0.6435  0.2881
  126OSM   H18U13494   3.381   4.956   8.609  0.0057 -0.5563  0.5412
  126OSM    C1F13495   3.142   5.267   6.980  0.3623  0.2530  0.5565
  126OSM     OF13496   3.076   5.306   6.885  0.0898  0.0037 -0.3362
  126OSM    C2F13497   3.204   5.350   7.088 -0.4094 -0.8009  0.5306
  126OSM    H2F13498   3.307   5.379   7.059 -1.1287  0.2548 -0.9854
  126OSM    H2G13499   3.204   5.297   7.186  0.7058 -1.1314  0.3585
  126OSM    C3F13500   3.140   5.488   7.100  0.5111  0.4279  0.4563
  126OSM    H3F13501   3.033   5.486   7.127 -0.2120  0.1742 -2.2636
  126OSM    H3G13502   3.135   5.537   7.000 -1.7949  1.1979  0.9363
  126OSM    C4F13503   3.220   5.592   7.175  0.2401  0.0012  0.0355
  126OSM    H4F13504   3.157   5.681   7.193 -0.1545  0.1281 -1.8338
  126OSM    H4G13505   3.311   5.625   7.120  0.2934 -2.8975 -1.7259
  126OSM    C5F13506   3.245   5.553   7.320  0.0978  0.8164 -0.1552
  126OSM    H5F13507   3.294   5.640   7.370 -0.3327  1.0703 -0.1667
  126OSM    H5G13508   3.321   5.473   7.329 -0.2296  0.3353 -1.6170
  126OSM    C6F13509   3.120   5.510   7.400 -0.1387  0.5454 -0.0076
  126OSM    H6F13510   3.173   5.460   7.485 -0.4209  2.8054  1.5443
  126OSM    H6G13511   3.063   5.430   7.348 -0.0256  0.7412 -0.4361
  126OSM    C7F13512   3.018   5.611   7.443  0.0950 -0.7312  0.2377
  126OSM    H7F13513   2.991   5.668   7.351  2.0803 -1.8833 -1.0963
  126OSM    H7G13514   3.062   5.687   7.511 -1.0754  1.5325 -1.4629
  126OSM    C8F13515   2.894   5.553   7.510 -0.4161  0.0639 -0.3757
  126OSM    H8F13516   2.836   5.496   7.435  0.7448  0.6979 -1.7814
  126OSM    H8G13517   2.819   5.634   7.525  0.7824  1.7049 -2.9560
  126OSM    C9F13518   2.925   5.472   7.631 -0.4713 -0.9384 -0.4210
  126OSM    H9F13519   3.001   5.394   7.618 -0.1705 -0.5838 -0.7946
  126OSM   C10F13520   2.857   5.477   7.746  0.5637  0.0241  0.1606
  126OSM   H10F13521   2.888   5.414   7.831 -0.5008 -0.3178  0.3049
  126OSM   C11F13522   2.733   5.556   7.782  0.6498  0.1169  0.4861
  126OSM   H11F13523   2.640   5.496   7.787  0.4946  0.2499 -0.7285
  126OSM   H11G13524   2.701   5.631   7.705 -0.3083 -0.3970  0.3836
  126OSM   C12F13525   2.770   5.635   7.913 -0.2901  0.2030  0.5010
  126OSM   H12F13526   2.842   5.705   7.866  0.6152  0.0099  1.5939
  126OSM   H12G13527   2.824   5.567   7.982 -1.4395 -0.9370  0.3018
  126OSM   C13F13528   2.652   5.687   7.995  0.5749 -1.0366  0.2876
  126OSM   H13F13529   2.584   5.608   8.033  0.8000 -0.2428  2.4432
  126OSM   H13G13530   2.593   5.754   7.930  0.2824 -1.5498  0.0239
  126OSM   C14F13531   2.675   5.781   8.113 -0.7134 -0.4656 -0.2467
  126OSM   H14F13532   2.616   5.873   8.098  1.6187  1.0893 -0.0706
  126OSM   H14G13533   2.778   5.823   8.107 -1.1515  0.5696 -0.5998
  126OSM   C15F13534   2.631   5.724   8.248 -0.7377 -0.4067 -0.1594
  126OSM   H15F13535   2.530   5.681   8.236 -2.0813  2.4040  0.6744
  126OSM   H15G13536   2.634   5.819   8.307 -0.1687 -0.4873 -0.0518
  126OSM   C16F13537   2.726   5.636   8.328 -0.9452  0.0426 -0.5969
  126OSM   H16F13538   2.824   5.685   8.346  0.0095 -2.3344  0.8867
  126OSM   H16G13539   2.745   5.547   8.264 -0.8230  0.1314 -0.6848
  126OSM   C17F13540   2.676   5.587   8.459  0.9765  0.4463 -0.0832
  126OSM   H17F13541   2.587   5.521   8.458  1.0164  0.3452  1.4359
  126OSM   H17G13542   2.641   5.678   8.512  0.6163  0.3046 -0.0726
  126OSM   C18F13543   2.786   5.520   8.544  0.5365 -0.1753 -0.2635
  126OSM   H18F13544   2.830   5.430   8.496 -1.9168 -0.4813 -2.0801
  126OSM   H18G13545   2.748   5.500   8.646 -0.0658  1.7697 -0.0751
  126OSM   H18H13546   2.874   5.588   8.551 -0.1420  0.9820 -2.3089
  127OSM      N13547   4.410   3.424   5.945 -0.5790 -0.6433  0.1960
  127OSM    C1513548   4.526   3.474   5.867  0.2695 -0.3972  0.0168
  127OSM   H15A13549   4.547   3.572   5.908  0.1752 -0.3014 -0.1622
  127OSM   H15B13550   4.501   3.486   5.762 -3.2493  1.6673  1.0062
  127OSM   H15C13551   4.618   3.419   5.882  0.1996 -0.6807 -0.5539
  127OSM    C1413552   4.361   3.304   5.864 -0.5197 -0.0924 -0.2946
  127OSM   H14A13553   4.436   3.227   5.853  0.2852  0.2331  2.4947
  127OSM   H14B13554   4.332   3.329   5.763 -0.9643 -1.3783 -0.4823
  127OSM   H14C13555   4.275   3.261   5.912 -0.1914  0.5544  0.9071
  127OSM    C1313556   4.448   3.382   6.080  0.4407  0.3629  0.1041
  127OSM   H13A13557   4.532   3.315   6.081  1.3172  1.4510 -0.2891
  127OSM   H13B13558   4.361   3.330   6.118  0.5167  1.5794  2.0617
  127OSM   H13C13559   4.464   3.467   6.144  2.8793 -0.2879  0.3963
  127OSM    C1213560   4.305   3.526   5.968  0.0518 -0.1688 -0.3620
  127OSM   H12A13561   4.220   3.485   6.021 -0.3800  1.9441  0.6446
  127OSM   H12B13562   4.263   3.561   5.875 -0.9146 -1.2565 -0.3405
  127OSM    C1113563   4.334   3.648   6.053  0.3484  0.0490 -0.6708
  127OSM   H11A13564   4.347   3.615   6.158  0.3226  0.5381 -0.5131
  127OSM   H11B13565   4.242   3.710   6.048  0.5821  0.5280  0.6453
  127OSM      P13566   4.562   3.766   6.093 -0.0218 -0.3067 -0.1846
  127OSM    O1313567   4.683   3.738   6.023 -0.2770 -0.4359  0.3056
  127OSM    O1413568   4.550   3.904   6.141 -0.6172 -0.3608 -0.3014
  127OSM    O1113569   4.567   3.674   6.225  0.2727 -0.1209  0.0527
  127OSM    O1213570   4.443   3.725   6.004 -0.1794  0.5309 -0.1464
  127OSM    C1S13571   4.554   3.728   6.355  0.0767 -0.6479  0.6784
  127OSM    H1S13572   4.450   3.768   6.362  0.9297  1.5046  1.5946
  127OSM    H1T13573   4.613   3.821   6.371  1.2810 -1.3983  0.6701
  127OSM     NF13574   4.569   3.696   6.586 -0.2002 -0.0625 -0.1186
  127OSM    HNF13575   4.650   3.710   6.642 -0.1516  0.2803 -0.2739
  127OSM    C2S13576   4.582   3.625   6.461  0.3974 -0.2879 -0.4032
  127OSM    H2S13577   4.503   3.547   6.459 -0.6524  0.7146  1.0665
  127OSM    C3S13578   4.721   3.554   6.445  0.7314 -0.1224  0.8890
  127OSM    H3S13579   4.801   3.631   6.443  0.5574  0.0345  0.0803
  127OSM     O313580   4.726   3.478   6.322  0.5597  0.5062 -0.5091
  127OSM    HO313581   4.666   3.524   6.262  2.4385  2.9732 -0.5492
  127OSM    C4S13582   4.761   3.466   6.569  0.0813 -0.3624 -0.5704
  127OSM    H4S13583   4.782   3.520   6.663  0.3927 -2.7814  0.8004
  127OSM    C5S13584   4.756   3.334   6.585 -0.4440 -0.6165  0.0159
  127OSM    H5S13585   4.738   3.271   6.497 -0.0461  0.7538 -1.0652
  127OSM    C6S13586   4.783   3.256   6.711 -0.2643  0.3641 -0.3961
  127OSM    H6S13587   4.884   3.212   6.700 -0.8438 -0.6326 -2.0032
  127OSM    H6T13588   4.707   3.175   6.723  0.1309 -0.0964 -0.9500
  127OSM    C7S13589   4.771   3.342   6.839 -0.0720 -0.1898  0.2394
  127OSM    H7S13590   4.666   3.377   6.852  0.0205  0.7726 -1.4079
  127OSM    H7T13591   4.832   3.435   6.846 -0.2237  0.2436 -3.3544
  127OSM    C8S13592   4.793   3.278   6.973  0.2838  0.2391 -0.2877
  127OSM    H8S13593   4.886   3.217   6.965 -0.4217 -0.9122  0.0984
  127OSM    H8T13594   4.701   3.218   6.990 -0.8156  2.0221  0.2084
  127OSM    C9S13595   4.801   3.376   7.094 -0.0731  0.4549  0.5645
  127OSM    H9S13596   4.708   3.436   7.103 -0.7933 -0.3211 -1.4395
  127OSM    H9T13597   4.890   3.440   7.079  1.0782 -1.6658 -2.2191
  127OSM   C10S13598   4.826   3.285   7.216 -0.2524  1.0794 -0.1497
  127OSM   H10S13599   4.929   3.246   7.227 -0.6419 -0.0789 -0.5037
  127OSM   H10T13600   4.765   3.192   7.206 -0.2977  1.0833  0.0789
  127OSM   C11S13601   4.778   3.353   7.345 -0.1024 -0.0994  0.2285
  127OSM   H11S13602   4.678   3.396   7.321 -0.5357 -0.8028  0.7454
  127OSM   H11T13603   4.835   3.443   7.378  0.1652 -0.5033  0.8783
  127OSM   C12S13604   4.758   3.246   7.453 -0.4921 -0.3750  0.0069
  127OSM   H12S13605   4.858   3.206   7.479 -0.3441  1.0826  1.8733
  127OSM   H12T13606   4.686   3.169   7.420 -1.0458 -0.0637  0.4653
  127OSM   C13S13607   4.691   3.303   7.581  0.1675  0.1275 -0.0591
  127OSM   H13S13608   4.586   3.334   7.562  0.4647  0.4028 -1.2900
  127OSM   H13T13609   4.746   3.397   7.606 -1.3679  0.0628  4.0326
  127OSM   C14S13610   4.706   3.215   7.704 -0.1689  0.8376  0.2094
  127OSM   H14S13611   4.805   3.167   7.713 -1.4464 -1.7507  0.7418
  127OSM   H14T13612   4.639   3.133   7.671  1.9468 -2.0042  2.8094
  127OSM   C15S13613   4.659   3.277   7.836 -0.4967  0.1554  0.8155
  127OSM   H15S13614   4.556   3.312   7.815 -0.8162 -1.2228  0.0383
  127OSM   H15T13615   4.724   3.361   7.867 -1.0349  0.8016  0.1978
  127OSM   C16S13616   4.664   3.176   7.954  0.1248 -0.0596  0.8670
  127OSM   H16S13617   4.771   3.175   7.984  0.1531 -1.2595  0.7381
  127OSM   H16T13618   4.643   3.075   7.913  0.4754  0.2949 -0.2033
  127OSM   C17S13619   4.579   3.199   8.079  1.0163 -0.1953  0.4954
  127OSM   H17S13620   4.626   3.289   8.124 -1.3303  1.0319  0.5849
  127OSM   H17T13621   4.600   3.114   8.147  1.0368 -0.5800  0.0153
  127OSM   C18S13622   4.431   3.223   8.044  0.2035 -0.1902 -0.4508
  127OSM   H18S13623   4.401   3.151   7.965 -0.2998  0.1121 -0.5399
  127OSM   H18T13624   4.427   3.327   8.004 -3.1433 -0.8973 -2.1622
  127OSM   H18U13625   4.368   3.222   8.135 -1.0159 -0.2524 -1.2739
  127OSM    C1F13626   4.448   3.721   6.638 -0.0055 -0.4702 -0.3132
  127OSM     OF13627   4.346   3.674   6.591  0.3783 -0.3323  0.0849
  127OSM    C2F13628   4.448   3.822   6.750 -0.9156 -0.6057  0.2236
  127OSM    H2F13629   4.399   3.915   6.714  0.8597 -0.0833 -0.8988
  127OSM    H2G13630   4.552   3.849   6.778 -0.3456 -1.3335 -1.1536
  127OSM    C3F13631   4.365   3.780   6.873  0.2132 -0.1645 -0.5698
  127OSM    H3F13632   4.406   3.686   6.914 -1.7785 -0.4194  0.9426
  127OSM    H3G13633   4.257   3.774   6.849 -0.5493  3.6462  1.4634
  127OSM    C4F13634   4.379   3.884   6.986 -0.7627  0.3609  0.5803
  127OSM    H4F13635   4.329   3.979   6.957  0.4023  1.1383  1.0786
  127OSM    H4G13636   4.486   3.912   6.997 -0.2634 -0.9425 -0.8177
  127OSM    C5F13637   4.323   3.821   7.112 -0.0464 -0.3040 -0.3465
  127OSM    H5F13638   4.374   3.730   7.151  1.3749  0.9069  0.6862
  127OSM    H5G13639   4.218   3.790   7.092 -0.0879  1.3436 -2.8883
  127OSM    C6F13640   4.314   3.919   7.235  0.3386 -0.2097  0.8124
  127OSM    H6F13641   4.283   4.014   7.187 -0.4417 -0.7964  0.1454
  127OSM    H6G13642   4.408   3.950   7.284 -0.4847  1.2757  1.4895
  127OSM    C7F13643   4.218   3.863   7.338  0.3164  0.1914  0.3069
  127OSM    H7F13644   4.259   3.764   7.368  0.4221  0.5702  1.3943
  127OSM    H7G13645   4.122   3.843   7.285  0.5329  0.6005 -0.2436
  127OSM    C8F13646   4.184   3.956   7.458  0.3874  0.0528 -0.2247
  127OSM    H8F13647   4.143   4.054   7.426 -2.0030 -0.4558  1.1326
  127OSM    H8G13648   4.279   3.962   7.515  0.0740 -3.2006  0.7612
  127OSM    C9F13649   4.088   3.888   7.547 -0.7882 -0.0555  0.0267
  127OSM    H9F13650   4.105   3.780   7.542 -1.2262 -0.0324 -2.7439
  127OSM   C10F13651   3.974   3.930   7.598  0.6572  0.1805  0.0789
  127OSM   H10F13652   3.925   3.850   7.656 -0.3621  1.3530  0.8561
  127OSM   C11F13653   3.900   4.066   7.591  0.3456 -0.5113 -0.2908
  127OSM   H11F13654   3.842   4.079   7.497 -2.3224 -1.4444  1.1705
  127OSM   H11G13655   3.976   4.147   7.592  0.2869 -0.3987 -2.3937
  127OSM   C12F13656   3.800   4.105   7.702 -0.5653 -0.8139 -0.0731
  127OSM   H12F13657   3.696   4.066   7.695 -0.2032 -1.6177 -0.9836
  127OSM   H12G13658   3.776   4.212   7.684 -0.5978 -0.6727  0.8207
  127OSM   C13F13659   3.859   4.087   7.843  0.1364  0.0678 -0.0424
  127OSM   H13F13660   3.957   4.139   7.854  0.6156 -0.9209  0.5108
  127OSM   H13G13661   3.863   3.977   7.860 -1.5147  0.3761  2.4968
  127OSM   C14F13662   3.762   4.142   7.948  0.3668  0.3168  1.5103
  127OSM   H14F13663   3.658   4.113   7.921  1.6376 -1.5285 -1.6924
  127OSM   H14G13664   3.766   4.253   7.939 -1.9150  0.3077 -0.0077
  127OSM   C15F13665   3.803   4.109   8.090  0.3485  0.5255 -0.5751
  127OSM   H15F13666   3.878   4.186   8.116  0.3780  0.3349 -0.1026
  127OSM   H15G13667   3.848   4.008   8.086 -0.6097  0.0392  0.5964
  127OSM   C16F13668   3.688   4.120   8.187  0.4165 -0.4167  0.0517
  127OSM   H16F13669   3.595   4.070   8.154  0.1700  1.0788 -1.6139
  127OSM   H16G13670   3.653   4.226   8.190 -0.1185 -0.5133 -2.0391
  127OSM   C17F13671   3.704   4.076   8.334 -0.0834  0.6941  0.5754
  127OSM   H17F13672   3.760   4.152   8.392  0.9145 -1.0104  1.8834
  127OSM   H17G13673   3.757   3.980   8.349 -1.6854 -0.3211 -0.2399
  127OSM   C18F13674   3.570   4.069   8.405  0.5240  0.3137  0.3379
  127OSM   H18F13675   3.588   4.034   8.509  2.2282  0.8112  0.2206
  127OSM   H18G13676   3.492   4.012   8.350  0.6344  1.1164 -0.6590
  127OSM   H18H13677   3.530   4.172   8.401 -0.7604 -0.2009 -0.5204
  128OSM      N13678   6.693   0.171   5.863  0.0489  0.0235 -0.4157
  128OSM    C1513679   6.780   0.058   5.811 -0.4969  0.6870  1.0132
  128OSM   H15A13680   6.809  -0.002   5.897 -0.2418 -2.4862 -1.1968
  128OSM   H15B13681   6.860   0.091   5.748 -0.4815 -0.4201  0.4334
  128OSM   H15C13682   6.725  -0.008   5.745  1.9984 -1.2371  0.7869
  128OSM    C1413683   6.659   0.261   5.751 -0.6897 -0.2336 -0.1313
  128OSM   H14A13684   6.747   0.293   5.697 -0.9357  0.7663  0.0355
  128OSM   H14B13685   6.628   0.358   5.789  4.1010  0.4238  2.5517
  128OSM   H14C13686   6.586   0.225   5.680 -3.6227  1.2856  2.0092
  128OSM    C1313687   6.561   0.103   5.909  0.0760 -0.2410  0.0491
  128OSM   H13A13688   6.500   0.171   5.967 -0.3587 -0.0384 -0.6488
  128OSM   H13B13689   6.586   0.019   5.974  0.1117 -1.2418 -1.2392
  128OSM   H13C13690   6.507   0.063   5.825  3.0992  0.7748 -2.4695
  128OSM    C1213691   6.754   0.243   5.975  0.3289  0.1336  0.2098
  128OSM   H12A13692   6.690   0.320   6.015  1.1918  0.8500  0.2346
  128OSM   H12B13693   6.845   0.294   5.947  0.1131  1.4186  1.7938
  128OSM    C1113694   6.784   0.165   6.104  0.4258 -0.1297 -0.1021
  128OSM   H11A13695   6.698   0.104   6.140  0.2709 -0.7465 -1.5003
  128OSM   H11B13696   6.788   0.233   6.192 -1.3847  1.0671 -0.9398
  128OSM      P13697   7.031   0.133   6.082  0.1815  0.4036  0.2578
  128OSM    O1313698   7.119   0.031   6.027 -0.0697  0.1174 -0.1845
  128OSM    O1413699   7.033   0.258   6.002  0.2862 -0.1687  0.0056
  128OSM    O1113700   7.067   0.169   6.228 -1.1320  0.1171 -0.5337
  128OSM    O1213701   6.893   0.079   6.094 -0.2838  0.1763 -0.1467
  128OSM    C1S13702   7.036   0.084   6.335  0.7034  0.7339  0.2817
  128OSM    H1S13703   7.090  -0.013   6.330  0.7150  0.7379  0.3431
  128OSM    H1T13704   6.926   0.067   6.330  0.8649 -0.1404 -0.3090
  128OSM     NF13705   7.039   0.056   6.585  0.1286  0.0907  0.0311
  128OSM    HNF13706   6.959   0.078   6.641  0.1964  0.8560 -0.1639
  128OSM    C2S13707   7.065   0.155   6.477  0.7093  0.5131  0.4081
  128OSM    H2S13708   7.176   0.168   6.478  0.5771  2.0232 -1.2279
  128OSM    C3S13709   6.982   0.291   6.495 -0.6486  0.7042  0.1804
  128OSM    H3S13710   6.875   0.260   6.497 -0.4688  0.1061  0.2749
  128OSM     O313711   7.000   0.372   6.379 -0.1442  0.5216  0.1985
  128OSM    HO313712   7.017   0.306   6.311 -0.1121  0.0886  0.6200
  128OSM    C4S13713   7.017   0.366   6.618 -0.2132  0.4770 -0.1074
  128OSM    H4S13714   6.948   0.350   6.702 -0.9694  1.9902 -0.4273
  128OSM    C5S13715   7.118   0.452   6.637  0.5325  0.0629  0.3846
  128OSM    H5S13716   7.178   0.473   6.547 -2.4443  2.6061 -1.1219
  128OSM    C6S13717   7.139   0.545   6.756  0.1698  0.4742 -0.7190
  128OSM    H6S13718   7.161   0.645   6.712  0.2342 -0.2609 -2.3894
  128OSM    H6T13719   7.232   0.525   6.812  1.4125  2.2595 -2.0756
  128OSM    C7S13720   7.018   0.542   6.848 -0.1410 -0.1106  0.1747
  128OSM    H7S13721   7.003   0.439   6.888 -1.4388  0.0688  0.1510
  128OSM    H7T13722   6.930   0.582   6.793 -1.1533 -0.4988  1.4850
  128OSM    C8S13723   7.057   0.607   6.977 -0.3625 -0.2526 -0.3309
  128OSM    H8S13724   7.064   0.717   6.960 -0.5225 -0.1816  0.0579
  128OSM    H8T13725   7.158   0.573   7.008 -0.5544  2.5825  3.8585
  128OSM    C9S13726   6.966   0.584   7.094  0.0391 -0.0591 -0.2883
  128OSM    H9S13727   6.969   0.473   7.105  0.3719 -0.2290 -1.9141
  128OSM    H9T13728   6.857   0.608   7.089 -0.2423 -0.9192  1.4902
  128OSM   C10S13729   7.006   0.635   7.232  0.4301 -0.6048  0.2785
  128OSM   H10S13730   6.981   0.743   7.227  0.6634 -0.5304  0.6633
  128OSM   H10T13731   7.116   0.630   7.245  0.3914  1.9567  2.0421
  128OSM   C11S13732   6.931   0.560   7.348  0.2148  0.1537 -0.3664
  128OSM   H11S13733   6.947   0.454   7.323  1.0641  0.6292 -1.8919
  128OSM   H11T13734   6.826   0.598   7.345  0.3882  0.6144 -0.7961
  128OSM   C12S13735   6.998   0.589   7.483  0.4938  0.0778  0.1779
  128OSM   H12S13736   7.022   0.696   7.500 -1.4600  0.4216  0.9170
  128OSM   H12T13737   7.099   0.544   7.486 -0.4119 -2.1112 -0.8891
  128OSM   C13S13738   6.922   0.555   7.616 -0.1382 -0.1942  0.2138
  128OSM   H13S13739   6.993   0.586   7.695 -1.1857  0.5288  0.8780
  128OSM   H13T13740   6.898   0.447   7.620 -1.3731 -0.0136 -1.6094
  128OSM   C14S13741   6.784   0.623   7.634  0.2340 -0.8430  0.4114
  128OSM   H14S13742   6.709   0.571   7.571  1.1450  0.2687 -1.6405
  128OSM   H14T13743   6.787   0.729   7.599  1.0073 -0.7599  0.7253
  128OSM   C15S13744   6.746   0.612   7.784  0.8256 -0.1748  0.5986
  128OSM   H15S13745   6.818   0.671   7.844  0.8442 -0.3456  0.7444
  128OSM   H15T13746   6.765   0.511   7.826 -0.9740  0.3555  2.7844
  128OSM   C16S13747   6.597   0.651   7.809  0.6534 -0.9174 -0.0280
  128OSM   H16S13748   6.557   0.623   7.909  2.5963 -0.8896  0.7753
  128OSM   H16T13749   6.523   0.595   7.747 -1.2843  1.0380  0.4513
  128OSM   C17S13750   6.560   0.796   7.785 -0.3510  0.1490  0.5223
  128OSM   H17S13751   6.550   0.814   7.675  0.5397  1.5237  0.6610
  128OSM   H17T13752   6.653   0.845   7.817  0.7079 -1.6548  0.2899
  128OSM   C18S13753   6.439   0.841   7.870 -0.1463  0.1598  0.9055
  128OSM   H18S13754   6.410   0.944   7.838  0.0832 -0.9015 -3.0373
  128OSM   H18T13755   6.460   0.841   7.979 -1.4356 -3.6546  1.2382
  128OSM   H18U13756   6.345   0.785   7.848  0.0803  0.6339 -1.3800
  128OSM    C1F13757   7.098  -0.058   6.613  0.5350  0.1998  0.2808
  128OSM     OF13758   7.207  -0.092   6.565 -0.6358  0.3883  0.0591
  128OSM    C2F13759   7.018  -0.155   6.697 -0.4700 -0.1731 -0.1453
  128OSM    H2F13760   6.938  -0.195   6.632  1.7139  0.9454 -3.6311
  128OSM    H2G13761   6.971  -0.097   6.780  1.8329  1.2119  0.2487
  128OSM    C3F13762   7.113  -0.256   6.768  0.2811 -0.5354 -0.1060
  128OSM    H3F13763   7.208  -0.209   6.802  1.2130 -2.3699 -0.1030
  128OSM    H3G13764   7.140  -0.341   6.702  0.1526 -0.8171  0.2048
  128OSM    C4F13765   7.044  -0.315   6.890 -0.1755  0.4860  0.0010
  128OSM    H4F13766   6.958  -0.374   6.850  0.7261 -0.0089 -1.2086
  128OSM    H4G13767   7.006  -0.229   6.950  1.8062  0.1124  1.8287
  128OSM    C5F13768   7.132  -0.408   6.986  0.2351 -0.2355  0.5473
  128OSM    H5F13769   7.224  -0.352   7.012 -0.5393 -0.0896  3.0774
  128OSM    H5G13770   7.156  -0.495   6.921  2.2620  0.6354  0.0841
  128OSM    C6F13771   7.050  -0.458   7.116 -0.4383 -0.3619  0.2346
  128OSM    H6F13772   6.952  -0.504   7.091 -0.7498 -1.0657  2.6204
  128OSM    H6G13773   7.026  -0.366   7.174  1.8886 -0.8985  2.1299
  128OSM    C7F13774   7.141  -0.546   7.199  0.9030  0.1857 -0.8076
  128OSM    H7F13775   7.239  -0.494   7.211  1.8772 -1.5800 -0.8639
  128OSM    H7G13776   7.173  -0.642   7.151  0.2559  0.5189 -1.9215
  128OSM    C8F13777   7.094  -0.575   7.347  0.4886  0.0771 -0.0618
  128OSM    H8F13778   7.104  -0.479   7.403  0.9454 -0.6299  1.0849
  128OSM    H8G13779   7.171  -0.642   7.390  0.0321 -0.9202 -0.7640
  128OSM    C9F13780   6.958  -0.640   7.349 -0.1741  0.0834  0.2239
  128OSM    H9F13781   6.937  -0.709   7.266  1.1085  0.8721 -0.7604
  128OSM   C10F13782   6.862  -0.622   7.438  0.2894  0.7001  0.3668
  128OSM   H10F13783   6.772  -0.682   7.423  1.4129 -1.2675  1.2240
  128OSM   C11F13784   6.853  -0.532   7.561 -0.1116 -0.3378  0.1067
  128OSM   H11F13785   6.747  -0.522   7.593  0.3295 -2.5623  2.4222
  128OSM   H11G13786   6.875  -0.426   7.534 -0.7837  0.4945  2.7229
  128OSM   C12F13787   6.948  -0.587   7.670  0.0751  0.3665 -0.8604
  128OSM   H12F13788   7.050  -0.565   7.632 -0.2189  2.5867 -0.4147
  128OSM   H12G13789   6.942  -0.695   7.695  1.4547  0.4903  0.0581
  128OSM   C13F13790   6.938  -0.505   7.793  0.4570 -0.3456 -0.0264
  128OSM   H13F13791   6.843  -0.509   7.850  0.5403  3.0404  0.4423
  128OSM   H13G13792   6.954  -0.401   7.758  0.8848  0.3807  2.2526
  128OSM   C14F13793   7.052  -0.535   7.887 -0.0878  0.1831 -0.7101
  128OSM   H14F13794   7.151  -0.516   7.840 -0.8567 -0.5788 -2.6914
  128OSM   H14G13795   7.058  -0.644   7.911  1.2381  0.8378  2.1113
  128OSM   C15F13796   7.048  -0.465   8.030  0.1550  0.2156  0.5131
  128OSM   H15F13797   7.144  -0.483   8.082  0.3585  0.3010  0.1675
  128OSM   H15G13798   6.974  -0.536   8.074  0.0122  0.9556  1.4946
  128OSM   C16F13799   6.998  -0.320   8.052 -0.2916  0.6462 -0.3112
  128OSM   H16F13800   6.929  -0.293   7.970 -0.1329 -0.6888 -0.8955
  128OSM   H16G13801   7.091  -0.262   8.031  1.0111 -1.3030 -0.0206
  128OSM   C17F13802   6.943  -0.281   8.185 -0.6561 -0.2491  0.9154
  128OSM   H17F13803   6.854  -0.346   8.197 -0.8366  0.5834  4.6275
  128OSM   H17G13804   6.917  -0.173   8.191 -0.5841 -0.1871  0.1176
  128OSM   C18F13805   7.030  -0.305   8.307 -1.0335 -0.7668 -0.0878
  128OSM   H18F13806   7.125  -0.247   8.309  0.1260 -2.6198  0.4040
  128OSM   H18G13807   7.064  -0.410   8.322 -1.5220 -0.4355  3.9077
  128OSM   H18H13808   6.965  -0.279   8.393 -1.1349 -1.6781  0.1165
  129OSM      N13809   3.696   3.060   6.182 -0.4392  0.2163 -0.1544
  129OSM    C1513810   3.559   3.002   6.160 -0.0839 -0.2162  0.1474
  129OSM   H15A13811   3.506   3.053   6.081 -1.2991 -0.3988  0.8402
  129OSM   H15B13812   3.496   2.995   6.247 -0.2685 -1.0863 -0.0556
  129OSM   H15C13813   3.561   2.904   6.116  3.2894 -0.0282 -0.2655
  129OSM    C1413814   3.782   2.959   6.258  0.1924 -0.5104 -0.4336
  129OSM   H14A13815   3.748   2.935   6.358  1.1437 -1.0509 -0.2338
  129OSM   H14B13816   3.880   2.999   6.275  0.0803 -0.7735  0.8992
  129OSM   H14C13817   3.786   2.864   6.205 -1.1098 -0.1135 -1.2755
  129OSM    C1313818   3.764   3.071   6.047  0.4923 -0.3836  0.3687
  129OSM   H13A13819   3.715   3.137   5.977 -0.8487  0.9674  2.5397
  129OSM   H13B13820   3.761   2.971   6.005 -0.8750  0.8064 -2.4596
  129OSM   H13C13821   3.866   3.102   6.065  0.6896 -0.7431 -0.1102
  129OSM    C1213822   3.703   3.188   6.260  0.5832  0.6793 -0.3110
  129OSM   H12A13823   3.670   3.157   6.358 -0.2481 -3.3833 -1.8092
  129OSM   H12B13824   3.635   3.264   6.225 -1.1887 -1.8851 -2.6000
  129OSM    C1113825   3.829   3.274   6.267  0.1664 -0.3458 -0.6838
  129OSM   H11A13826   3.919   3.217   6.300 -1.1946 -1.9960  0.2344
  129OSM   H11B13827   3.818   3.354   6.344  1.9464  2.0316 -2.8004
  129OSM      P13828   4.001   3.383   6.105  0.2138  0.0314 -0.3335
  129OSM    O1313829   4.055   3.281   6.011 -0.1259 -0.2680 -0.5798
  129OSM    O1413830   4.011   3.518   6.046  0.2021 -0.5203 -0.2898
  129OSM    O1113831   4.090   3.394   6.235 -0.1624 -0.0960  0.0431
  129OSM    O1213832   3.852   3.345   6.144 -0.1185 -0.4808  0.0688
  129OSM    C1S13833   4.069   3.506   6.324  0.9041 -0.3085  0.0285
  129OSM    H1S13834   3.973   3.562   6.318  1.5499  0.5191 -3.2952
  129OSM    H1T13835   4.153   3.579   6.329  0.2703  0.3576  1.2615
  129OSM     NF13836   4.074   3.572   6.558 -0.0253  0.8462  1.1080
  129OSM    HNF13837   4.157   3.606   6.600  0.1409 -0.2212  1.6619
  129OSM    C2S13838   4.082   3.457   6.471  0.4593 -0.4952  0.2690
  129OSM    H2S13839   3.990   3.397   6.481 -1.4193  2.0919 -0.9839
  129OSM    C3S13840   4.212   3.375   6.494  0.6442 -0.4585 -0.6638
  129OSM    H3S13841   4.303   3.432   6.464 -0.9723  2.5723  0.0270
  129OSM     O313842   4.222   3.257   6.413  0.2694  0.3627  0.1088
  129OSM    HO313843   4.168   3.282   6.337  1.2159  0.0610 -0.6688
  129OSM    C4S13844   4.225   3.331   6.632  0.2683  0.1109 -0.7866
  129OSM    H4S13845   4.134   3.290   6.679  0.0560 -1.4059 -2.4567
  129OSM    C5S13846   4.341   3.338   6.703  0.1533 -0.2868 -0.5254
  129OSM    H5S13847   4.436   3.374   6.662  1.1729 -3.8615 -1.5044
  129OSM    C6S13848   4.346   3.293   6.846 -0.3267  0.6989 -0.3454
  129OSM    H6S13849   4.425   3.217   6.861  1.2206  2.0624 -1.3624
  129OSM    H6T13850   4.254   3.234   6.864  0.0248  0.0090 -0.7869
  129OSM    C7S13851   4.370   3.404   6.952 -0.2620  0.4309 -0.0986
  129OSM    H7S13852   4.281   3.470   6.953 -1.0646 -0.6372 -0.5406
  129OSM    H7T13853   4.463   3.459   6.924  1.3201 -1.4972  1.1373
  129OSM    C8S13854   4.373   3.343   7.095 -0.0718  0.4824 -0.1293
  129OSM    H8S13855   4.472   3.305   7.129 -0.4814 -1.1859 -0.7486
  129OSM    H8T13856   4.303   3.257   7.094  1.9003 -1.1622 -0.4842
  129OSM    C9S13857   4.317   3.445   7.205 -0.2067  1.3571  0.2176
  129OSM    H9S13858   4.212   3.479   7.192 -0.4293  0.1581 -1.3057
  129OSM    H9T13859   4.396   3.523   7.216  0.4470  0.6660  0.4490
  129OSM   C10S13860   4.304   3.379   7.355 -0.3646  0.3634 -0.6442
  129OSM   H10S13861   4.397   3.328   7.387 -0.9840 -1.1006 -1.1395
  129OSM   H10T13862   4.215   3.312   7.354 -0.7849  0.9115 -0.4052
  129OSM   C11S13863   4.281   3.487   7.452  0.3644 -0.1491  0.1737
  129OSM   H11S13864   4.201   3.550   7.408  3.0885  2.0619 -1.8007
  129OSM   H11T13865   4.371   3.552   7.456  0.2243  0.0030  0.9423
  129OSM   C12S13866   4.228   3.440   7.597  0.8791 -0.3692  0.4689
  129OSM   H12S13867   4.320   3.393   7.640  2.1306  0.8631 -0.8172
  129OSM   H12T13868   4.145   3.368   7.580 -0.3756  1.0673  0.4394
  129OSM   C13S13869   4.187   3.549   7.691 -0.0289 -0.3616 -0.6835
  129OSM   H13S13870   4.080   3.564   7.666 -0.3845 -3.1047 -0.9362
  129OSM   H13T13871   4.249   3.641   7.692  0.0921 -0.4410  0.6334
  129OSM   C14S13872   4.183   3.491   7.832 -0.1059  0.5057 -0.5773
  129OSM   H14S13873   4.287   3.479   7.870 -1.1348  1.1276  2.6016
  129OSM   H14T13874   4.150   3.386   7.842  2.4213 -0.2196  0.7440
  129OSM   C15S13875   4.095   3.569   7.932 -0.8257  0.2005  0.2636
  129OSM   H15S13876   4.089   3.511   8.027 -1.0124  1.7046  1.1918
  129OSM   H15T13877   3.991   3.578   7.895 -0.3128  1.7271 -0.8459
  129OSM   C16S13878   4.152   3.703   7.968 -0.3155 -0.3865 -0.0901
  129OSM   H16S13879   4.150   3.774   7.882  1.6039  1.2257  1.1423
  129OSM   H16T13880   4.262   3.696   7.983 -0.4517  0.1866  1.2052
  129OSM   C17S13881   4.084   3.770   8.084 -0.3511 -0.8214  0.4953
  129OSM   H17S13882   4.119   3.704   8.166  0.3323 -0.5226  0.4488
  129OSM   H17T13883   3.975   3.763   8.064 -0.0699 -0.4605 -1.2838
  129OSM   C18S13884   4.125   3.916   8.101 -0.8313  0.2593  0.5197
  129OSM   H18S13885   4.236   3.924   8.097 -0.8462  0.2505  0.0912
  129OSM   H18T13886   4.078   3.959   8.193  0.5794 -1.1690  1.9446
  129OSM   H18U13887   4.087   3.969   8.012  0.0600  1.5475  0.8821
  129OSM    C1F13888   3.956   3.628   6.586 -0.0129  0.8690  0.2624
  129OSM     OF13889   3.857   3.595   6.528  0.5734  0.1057 -0.7900
  129OSM    C2F13890   3.959   3.732   6.691  0.3918  0.3228  0.2416
  129OSM    H2F13891   3.924   3.827   6.646  0.5143  0.1442 -0.2344
  129OSM    H2G13892   4.060   3.750   6.732 -0.0331  0.3079  1.3187
  129OSM    C3F13893   3.847   3.702   6.794 -0.5925  0.7573 -0.4837
  129OSM    H3F13894   3.868   3.623   6.869 -1.2886  0.8375 -0.2039
  129OSM    H3G13895   3.751   3.672   6.746 -0.8812 -0.2784  0.7275
  129OSM    C4F13896   3.810   3.828   6.876 -0.0480  0.1899 -1.2243
  129OSM    H4F13897   3.704   3.818   6.908  0.6128 -0.4745  0.8838
  129OSM    H4G13898   3.807   3.911   6.803  1.5174  1.5654  0.2455
  129OSM    C5F13899   3.906   3.849   6.989 -1.1233 -0.1727  0.0696
  129OSM    H5F13900   3.941   3.950   7.017  0.1479 -0.4076 -0.6652
  129OSM    H5G13901   3.997   3.790   6.964 -0.7416  0.1778  0.6458
  129OSM    C6F13902   3.851   3.790   7.121  0.1900 -0.4013  0.2766
  129OSM    H6F13903   3.935   3.778   7.194 -0.5304  2.2569  1.6094
  129OSM    H6G13904   3.815   3.690   7.089  0.8029  0.3864 -3.0342
  129OSM    C7F13905   3.757   3.885   7.193 -0.2514 -0.1388 -0.4930
  129OSM    H7F13906   3.659   3.900   7.143 -0.3166 -0.2798 -0.4067
  129OSM    H7G13907   3.805   3.986   7.192  0.7388 -0.5979 -2.1150
  129OSM    C8F13908   3.724   3.847   7.341 -0.9863 -0.1519  0.0243
  129OSM    H8F13909   3.678   3.936   7.389 -0.6381  0.1159 -0.1406
  129OSM    H8G13910   3.822   3.819   7.386 -0.9828 -3.2718 -1.8216
  129OSM    C9F13911   3.634   3.725   7.353 -0.2256  0.4661  0.7784
  129OSM    H9F13912   3.619   3.664   7.263 -0.7814  1.8957 -0.1058
  129OSM   C10F13913   3.598   3.673   7.471 -0.0092  0.6932  0.6127
  129OSM   H10F13914   3.534   3.584   7.471  0.3984  0.3968 -0.5151
  129OSM   C11F13915   3.634   3.725   7.606  0.0758  0.7312 -0.1465
  129OSM   H11F13916   3.694   3.818   7.605  2.2401 -0.6033  0.9475
  129OSM   H11G13917   3.694   3.646   7.657 -2.2259 -1.7407 -1.1229
  129OSM   C12F13918   3.504   3.752   7.692 -0.4681  0.9461  0.6772
  129OSM   H12F13919   3.450   3.655   7.703  0.1848  0.8463  3.3589
  129OSM   H12G13920   3.432   3.819   7.642  1.0186  1.5476 -0.7241
  129OSM   C13F13921   3.541   3.793   7.835  0.0135 -0.2818 -0.0011
  129OSM   H13F13922   3.449   3.833   7.884  0.8903  0.3504  1.1559
  129OSM   H13G13923   3.603   3.885   7.826 -1.2786  0.7189  1.1157
  129OSM   C14F13924   3.612   3.685   7.916  0.4458  0.4371  0.2784
  129OSM   H14F13925   3.706   3.659   7.863 -0.0728  0.2399 -0.5538
  129OSM   H14G13926   3.550   3.593   7.912  1.5009 -0.4948  3.6441
  129OSM   C15F13927   3.650   3.728   8.061 -0.3474  0.2203 -0.0051
  129OSM   H15F13928   3.576   3.786   8.121  2.2697  3.1203  0.5841
  129OSM   H15G13929   3.730   3.804   8.047  0.9162 -1.2487 -0.8330
  129OSM   C16F13930   3.706   3.611   8.147 -0.2462  0.6270  0.0176
  129OSM   H16F13931   3.781   3.551   8.091 -1.3978  0.1007 -0.9757
  129OSM   H16G13932   3.622   3.542   8.167  2.1129 -1.9345  1.3921
  129OSM   C17F13933   3.766   3.662   8.275 -0.5622 -0.4243  0.1184
  129OSM   H17F13934   3.690   3.682   8.354 -1.9763 -1.7901 -0.8779
  129OSM   H17G13935   3.823   3.756   8.259  0.2814 -1.1187 -1.0292
  129OSM   C18F13936   3.877   3.575   8.331  0.2704  0.0922  0.5996
  129OSM   H18F13937   3.921   3.616   8.425 -0.0782  1.6192  0.1031
  129OSM   H18G13938   3.952   3.560   8.251 -0.5899 -0.5110 -0.0917
  129OSM   H18H13939   3.836   3.475   8.356  0.3879  0.1646  1.1023
  130OSM      N13940   0.244   5.548   6.110 -0.6289 -0.6593  0.1353
  130OSM    C1513941   0.326   5.533   6.239  0.2797 -0.0582  0.0683
  130OSM   H15A13942   0.388   5.444   6.236 -0.2479 -0.4687  1.1660
  130OSM   H15B13943   0.256   5.505   6.316 -0.9570 -1.1158 -1.4168
  130OSM   H15C13944   0.378   5.624   6.265 -0.0553  0.3517 -0.6776
  130OSM    C1413945   0.182   5.417   6.076 -0.2170 -0.4860 -0.6101
  130OSM   H14A13946   0.120   5.428   5.988  0.6055 -1.6643 -1.3460
  130OSM   H14B13947   0.109   5.383   6.148  0.5070 -1.0443 -0.1354
  130OSM   H14C13948   0.246   5.329   6.075 -0.2367 -0.5630  1.9626
  130OSM    C1313949   0.127   5.641   6.126 -0.3469 -0.0749  0.3304
  130OSM   H13A13950   0.062   5.607   6.204 -3.2218 -1.1667 -2.4436
  130OSM   H13B13951   0.068   5.645   6.036  0.8214 -1.5029 -0.5298
  130OSM   H13C13952   0.164   5.741   6.145 -1.4911  0.3429  0.3649
  130OSM    C1213953   0.339   5.588   5.998  0.3881 -0.1148  0.1803
  130OSM   H12A13954   0.295   5.563   5.903  0.7530 -1.8746  0.4524
  130OSM   H12B13955   0.429   5.533   6.021 -0.2168 -2.3190 -2.4191
  130OSM    C1113956   0.383   5.743   5.992 -0.2544 -0.2663  0.4563
  130OSM   H11A13957   0.292   5.800   5.964  0.8649  1.1942 -0.3319
  130OSM   H11B13958   0.457   5.760   5.910  0.5160 -2.4235  0.6774
  130OSM      P13959   0.593   5.751   6.154 -0.1035  0.0787 -0.1789
  130OSM    O1313960   0.626   5.615   6.113 -0.1276 -0.1227  0.2382
  130OSM    O1413961   0.673   5.852   6.082  0.3972 -0.5879  0.4259
  130OSM    O1113962   0.607   5.765   6.316  0.2541 -0.1378  0.7420
  130OSM    O1213963   0.438   5.784   6.123 -0.2252  0.1565  0.0312
  130OSM    C1S13964   0.526   5.877   6.369 -0.4235 -0.2383 -0.2577
  130OSM    H1S13965   0.417   5.875   6.346 -1.0793  0.8178  2.5325
  130OSM    H1T13966   0.558   5.971   6.318 -0.9788  0.6528  1.0238
  130OSM     NF13967   0.446   5.980   6.588 -0.0773  0.6043 -0.0957
  130OSM    HNF13968   0.471   6.073   6.615  0.6080  0.1201  1.0097
  130OSM    C2S13969   0.542   5.892   6.522 -0.2309 -0.0550 -0.3030
  130OSM    H2S13970   0.539   5.788   6.561  2.6244 -0.3332 -0.7225
  130OSM    C3S13971   0.693   5.934   6.551  1.2031  0.2492 -0.8725
  130OSM    H3S13972   0.684   6.044   6.535  0.8248  0.6636  1.8571
  130OSM     O313973   0.788   5.889   6.449 -0.3013 -0.4212 -0.2589
  130OSM    HO313974   0.733   5.834   6.393 -1.0796  0.2504 -0.1593
  130OSM    C4S13975   0.736   5.909   6.689 -0.1799  0.2333 -0.6885
  130OSM    H4S13976   0.733   5.804   6.724 -1.6451  1.7157  3.9908
  130OSM    C5S13977   0.784   6.004   6.769 -0.2095  0.3414 -0.3975
  130OSM    H5S13978   0.780   6.112   6.749 -1.1029  0.6033  1.0960
  130OSM    C6S13979   0.832   5.972   6.905 -0.7529 -0.0375  0.9006
  130OSM    H6S13980   0.920   6.035   6.932 -0.3523 -0.1378 -0.1792
  130OSM    H6T13981   0.866   5.868   6.922  0.0347 -0.2538 -1.7935
  130OSM    C7S13982   0.717   5.996   7.009 -0.3893  0.3320 -0.2135
  130OSM    H7S13983   0.618   5.959   6.975  0.7764 -2.5580 -0.6005
  130OSM    H7T13984   0.704   6.103   7.035 -3.1746  0.0806 -0.4351
  130OSM    C8S13985   0.752   5.929   7.151 -0.2046 -0.2480  0.2241
  130OSM    H8S13986   0.854   5.963   7.182  0.5670  0.1298 -2.6339
  130OSM    H8T13987   0.757   5.819   7.136  0.9711 -0.1507 -0.1707
  130OSM    C9S13988   0.643   5.948   7.255  0.5657  0.0126  0.2968
  130OSM    H9S13989   0.565   5.884   7.208  1.9167  0.0164 -1.9549
  130OSM    H9T13990   0.595   6.049   7.258  1.2414  0.3485 -0.2620
  130OSM   C10S13991   0.668   5.914   7.401 -0.0062  0.4775  0.4651
  130OSM   H10S13992   0.695   6.005   7.458 -3.1678  1.5826  0.2477
  130OSM   H10T13993   0.751   5.840   7.409  0.4206  1.1449  2.4925
  130OSM   C11S13994   0.544   5.866   7.470  0.3737  0.1442 -0.4503
  130OSM   H11S13995   0.508   5.777   7.414 -0.5590 -0.5220  1.1843
  130OSM   H11T13996   0.465   5.941   7.452 -1.2527 -0.8316  2.3957
  130OSM   C12S13997   0.578   5.836   7.617  0.0242 -0.1541 -0.4347
  130OSM   H12S13998   0.661   5.902   7.650 -1.8107  2.2047 -0.4176
  130OSM   H12T13999   0.600   5.729   7.636  0.6143  0.0764  0.1973
  130OSM   C13S14000   0.462   5.871   7.710 -0.2527 -0.2253  0.8264
  130OSM   H13S14001   0.362   5.839   7.674 -0.4360  3.1110 -1.9402
  130OSM   H13T14002   0.455   5.982   7.716  3.9438  0.1292  0.9856
  130OSM   C14S14003   0.480   5.817   7.851 -0.0499 -0.0177 -0.3083
  130OSM   H14S14004   0.550   5.872   7.917 -0.7661  0.9828 -0.3692
  130OSM   H14T14005   0.535   5.721   7.837  1.6092  0.8816  0.0149
  130OSM   C15S14006   0.352   5.805   7.937 -0.0454  0.0345  0.0842
  130OSM   H15S14007   0.264   5.758   7.888  0.9796  0.1491 -1.9223
  130OSM   H15T14008   0.322   5.909   7.962 -1.3208 -0.7706  2.0089
  130OSM   C16S14009   0.372   5.714   8.063  0.2341 -0.3493 -0.2615
  130OSM   H16S14010   0.453   5.761   8.121  0.4598 -0.8474 -0.1696
  130OSM   H16T14011   0.424   5.620   8.034 -0.8751 -1.1735  0.3923
  130OSM   C17S14012   0.242   5.693   8.138  0.2541  0.3512  0.5368
  130OSM   H17S14013   0.169   5.618   8.099  1.4675 -0.7279  0.3304
  130OSM   H17T14014   0.192   5.793   8.139 -2.0018 -0.7025 -1.0861
  130OSM   C18S14015   0.259   5.649   8.285  0.3518 -0.1035 -0.5757
  130OSM   H18S14016   0.298   5.546   8.290  1.3357  0.2821 -0.2155
  130OSM   H18T14017   0.171   5.647   8.352 -0.8971 -2.8812 -2.2111
  130OSM   H18U14018   0.332   5.710   8.342 -1.1151 -0.4388  1.7138
  130OSM    C1F14019   0.317   5.944   6.596 -0.6970 -1.0838  0.6341
  130OSM     OF14020   0.274   5.843   6.544  0.1832 -0.4431 -0.4800
  130OSM    C2F14021   0.227   6.040   6.672  0.0299 -0.3427 -0.6892
  130OSM    H2F14022   0.196   6.123   6.605  1.5564  2.1165  1.5455
  130OSM    H2G14023   0.293   6.081   6.752 -0.6749 -0.6802  0.0726
  130OSM    C3F14024   0.109   5.977   6.751 -0.0637  0.0383 -0.4121
  130OSM    H3F14025   0.133   5.888   6.813  1.3649 -1.1374 -2.5557
  130OSM    H3G14026   0.030   5.941   6.681  0.6133 -0.1712 -1.0724
  130OSM    C4F14027   0.047   6.077   6.860  0.3752  0.2732 -0.3377
  130OSM    H4F14028   0.026   6.171   6.804  2.0122  0.1651 -1.1747
  130OSM    H4G14029   0.130   6.101   6.930 -0.9759  2.4165  0.5796
  130OSM    C5F14030  -0.072   6.040   6.953 -0.3767  0.2528 -0.8445
  130OSM    H5F14031  -0.163   6.025   6.891 -0.7721 -2.1963  0.2703
  130OSM    H5G14032  -0.085   6.137   7.007 -1.8427 -0.8179  0.7732
  130OSM    C6F14033  -0.041   5.930   7.051  0.3753 -0.5351  0.0459
  130OSM    H6F14034   0.046   5.949   7.117  0.0878  1.0017 -0.0106
  130OSM    H6G14035  -0.012   5.834   7.003 -0.3618  0.4016 -2.3419
  130OSM    C7F14036  -0.161   5.905   7.140  0.3416 -0.0689  0.3636
  130OSM    H7F14037  -0.235   5.855   7.074  1.4342 -1.4619  0.1751
  130OSM    H7G14038  -0.214   5.998   7.172  1.0373  0.7339 -0.8026
  130OSM    C8F14039  -0.128   5.809   7.256  0.1713 -0.5762 -0.3133
  130OSM    H8F14040  -0.051   5.856   7.322 -0.7452  0.8731 -0.2700
  130OSM    H8G14041  -0.069   5.721   7.222  0.6139 -1.2920  2.2094
  130OSM    C9F14042  -0.254   5.776   7.328 -0.3894  0.0722 -0.5104
  130OSM    H9F14043  -0.346   5.793   7.270 -0.9446 -1.6553 -0.1842
  130OSM   C10F14044  -0.270   5.746   7.462 -0.1368  0.0436 -0.3311
  130OSM   H10F14045  -0.374   5.727   7.492  0.5284 -1.2718  1.1934
  130OSM   C11F14046  -0.158   5.748   7.564 -0.2059  0.0561 -0.1212
  130OSM   H11F14047  -0.066   5.793   7.522  0.8501  0.4583  2.4857
  130OSM   H11G14048  -0.134   5.647   7.604 -1.4757 -0.2562 -0.1235
  130OSM   C12F14049  -0.205   5.836   7.682 -0.2707 -0.1517  0.4004
  130OSM   H12F14050  -0.282   5.787   7.745 -2.0618 -1.2135 -2.5286
  130OSM   H12G14051  -0.238   5.927   7.626  1.5807 -0.8863 -1.9775
  130OSM   C13F14052  -0.080   5.888   7.753  0.1926  0.6225 -0.4009
  130OSM   H13F14053  -0.013   5.945   7.685  0.9852 -0.1074 -0.2427
  130OSM   H13G14054  -0.018   5.805   7.793 -2.8523 -0.9808  1.1629
  130OSM   C14F14055  -0.126   5.978   7.874 -0.0618  0.0829  0.3696
  130OSM   H14F14056  -0.224   5.946   7.913 -0.6692  0.5064 -0.7719
  130OSM   H14G14057  -0.130   6.086   7.845 -0.8199  0.2981  1.2501
  130OSM   C15F14058  -0.020   5.968   7.984  0.4188 -1.2761  0.3926
  130OSM   H15F14059   0.082   6.009   7.965  0.1344 -0.3545  0.8546
  130OSM   H15G14060  -0.018   5.863   8.022 -1.5594 -1.2595  0.5550
  130OSM   C16F14061  -0.058   6.046   8.109  0.3970 -0.4345  0.6340
  130OSM   H16F14062  -0.154   5.999   8.139 -0.3796  0.5457 -0.2745
  130OSM   H16G14063  -0.063   6.153   8.078  2.9421 -1.4636 -3.7036
  130OSM   C17F14064   0.056   6.042   8.211 -0.9367 -0.7232 -0.4908
  130OSM   H17F14065   0.151   6.085   8.174  0.2087 -3.3208 -0.6731
  130OSM   H17G14066   0.083   5.940   8.245  1.3159 -0.0219 -0.1016
  130OSM   C18F14067   0.017   6.100   8.346  0.7322 -0.2570 -0.0219
  130OSM   H18F14068   0.026   6.211   8.349  0.1200 -0.1177 -2.3868
  130OSM   H18G14069   0.085   6.066   8.427  1.1629  1.1584  0.2266
  130OSM   H18H14070  -0.086   6.080   8.380  0.6494  0.2535  0.0348
  131OSM      N14071   4.855   1.595   5.922  0.2575  0.0858  0.2667
  131OSM    C1514072   4.786   1.540   5.798 -0.0966 -0.4594 -0.1342
  131OSM   H15A14073   4.688   1.513   5.835  0.2846  0.1952  1.3781
  131OSM   H15B14074   4.834   1.456   5.750 -0.1081  0.4685 -1.8033
  131OSM   H15C14075   4.784   1.622   5.727 -1.3439 -0.2295  0.1534
  131OSM    C1414076   4.875   1.488   6.022  0.1452 -0.6594  0.2442
  131OSM   H14A14077   4.956   1.423   5.990  1.7825  0.3247  2.2373
  131OSM   H14B14078   4.789   1.423   6.025  1.2784 -2.2187 -0.2453
  131OSM   H14C14079   4.906   1.534   6.115  0.7865 -2.7561  1.1187
  131OSM    C1314080   4.992   1.646   5.887 -0.5196  0.3250 -0.1103
  131OSM   H13A14081   5.063   1.660   5.968 -2.1112  2.0229  1.0480
  131OSM   H13B14082   4.989   1.737   5.829  0.4058  0.5529  0.1790
  131OSM   H13C14083   5.031   1.569   5.823 -0.6279  0.4149 -0.2845
  131OSM    C1214084   4.765   1.706   5.974 -0.5663  0.5219 -0.2256
  131OSM   H12A14085   4.803   1.738   6.070  0.5401 -2.5907  0.4158
  131OSM   H12B14086   4.665   1.672   5.997 -1.3968  2.2831 -1.0976
  131OSM    C1114087   4.738   1.830   5.881 -0.2626  0.2983 -0.7305
  131OSM   H11A14088   4.650   1.886   5.920 -0.2601 -1.1279  1.4008
  131OSM   H11B14089   4.713   1.811   5.774 -0.7768  0.3862 -0.6278
  131OSM      P14090   4.889   2.024   5.970  0.2081  0.1302  0.2947
  131OSM    O1314091   5.017   2.091   5.935  0.4238 -0.3951 -0.0059
  131OSM    O1414092   4.768   2.113   6.001  0.2362 -0.0198  0.1102
  131OSM    O1114093   4.920   1.937   6.107  0.3375  0.4859 -1.0530
  131OSM    O1214094   4.854   1.912   5.869  0.2835 -0.0542 -0.2836
  131OSM    C1S14095   5.016   1.993   6.198  0.3160  1.0605 -0.7320
  131OSM    H1S14096   5.023   2.104   6.202 -0.7257  1.1104  0.0526
  131OSM    H1T14097   5.117   1.952   6.181  0.0034 -0.9545  1.9902
  131OSM     NF14098   5.104   2.003   6.429  0.7101 -0.4479 -0.0285
  131OSM    HNF14099   5.176   1.941   6.460  1.4482  0.4983  0.1630
  131OSM    C2S14100   4.998   1.956   6.350  0.4352 -0.5678  0.7049
  131OSM    H2S14101   4.903   2.004   6.382  0.8607  0.4215  0.4904
  131OSM    C3S14102   4.992   1.800   6.352  0.5569  0.2553  0.2000
  131OSM    H3S14103   5.084   1.772   6.295  1.6626  3.3575  0.3903
  131OSM     O314104   4.879   1.749   6.276 -0.1186  0.1696 -0.2516
  131OSM    HO314105   4.888   1.808   6.201  0.3689 -2.6507 -2.4801
  131OSM    C4S14106   4.994   1.752   6.495 -1.0329 -0.1033  0.1320
  131OSM    H4S14107   4.901   1.771   6.550 -0.2679  3.5180  0.2835
  131OSM    C5S14108   5.093   1.698   6.565  0.0391 -0.1664 -0.2105
  131OSM    H5S14109   5.194   1.680   6.524 -1.0084 -0.2664 -2.8204
  131OSM    C6S14110   5.082   1.682   6.713  0.0630 -0.9609  0.4527
  131OSM    H6S14111   5.185   1.682   6.754  0.0971 -0.1895  0.3597
  131OSM    H6T14112   5.054   1.578   6.741 -0.0494 -1.3734 -1.1351
  131OSM    C7S14113   4.998   1.785   6.783  0.7015  0.2782 -0.0730
  131OSM    H7S14114   4.894   1.770   6.747  0.5421  0.0113  0.5061
  131OSM    H7T14115   5.034   1.888   6.760  1.1008  0.4040  1.0786
  131OSM    C8S14116   5.000   1.773   6.935  0.6215  1.0122  0.1062
  131OSM    H8S14117   5.105   1.757   6.968  0.3587  0.0573  0.5117
  131OSM    H8T14118   4.947   1.680   6.964  1.1008 -0.8798 -4.5244
  131OSM    C9S14119   4.931   1.882   7.006 -1.2537  0.1361  0.1351
  131OSM    H9S14120   4.828   1.893   6.966 -0.8259 -2.5117 -1.7951
  131OSM    H9T14121   4.980   1.980   6.986  1.2180 -0.9596  0.6883
  131OSM   C10S14122   4.923   1.863   7.156  0.5895 -0.1578 -0.6787
  131OSM   H10S14123   5.025   1.857   7.199  0.6590 -1.4371 -0.9975
  131OSM   H10T14124   4.883   1.760   7.170  0.0877  0.3009  1.4730
  131OSM   C11S14125   4.830   1.963   7.223  0.4461 -0.8260  0.7497
  131OSM   H11S14126   4.733   1.974   7.170  1.1332  0.9607 -0.1822
  131OSM   H11T14127   4.873   2.065   7.213 -2.4434  0.4589  0.6850
  131OSM   C12S14128   4.780   1.941   7.371  0.2120 -0.5301 -0.0292
  131OSM   H12S14129   4.868   1.935   7.438 -0.2932 -1.2235  0.5708
  131OSM   H12T14130   4.736   1.841   7.392  1.0188 -0.4410  2.2254
  131OSM   C13S14131   4.690   2.049   7.420  0.1332  0.1006  0.0323
  131OSM   H13S14132   4.608   2.056   7.345 -0.0205  0.7008  0.2556
  131OSM   H13T14133   4.742   2.147   7.426  2.0715 -0.7642 -1.9028
  131OSM   C14S14134   4.608   2.004   7.540  0.4894 -0.0993  0.1664
  131OSM   H14S14135   4.561   1.913   7.498 -1.7370  0.7562  0.7363
  131OSM   H14T14136   4.520   2.069   7.557  1.1221  0.4029  1.5802
  131OSM   C15S14137   4.695   1.982   7.666  0.3496 -0.5089 -0.2262
  131OSM   H15S14138   4.739   2.082   7.686 -1.6296  0.2349  0.5959
  131OSM   H15T14139   4.768   1.902   7.646 -1.4292 -2.0262 -0.8282
  131OSM   C16S14140   4.618   1.950   7.792 -0.5238 -0.1670  0.0112
  131OSM   H16S14141   4.552   1.862   7.771 -2.1856  0.9916  0.2824
  131OSM   H16T14142   4.547   2.035   7.802  0.5750  0.5199  2.2844
  131OSM   C17S14143   4.702   1.941   7.923  0.4374 -0.9229 -0.0819
  131OSM   H17S14144   4.757   2.037   7.936  0.4841 -0.8401 -0.9255
  131OSM   H17T14145   4.775   1.858   7.920 -1.3110 -2.4927 -0.4495
  131OSM   C18S14146   4.618   1.915   8.049  0.2054 -0.3311  0.0150
  131OSM   H18S14147   4.537   1.842   8.024 -0.1348 -0.9706  2.8685
  131OSM   H18T14148   4.548   1.999   8.070 -0.5137 -0.6612 -1.0100
  131OSM   H18U14149   4.666   1.885   8.144 -0.1926 -1.1637 -0.0431
  131OSM    C1F14150   5.113   2.133   6.464  0.0230 -0.3246  0.1021
  131OSM     OF14151   5.011   2.200   6.445  0.2160  0.4025 -0.6327
  131OSM    C2F14152   5.242   2.176   6.528  0.8130 -0.2630  0.2385
  131OSM    H2F14153   5.258   2.282   6.499  0.8077  0.0176  1.2351
  131OSM    H2G14154   5.322   2.116   6.479 -1.9934 -2.2550 -2.0834
  131OSM    C3F14155   5.244   2.157   6.679 -0.7604 -0.9849 -0.6008
  131OSM    H3F14156   5.261   2.047   6.685  3.0124 -0.5051 -0.8949
  131OSM    H3G14157   5.150   2.179   6.733  0.3512  0.7844  0.6543
  131OSM    C4F14158   5.367   2.232   6.738  0.1635 -0.7752  0.4315
  131OSM    H4F14159   5.360   2.343   6.735 -1.1799 -0.8482  0.1748
  131OSM    H4G14160   5.436   2.224   6.652 -1.0631  0.5190 -0.7085
  131OSM    C5F14161   5.412   2.162   6.875  0.1947  0.6380  0.0649
  131OSM    H5F14162   5.515   2.187   6.906  0.4572 -0.7305  0.3045
  131OSM    H5G14163   5.412   2.052   6.863  0.7187  0.5847  0.5625
  131OSM    C6F14164   5.305   2.201   6.987 -0.1955  0.1341  0.1295
  131OSM    H6F14165   5.202   2.192   6.949  0.6071  3.3327 -3.0787
  131OSM    H6G14166   5.300   2.308   7.016 -2.0616 -0.3404  1.6314
  131OSM    C7F14167   5.326   2.114   7.112 -0.5467 -0.7630 -0.2886
  131OSM    H7F14168   5.429   2.127   7.151 -1.0294 -0.0072  0.7614
  131OSM    H7G14169   5.305   2.007   7.087  1.3352 -0.7355 -2.1425
  131OSM    C8F14170   5.228   2.150   7.221  0.2487 -1.2699  0.5086
  131OSM    H8F14171   5.128   2.123   7.181 -0.1594 -0.3883  0.9236
  131OSM    H8G14172   5.228   2.261   7.217  0.6793 -1.2783  0.2480
  131OSM    C9F14173   5.245   2.081   7.353 -0.0707  0.2223  0.1793
  131OSM    H9F14174   5.235   1.971   7.344 -3.2593  0.5384 -0.4606
  131OSM   C10F14175   5.273   2.147   7.470  0.7738  0.6016  0.4341
  131OSM   H10F14176   5.292   2.090   7.562  2.7169  0.3032 -0.1294
  131OSM   C11F14177   5.292   2.295   7.482 -0.0046  0.1415  0.4290
  131OSM   H11F14178   5.323   2.346   7.388  2.7789 -1.3598  0.4995
  131OSM   H11G14179   5.373   2.314   7.555 -0.0904  1.1221  0.2808
  131OSM   C12F14180   5.152   2.354   7.519 -0.9481 -0.6643 -0.1047
  131OSM   H12F14181   5.075   2.308   7.454  0.7833 -1.2887 -1.7633
  131OSM   H12G14182   5.139   2.458   7.481  1.3116 -0.1072  0.5390
  131OSM   C13F14183   5.107   2.327   7.665  0.7191  0.1392 -0.1209
  131OSM   H13F14184   5.136   2.223   7.692 -1.1595 -0.2546  0.4706
  131OSM   H13G14185   4.996   2.329   7.671  0.6771  2.1180 -1.2397
  131OSM   C14F14186   5.170   2.409   7.780 -0.0236  0.4439 -0.4128
  131OSM   H14F14187   5.133   2.514   7.775  0.6370  0.6207 -1.6380
  131OSM   H14G14188   5.280   2.398   7.772 -0.0378 -0.0378  0.0733
  131OSM   C15F14189   5.118   2.364   7.918 -0.3885 -0.6524 -0.3676
  131OSM   H15F14190   5.167   2.267   7.942  1.1112  0.2708  0.3794
  131OSM   H15G14191   5.008   2.348   7.922 -1.1967  4.2001 -0.7889
  131OSM   C16F14192   5.163   2.462   8.032  0.0604  0.5425 -0.3856
  131OSM   H16F14193   5.111   2.552   7.993 -1.6615 -0.5189 -0.6329
  131OSM   H16G14194   5.272   2.473   8.045  0.4939 -1.6744 -1.9070
  131OSM   C17F14195   5.091   2.427   8.164 -0.5572 -0.7112 -0.0745
  131OSM   H17F14196   5.081   2.318   8.181 -0.7636 -0.5304  1.0075
  131OSM   H17G14197   4.987   2.462   8.145 -0.2114  1.0896  1.2000
  131OSM   C18F14198   5.142   2.491   8.295 -0.4402  0.2658 -0.1001
  131OSM   H18F14199   5.239   2.444   8.324 -2.5183 -3.9538  0.5504
  131OSM   H18G14200   5.063   2.479   8.372 -1.6183  1.1029 -1.1703
  131OSM   H18H14201   5.158   2.600   8.282 -0.0503  0.4455  1.7429
  132OSM      N14202   0.000   2.913   6.260 -0.6667 -0.2554  0.1345
  132OSM    C1514203  -0.138   2.864   6.216  0.1017 -0.0677 -0.4986
  132OSM   H15A14204  -0.210   2.869   6.296 -1.2967  0.5273 -1.7681
  132OSM   H15B14205  -0.133   2.768   6.167  2.0164 -0.1435 -0.2110
  132OSM   H15C14206  -0.185   2.931   6.146 -0.7867 -2.7796 -2.5744
  132OSM    C1414207   0.038   2.816   6.362 -0.0519  0.4524  0.2271
  132OSM   H14A14208   0.129   2.854   6.408  0.8460 -0.0408 -1.1207
  132OSM   H14B14209   0.055   2.718   6.320 -0.0588  0.1600  0.8951
  132OSM   H14C14210  -0.043   2.805   6.432 -0.9702  0.1089 -0.8757
  132OSM    C1314211   0.090   2.898   6.142  0.3169 -0.2692 -0.9961
  132OSM   H13A14212   0.194   2.892   6.170  0.2077  2.3533  0.1710
  132OSM   H13B14213   0.094   2.985   6.077  3.5798  1.1367  0.9683
  132OSM   H13C14214   0.059   2.807   6.093  1.6659 -0.9582 -0.5799
  132OSM    C1214215  -0.011   3.053   6.323  0.0584 -0.3861 -0.4383
  132OSM   H12A14216  -0.035   3.124   6.245 -0.1249 -0.8069 -0.7749
  132OSM   H12B14217   0.089   3.081   6.350 -0.0027 -0.4621 -0.1314
  132OSM    C1114218  -0.109   3.071   6.442 -0.5222  0.1049  0.3093
  132OSM   H11A14219  -0.089   3.170   6.489  1.0946  0.2390 -0.6138
  132OSM   H11B14220  -0.077   2.998   6.520 -0.9004 -0.0384  0.3339
  132OSM      P14221  -0.320   3.171   6.339  0.0662  0.0007 -0.1053
  132OSM    O1314222  -0.251   3.211   6.214  0.3167 -0.2870 -0.2683
  132OSM    O1414223  -0.461   3.120   6.312 -0.8018  0.0236  0.1563
  132OSM    O1114224  -0.315   3.293   6.439  0.3585 -0.3466 -0.3276
  132OSM    O1214225  -0.250   3.053   6.417 -0.4769 -0.5291 -0.3892
  132OSM    C1S14226  -0.343   3.288   6.573 -0.8109  0.0537  0.2974
  132OSM    H1S14227  -0.277   3.210   6.618  1.4767  1.6576 -0.1859
  132OSM    H1T14228  -0.446   3.248   6.579 -0.6114 -1.1918 -3.2573
  132OSM     NF14229  -0.352   3.396   6.793 -0.3717  0.1215 -0.0445
  132OSM    HNF14230  -0.430   3.447   6.829 -0.5124 -0.2907  0.2334
  132OSM    C2S14231  -0.335   3.423   6.655 -0.0369 -0.7627  0.4289
  132OSM    H2S14232  -0.233   3.461   6.632 -0.4815 -0.8055 -1.7721
  132OSM    C3S14233  -0.432   3.525   6.593 -0.4103  0.3335 -0.0564
  132OSM    H3S14234  -0.538   3.498   6.611 -0.4062  1.0416  1.0759
  132OSM     O314235  -0.416   3.547   6.453  0.0171 -0.3760  0.2513
  132OSM    HO314236  -0.371   3.467   6.427  1.6515  0.5283  0.2150
  132OSM    C4S14237  -0.411   3.662   6.651 -0.4875 -0.8489  0.6590
  132OSM    H4S14238  -0.306   3.696   6.650 -0.4223 -1.0401  0.9831
  132OSM    C5S14239  -0.498   3.744   6.710  0.4709  0.1061  0.3791
  132OSM    H5S14240  -0.603   3.712   6.722  0.9411 -1.1457  1.2453
  132OSM    C6S14241  -0.460   3.878   6.767 -0.0832 -0.1615  0.1128
  132OSM    H6S14242  -0.531   3.958   6.737  1.3462  1.2706  0.4990
  132OSM    H6T14243  -0.357   3.903   6.736  0.2180 -2.6269 -0.9662
  132OSM    C7S14244  -0.473   3.873   6.923  0.3335  0.4238 -0.1138
  132OSM    H7S14245  -0.412   3.959   6.956 -0.4041  1.3101 -1.0542
  132OSM    H7T14246  -0.449   3.772   6.964  0.1324  1.2330  2.0902
  132OSM    C8S14247  -0.612   3.890   6.983 -0.2289  0.4727  0.1488
  132OSM    H8S14248  -0.683   3.818   6.938 -1.5374 -0.9652  4.2789
  132OSM    H8T14249  -0.646   3.984   6.935  1.9183  0.9755 -0.4667
  132OSM    C9S14250  -0.624   3.892   7.139  0.1088  0.6245  0.5016
  132OSM    H9S14251  -0.734   3.904   7.153 -0.2962 -1.8899 -0.2443
  132OSM    H9T14252  -0.574   3.984   7.173  2.6861 -0.2315 -0.8271
  132OSM   C10S14253  -0.563   3.779   7.223  0.2011 -0.0303 -0.2392
  132OSM   H10S14254  -0.458   3.772   7.185  0.3985 -0.4296  0.3638
  132OSM   H10T14255  -0.612   3.682   7.201 -0.9395  0.8881 -1.7894
  132OSM   C11S14256  -0.543   3.812   7.377  0.0425 -0.2372  0.2342
  132OSM   H11S14257  -0.633   3.851   7.429  0.0693  0.5177 -0.2928
  132OSM   H11T14258  -0.480   3.903   7.385 -0.7237  0.3477 -0.4387
  132OSM   C12S14259  -0.474   3.693   7.440  0.5328 -0.2867 -0.2507
  132OSM   H12S14260  -0.388   3.659   7.377 -0.1822 -3.2712  0.3101
  132OSM   H12T14261  -0.539   3.604   7.451 -0.7155  0.7841  1.2510
  132OSM   C13S14262  -0.417   3.725   7.582 -0.2227 -0.1063  0.1993
  132OSM   H13S14263  -0.501   3.750   7.650 -0.6852 -0.4201 -0.2496
  132OSM   H13T14264  -0.353   3.815   7.579 -2.1026  1.3368  2.0291
  132OSM   C14S14265  -0.333   3.614   7.654 -0.4131 -0.5525 -0.3273
  132OSM   H14S14266  -0.243   3.587   7.594 -0.3182  0.6309 -0.7233
  132OSM   H14T14267  -0.390   3.519   7.659  0.6340 -1.1763  0.0232
  132OSM   C15S14268  -0.286   3.646   7.800  0.4118  1.0934  0.4888
  132OSM   H15S14269  -0.373   3.695   7.850 -0.8849 -1.0815  0.4507
  132OSM   H15T14270  -0.210   3.726   7.790  0.7277  0.6245 -0.9392
  132OSM   C16S14271  -0.256   3.531   7.887  0.1636  0.6847 -0.5850
  132OSM   H16S14272  -0.191   3.463   7.828  1.8658  1.0910  0.7799
  132OSM   H16T14273  -0.344   3.466   7.905  1.1241 -1.0272 -1.8633
  132OSM   C17S14274  -0.186   3.561   8.018 -0.2374  0.4502 -0.2169
  132OSM   H17S14275  -0.242   3.512   8.101 -1.2969  0.7503 -0.7476
  132OSM   H17T14276  -0.215   3.668   8.029 -4.2437 -0.1712 -3.5359
  132OSM   C18S14277  -0.033   3.540   8.021  0.5096 -0.0845 -0.3349
  132OSM   H18S14278  -0.011   3.433   8.003 -2.8512 -0.7366 -0.9131
  132OSM   H18T14279   0.020   3.567   8.115 -1.4733  1.0699  0.4858
  132OSM   H18U14280   0.007   3.604   7.939  1.6101  0.1093  0.3381
  132OSM    C1F14281  -0.273   3.320   6.875 -0.2094 -0.5044  0.8700
  132OSM     OF14282  -0.173   3.270   6.838 -0.0739  0.1122 -0.1843
  132OSM    C2F14283  -0.324   3.310   7.016  0.0480  0.3465 -0.2903
  132OSM    H2F14284  -0.429   3.344   7.030 -0.8140 -1.5601 -1.8397
  132OSM    H2G14285  -0.254   3.391   7.046  0.6013 -0.7621  1.5101
  132OSM    C3F14286  -0.278   3.171   7.076  0.3425  0.2577  0.3589
  132OSM    H3F14287  -0.177   3.140   7.042  0.2684  1.5053 -1.0840
  132OSM    H3G14288  -0.352   3.098   7.036  1.2866 -0.2028 -0.5700
  132OSM    C4F14289  -0.285   3.171   7.230  0.3755  0.5176  0.2881
  132OSM    H4F14290  -0.307   3.071   7.275  0.2432  1.9991  3.6436
  132OSM    H4G14291  -0.372   3.234   7.257 -1.5471 -2.3393  1.0467
  132OSM    C5F14292  -0.149   3.226   7.280  0.7082 -0.3326  0.0426
  132OSM    H5F14293  -0.104   3.301   7.212 -0.2423  0.5702  0.3847
  132OSM    H5G14294  -0.071   3.148   7.289  0.4307 -0.8970 -2.1229
  132OSM    C6F14295  -0.152   3.283   7.419 -0.3404 -0.2526 -0.1689
  132OSM    H6F14296  -0.221   3.371   7.418 -0.5329 -0.4043 -0.2502
  132OSM    H6G14297  -0.050   3.306   7.456 -0.4908 -0.6178  0.4840
  132OSM    C7F14298  -0.219   3.185   7.520 -0.2071  0.4242  0.1860
  132OSM    H7F14299  -0.180   3.082   7.505 -0.3970 -0.0074  2.5688
  132OSM    H7G14300  -0.328   3.178   7.505 -0.1598 -1.0220  0.5151
  132OSM    C8F14301  -0.213   3.236   7.661 -0.2881  0.1927  0.6235
  132OSM    H8F14302  -0.297   3.186   7.713  0.6975 -1.9010  0.2439
  132OSM    H8G14303  -0.235   3.345   7.662 -0.4365  0.1656  0.2130
  132OSM    C9F14304  -0.075   3.209   7.720  0.6514  0.4158 -0.2183
  132OSM    H9F14305   0.005   3.277   7.687  0.4353  0.0241 -1.5413
  132OSM   C10F14306  -0.050   3.116   7.820 -0.1064 -0.2994 -0.2307
  132OSM   H10F14307   0.053   3.109   7.860 -0.1797  1.8701  0.3789
  132OSM   C11F14308  -0.148   3.025   7.891 -0.4544 -0.2469  0.4052
  132OSM   H11F14309  -0.102   2.924   7.892 -0.3421 -0.2643 -2.0173
  132OSM   H11G14310  -0.241   3.016   7.832  0.3520  2.1617 -1.3477
  132OSM   C12F14311  -0.203   3.052   8.036  0.3461  0.4594 -0.1978
  132OSM   H12F14312  -0.228   3.159   8.048  3.1674  1.4571 -2.5475
  132OSM   H12G14313  -0.121   3.022   8.106 -0.2366  0.2576  0.4037
  132OSM   C13F14314  -0.338   2.967   8.062 -0.2170  0.2292  0.3049
  132OSM   H13F14315  -0.314   2.860   8.048 -1.7527 -0.0157 -0.4789
  132OSM   H13G14316  -0.414   3.008   7.993 -1.3185 -3.5526 -0.8112
  132OSM   C14F14317  -0.397   2.992   8.203 -0.2940 -0.5340  0.1198
  132OSM   H14F14318  -0.402   3.101   8.221  2.5224 -0.3189 -0.0689
  132OSM   H14G14319  -0.325   2.942   8.272  1.4909  1.8278  0.0520
  132OSM   C15F14320  -0.542   2.933   8.206  0.3754  0.3778 -0.2414
  132OSM   H15F14321  -0.606   2.998   8.142 -1.9486  2.2035  3.7560
  132OSM   H15G14322  -0.576   2.945   8.311 -1.5692  1.2388 -0.9448
  132OSM   C16F14323  -0.552   2.792   8.155 -0.5053  0.4049  0.1179
  132OSM   H16F14324  -0.474   2.738   8.211  2.3521  1.9726 -2.2035
  132OSM   H16G14325  -0.533   2.798   8.045  0.6925  1.7426  0.3792
  132OSM   C17F14326  -0.691   2.725   8.189  0.0621  0.3834  0.1140
  132OSM   H17F14327  -0.776   2.777   8.140 -1.2099  0.0971  1.9976
  132OSM   H17G14328  -0.694   2.732   8.300  1.5400  2.6128  0.0486
  132OSM   C18F14329  -0.676   2.577   8.136 -0.3533  0.4405  0.5460
  132OSM   H18F14330  -0.676   2.580   8.025  0.5826  0.1726  0.5362
  132OSM   H18G14331  -0.770   2.526   8.166 -0.4445  0.0016 -0.4649
  132OSM   H18H14332  -0.595   2.517   8.184  0.7062  1.0490 -0.4493
  133OSM      N14333   6.618   3.677   6.076  0.5409 -0.4284  0.3183
  133OSM    C1514334   6.488   3.599   6.064  0.4316 -0.5121  0.4437
  133OSM   H15A14335   6.468   3.571   5.962 -2.7774  0.4695  0.7362
  133OSM   H15B14336   6.403   3.658   6.095  0.4026 -0.0856 -0.4420
  133OSM   H15C14337   6.492   3.512   6.127 -4.4517 -2.1438 -1.2930
  133OSM    C1414338   6.725   3.599   6.025 -0.3468  0.2703  0.0914
  133OSM   H14A14339   6.709   3.572   5.922 -1.2909 -1.7135  0.7352
  133OSM   H14B14340   6.724   3.501   6.071 -0.5416 -0.5571 -1.6001
  133OSM   H14C14341   6.829   3.628   6.028 -0.1559 -0.3349 -0.4942
  133OSM    C1314342   6.615   3.793   5.985  0.1253 -0.1241 -0.3332
  133OSM   H13A14343   6.607   3.755   5.884 -2.4951  1.6862 -0.8416
  133OSM   H13B14344   6.706   3.848   5.999 -1.1160  0.9873  4.2470
  133OSM   H13C14345   6.529   3.857   5.998  1.9438  2.1648  0.6260
  133OSM    C1214346   6.643   3.728   6.209  0.7328 -0.6612  0.3619
  133OSM   H12A14347   6.553   3.777   6.243 -1.0706 -2.5001 -1.6209
  133OSM   H12B14348   6.711   3.811   6.216 -1.5018  1.2881 -0.1568
  133OSM    C1114349   6.679   3.632   6.329 -1.0830 -0.0604 -0.6593
  133OSM   H11A14350   6.594   3.564   6.351 -0.7165  0.3558  2.1535
  133OSM   H11B14351   6.696   3.682   6.426  0.3264  0.5962 -1.2266
  133OSM      P14352   6.939   3.566   6.305  0.0278  0.4141  0.1161
  133OSM    O1314353   7.012   3.450   6.245 -0.1244 -0.2556 -0.3781
  133OSM    O1414354   6.970   3.701   6.249  0.3268  0.1189 -0.0206
  133OSM    O1114355   6.950   3.579   6.463 -0.1647  0.3541 -0.3785
  133OSM    O1214356   6.786   3.536   6.297  0.4615 -0.2325 -0.0602
  133OSM    C1S14357   6.919   3.467   6.543 -0.0845  0.0702 -0.6208
  133OSM    H1S14358   6.967   3.375   6.504 -2.6574 -1.2973 -0.6970
  133OSM    H1T14359   6.811   3.448   6.523 -0.2075 -0.4151  0.4775
  133OSM     NF14360   6.888   3.372   6.775 -0.2098 -0.4076  0.5301
  133OSM    HNF14361   6.798   3.365   6.818 -0.1708 -0.5328  0.5930
  133OSM    C2S14362   6.925   3.489   6.701  0.1513  0.4813 -0.2380
  133OSM    H2S14363   7.034   3.508   6.708  0.3828 -0.3382 -1.3798
  133OSM    C3S14364   6.850   3.614   6.752 -0.2080 -0.0923 -0.1641
  133OSM    H3S14365   6.746   3.608   6.715  0.1854  0.5230 -1.3876
  133OSM     O314366   6.904   3.738   6.706  0.2717 -0.6867  0.5995
  133OSM    HO314367   6.966   3.718   6.636  1.4269 -2.4816  2.0685
  133OSM    C4S14368   6.846   3.612   6.905 -0.1693 -0.0906  0.0577
  133OSM    H4S14369   6.944   3.587   6.948 -0.0055  1.0932  0.3797
  133OSM    C5S14370   6.732   3.633   6.986 -0.0010 -0.4490 -0.3859
  133OSM    H5S14371   6.646   3.660   6.923  0.0692 -0.8503 -0.6620
  133OSM    C6S14372   6.703   3.627   7.128 -0.1824 -0.0810  0.0204
  133OSM    H6S14373   6.633   3.544   7.153  1.0768 -1.2938 -0.4965
  133OSM    H6T14374   6.657   3.721   7.166 -0.3918 -1.2586  2.8229
  133OSM    C7S14375   6.838   3.608   7.209  0.0742 -1.0908  0.8058
  133OSM    H7S14376   6.918   3.679   7.179 -0.7504  0.1471  1.5070
  133OSM    H7T14377   6.877   3.507   7.185 -0.2768 -0.5414 -2.2546
  133OSM    C8S14378   6.825   3.613   7.366  0.1089 -0.3179  0.2986
  133OSM    H8S14379   6.720   3.589   7.390 -0.0523 -0.7927 -0.8685
  133OSM    H8T14380   6.852   3.716   7.399  0.9337 -0.1037 -1.0096
  133OSM    C9S14381   6.925   3.524   7.438 -0.3037  0.2510  0.1816
  133OSM    H9S14382   7.030   3.546   7.411 -0.0632 -1.1907 -0.1050
  133OSM    H9T14383   6.915   3.420   7.402  2.8250 -0.1656  0.3654
  133OSM   C10S14384   6.926   3.541   7.591 -0.4915 -0.2962  0.0937
  133OSM   H10S14385   6.838   3.503   7.648  0.1581  0.3365  1.5378
  133OSM   H10T14386   6.938   3.648   7.617 -1.5925 -0.1803  0.1707
  133OSM   C11S14387   7.050   3.469   7.651  0.2120 -0.0251  0.0366
  133OSM   H11S14388   7.135   3.536   7.626  0.2028 -0.0238  0.0090
  133OSM   H11T14389   7.059   3.366   7.611 -0.4238 -0.9388  2.2084
  133OSM   C12S14390   7.053   3.463   7.802 -0.9572 -0.0436 -1.1560
  133OSM   H12S14391   6.968   3.405   7.845 -2.5903  3.8140  1.0869
  133OSM   H12T14392   7.027   3.560   7.849  2.2047  0.7294 -0.9292
  133OSM   C13S14393   7.179   3.410   7.872  0.1170  0.3548 -0.3904
  133OSM   H13S14394   7.265   3.480   7.866 -2.0375  3.1158  0.0320
  133OSM   H13T14395   7.212   3.325   7.809 -0.7945 -0.2962 -0.0072
  133OSM   C14S14396   7.163   3.381   8.024 -0.7854  0.9998  0.4061
  133OSM   H14S14397   7.113   3.468   8.072 -0.1496  2.0428 -0.8122
  133OSM   H14T14398   7.264   3.364   8.069 -0.4629  0.7101 -0.4290
  133OSM   C15S14399   7.080   3.254   8.066  0.0082  0.8018 -0.3353
  133OSM   H15S14400   7.127   3.158   8.036 -0.9883  0.0488  0.4477
  133OSM   H15T14401   6.978   3.261   8.022 -1.1400 -1.3555  1.8679
  133OSM   C16S14402   7.072   3.255   8.216 -0.6543 -0.0739  0.3956
  133OSM   H16S14403   7.170   3.270   8.265 -0.9367  0.6356  0.7465
  133OSM   H16T14404   7.054   3.148   8.242  1.4068 -0.4957  0.2055
  133OSM   C17S14405   6.972   3.352   8.278  0.4446  0.1029  0.3044
  133OSM   H17S14406   6.872   3.342   8.230  0.5171  1.0063 -0.0627
  133OSM   H17T14407   6.996   3.459   8.261 -3.3823  0.9633 -0.3592
  133OSM   C18S14408   6.944   3.330   8.427  0.0842 -0.2696 -0.1416
  133OSM   H18S14409   6.903   3.233   8.460 -1.2655  0.1507 -0.5463
  133OSM   H18T14410   6.856   3.395   8.446  1.6514  2.2245 -1.0714
  133OSM   H18U14411   7.030   3.366   8.488  1.1931 -0.9309 -1.2644
  133OSM    C1F14412   6.964   3.267   6.785  0.1228  0.5531  0.3136
  133OSM     OF14413   7.059   3.249   6.712 -0.1960 -0.3827  0.0286
  133OSM    C2F14414   6.931   3.158   6.888 -0.1315 -0.4843 -0.0680
  133OSM    H2F14415   7.011   3.082   6.899 -0.6726 -1.7217 -3.8802
  133OSM    H2G14416   6.850   3.100   6.839  0.9829 -2.4121  0.3534
  133OSM    C3F14417   6.901   3.232   7.026 -0.4586 -0.4680  0.8347
  133OSM    H3F14418   6.861   3.150   7.089 -2.6236 -0.4505 -0.4468
  133OSM    H3G14419   6.817   3.303   7.010  1.3364  2.0580  2.2139
  133OSM    C4F14420   7.021   3.302   7.087  0.2516  0.4654 -0.2369
  133OSM    H4F14421   7.005   3.324   7.195  1.1147  0.1892 -0.0468
  133OSM    H4G14422   7.029   3.401   7.037 -0.3837  0.2019 -0.8721
  133OSM    C5F14423   7.152   3.215   7.074 -0.3428  0.1780 -0.6496
  133OSM    H5F14424   7.170   3.195   6.967 -0.3683 -2.7070 -0.1644
  133OSM    H5G14425   7.129   3.119   7.126 -1.8977 -0.2962 -2.1463
  133OSM    C6F14426   7.277   3.282   7.121 -0.0755 -0.2535  0.4229
  133OSM    H6F14427   7.291   3.369   7.053  0.5747 -2.8361 -2.8937
  133OSM    H6G14428   7.359   3.210   7.102 -1.0817 -0.8795 -1.8358
  133OSM    C7F14429   7.274   3.347   7.264  0.2210 -0.1744  0.4086
  133OSM    H7F14430   7.230   3.268   7.329 -1.6817 -0.6429 -1.3935
  133OSM    H7G14431   7.207   3.435   7.261  0.6064  0.0794 -2.9080
  133OSM    C8F14432   7.414   3.387   7.304 -0.1891  0.3797  0.1578
  133OSM    H8F14433   7.460   3.457   7.230 -0.0165  2.8460  2.5032
  133OSM    H8G14434   7.476   3.296   7.319  1.2752  1.3519  0.1091
  133OSM    C9F14435   7.392   3.442   7.443  0.0527 -0.1278  0.7280
  133OSM    H9F14436   7.348   3.542   7.437  1.5069  0.4205 -1.3295
  133OSM   C10F14437   7.428   3.395   7.563  0.3329  0.7005  0.6799
  133OSM   H10F14438   7.432   3.468   7.645 -0.1832 -1.2061  2.4459
  133OSM   C11F14439   7.496   3.270   7.593  0.2660 -0.0678  0.4025
  133OSM   H11F14440   7.601   3.276   7.556  0.8020 -2.3525  1.4505
  133OSM   H11G14441   7.453   3.182   7.541 -0.7106  1.3417 -1.2155
  133OSM   C12F14442   7.516   3.239   7.745  0.2873  1.0279 -0.1179
  133OSM   H12F14443   7.427   3.270   7.803  0.5032 -2.2777  2.1021
  133OSM   H12G14444   7.596   3.303   7.788 -0.9627  2.6143 -0.1557
  133OSM   C13F14445   7.542   3.087   7.778 -0.2951  0.3721 -0.0736
  133OSM   H13F14446   7.630   3.049   7.722  1.4746  2.2431  1.3672
  133OSM   H13G14447   7.452   3.036   7.737  0.5538  0.0161 -1.5129
  133OSM   C14F14448   7.556   3.056   7.925  0.0615  0.0787  0.3955
  133OSM   H14F14449   7.617   3.141   7.963 -0.3843  0.4042  0.3919
  133OSM   H14G14450   7.616   2.963   7.937  0.3764  0.2284 -0.0166
  133OSM   C15F14451   7.422   3.042   7.996  0.0599 -0.4961 -0.5348
  133OSM   H15F14452   7.371   2.948   7.966  0.6067 -0.5045 -1.4448
  133OSM   H15G14453   7.349   3.123   7.974 -1.2422 -0.6983  2.7118
  133OSM   C16F14454   7.451   3.044   8.149  0.1954 -0.7491  0.2918
  133OSM   H16F14455   7.465   3.150   8.179 -1.4835 -0.6306  0.6586
  133OSM   H16G14456   7.550   2.994   8.161  0.2416 -0.0722  3.2061
  133OSM   C17F14457   7.353   2.977   8.247 -0.1732 -0.1047 -0.2555
  133OSM   H17F14458   7.358   2.869   8.222 -0.1390 -0.4869  1.3695
  133OSM   H17G14459   7.249   3.011   8.228  0.2392  2.8010  2.4376
  133OSM   C18F14460   7.395   2.987   8.386 -0.1919  0.0546 -0.2162
  133OSM   H18F14461   7.489   2.930   8.407  0.2322  1.2539  1.2310
  133OSM   H18G14462   7.327   2.927   8.451  0.1746  0.2207  0.3214
  133OSM   H18H14463   7.411   3.091   8.422 -3.5501 -0.0867  1.8206
  134OSM      N14464   1.432   6.782   6.547 -0.5313  0.4972  0.1124
  134OSM    C1514465   1.436   6.886   6.442 -0.5106 -0.5788  0.2175
  134OSM   H15A14466   1.345   6.904   6.387 -0.9926  0.1405  1.2435
  134OSM   H15B14467   1.508   6.868   6.363 -0.2561 -1.2499  0.6025
  134OSM   H15C14468   1.477   6.975   6.488 -1.2335  1.1863 -2.4252
  134OSM    C1414469   1.575   6.731   6.557  0.4924  1.1154  0.2447
  134OSM   H14A14470   1.588   6.662   6.639  1.2415 -0.0164 -0.8152
  134OSM   H14B14471   1.637   6.816   6.580 -0.2367  2.4674 -2.6083
  134OSM   H14C14472   1.609   6.690   6.463 -0.5184 -0.5695  0.5801
  134OSM    C1314473   1.405   6.859   6.677 -0.9861  0.2473  0.9906
  134OSM   H13A14474   1.490   6.923   6.698 -0.9833  0.6728 -0.3107
  134OSM   H13B14475   1.393   6.794   6.763  0.9731 -1.9825 -0.3604
  134OSM   H13C14476   1.320   6.921   6.656 -1.0872  0.3020  1.5496
  134OSM    C1214477   1.328   6.676   6.528 -1.0353 -0.3593  0.2250
  134OSM   H12A14478   1.358   6.615   6.444  0.9945 -2.1512  2.1910
  134OSM   H12B14479   1.231   6.721   6.510 -0.1245  1.6733  0.2660
  134OSM    C1114480   1.304   6.566   6.633 -0.6981 -0.3109 -0.0059
  134OSM   H11A14481   1.201   6.524   6.631 -0.0517 -2.0480  1.5751
  134OSM   H11B14482   1.306   6.622   6.729  1.4411  1.7862 -1.2191
  134OSM      P14483   1.432   6.368   6.528 -0.3124 -0.1714  0.1802
  134OSM    O1314484   1.382   6.418   6.401 -0.2877 -0.2748 -0.3915
  134OSM    O1414485   1.571   6.316   6.527  0.5158 -0.6940  0.6123
  134OSM    O1114486   1.322   6.260   6.574 -0.2804  0.3728 -0.2811
  134OSM    O1214487   1.413   6.475   6.644 -0.0603  0.1584  0.3239
  134OSM    C1S14488   1.315   6.231   6.717 -0.0653 -0.5686  1.0229
  134OSM    H1S14489   1.259   6.314   6.766 -0.4642  0.0387 -0.4473
  134OSM    H1T14490   1.419   6.215   6.752  0.6668  1.1554 -0.3065
  134OSM     NF14491   1.256   6.061   6.884  0.0936 -0.2875 -0.5013
  134OSM    HNF14492   1.318   5.987   6.909 -0.8051 -1.1246 -0.7656
  134OSM    C2S14493   1.240   6.100   6.749 -0.4214 -0.2096  0.6154
  134OSM    H2S14494   1.130   6.110   6.736 -0.7142 -1.1795  2.2140
  134OSM    C3S14495   1.289   5.982   6.654  0.2970 -0.2693 -0.1986
  134OSM    H3S14496   1.399   5.968   6.667  0.1197 -0.8282  0.7488
  134OSM     O314497   1.259   6.010   6.518 -0.6406 -0.1618  0.7850
  134OSM    HO314498   1.260   6.106   6.514 -0.1024 -0.2490 -1.8853
  134OSM    C4S14499   1.234   5.844   6.694 -0.2245 -0.3631 -0.1219
  134OSM    H4S14500   1.312   5.786   6.746  1.7688 -0.8195 -3.5008
  134OSM    C5S14501   1.116   5.789   6.662  0.3645 -0.1997  0.2603
  134OSM    H5S14502   1.047   5.851   6.604  0.4904  1.4449  1.8430
  134OSM    C6S14503   1.064   5.653   6.709 -0.9253 -0.0355 -0.6211
  134OSM    H6S14504   1.060   5.579   6.626  2.9878 -0.0816 -0.8953
  134OSM    H6T14505   0.961   5.671   6.744 -0.7161 -2.7117  1.5452
  134OSM    C7S14506   1.142   5.589   6.827 -0.1199 -0.1962 -0.8496
  134OSM    H7S14507   1.252   5.578   6.827 -0.0703  0.3276  0.5371
  134OSM    H7T14508   1.111   5.483   6.839 -0.4850  0.1680  1.6828
  134OSM    C8S14509   1.107   5.651   6.967 -0.5381 -0.7312  0.0398
  134OSM    H8S14510   1.001   5.678   6.991 -0.1008  1.2442 -0.1651
  134OSM    H8T14511   1.161   5.747   6.960 -0.6200 -0.8107 -2.1240
  134OSM    C9S14512   1.177   5.569   7.080  0.5553  0.1413 -0.0778
  134OSM    H9S14513   1.282   5.559   7.044  0.8644  1.1743  0.5147
  134OSM    H9T14514   1.131   5.468   7.082 -1.5094  1.0188 -1.7512
  134OSM   C10S14515   1.150   5.628   7.219  0.3847 -0.2660  0.6627
  134OSM   H10S14516   1.042   5.640   7.243  1.0972  3.1817  2.3602
  134OSM   H10T14517   1.199   5.726   7.231  2.1554 -0.5610 -3.3882
  134OSM   C11S14518   1.213   5.544   7.329  0.2311  0.7490  0.0320
  134OSM   H11S14519   1.322   5.538   7.306  0.6056  1.7624  1.4155
  134OSM   H11T14520   1.165   5.445   7.315  2.5465 -0.0358 -2.9432
  134OSM   C12S14521   1.201   5.595   7.467 -0.0545  0.3197 -0.2971
  134OSM   H12S14522   1.235   5.701   7.459  2.0557 -0.4297 -1.6527
  134OSM   H12T14523   1.275   5.539   7.528 -0.1101 -0.1615 -0.6692
  134OSM   C13S14524   1.062   5.584   7.528 -0.4535  0.0063 -0.5995
  134OSM   H13S14525   1.081   5.552   7.633  1.8597 -0.7440 -1.2164
  134OSM   H13T14526   1.019   5.497   7.474  0.3178 -0.7074 -0.0781
  134OSM   C14S14527   0.972   5.711   7.528  0.4949 -0.5963  0.2735
  134OSM   H14S14528   0.865   5.687   7.545  0.4410 -0.3670  0.2631
  134OSM   H14T14529   0.978   5.767   7.432 -1.4899 -0.5739  0.1478
  134OSM   C15S14530   1.004   5.808   7.643 -0.3151 -0.8471  0.3802
  134OSM   H15S14531   0.956   5.903   7.613  2.1322  0.4796  0.5475
  134OSM   H15T14532   1.114   5.808   7.662 -0.0288 -1.8923 -1.2096
  134OSM   C16S14533   0.949   5.758   7.778  0.1556  0.2369 -0.2132
  134OSM   H16S14534   1.000   5.660   7.791  1.2645  0.5750 -1.8708
  134OSM   H16T14535   0.839   5.746   7.786  0.1247  0.3008 -0.5359
  134OSM   C17S14536   0.991   5.855   7.895  0.1211  0.0559 -0.2722
  134OSM   H17S14537   0.968   5.961   7.869 -3.0813 -0.5804 -0.2385
  134OSM   H17T14538   1.098   5.855   7.922  0.0310 -1.0520  0.0908
  134OSM   C18S14539   0.910   5.835   8.029  0.4669 -0.4115  0.1383
  134OSM   H18S14540   0.947   5.905   8.107  1.0889 -0.1558 -0.3834
  134OSM   H18T14541   0.930   5.734   8.070  3.2517  0.0243 -0.0328
  134OSM   H18U14542   0.803   5.855   8.007  0.2096 -0.6762  1.1048
  134OSM    C1F14543   1.201   6.133   6.980 -0.7744 -0.3181  1.0421
  134OSM     OF14544   1.123   6.219   6.947 -0.0427 -0.1750 -0.1237
  134OSM    C2F14545   1.227   6.092   7.126  0.6278 -0.1282 -0.3472
  134OSM    H2F14546   1.267   6.186   7.170 -0.3933 -0.5716  1.5445
  134OSM    H2G14547   1.302   6.010   7.131  0.1170 -0.8303 -3.0701
  134OSM    C3F14548   1.093   6.075   7.199  0.6020  0.6791  0.9703
  134OSM    H3F14549   1.052   5.984   7.150  1.4616  0.3713  0.8085
  134OSM    H3G14550   1.042   6.171   7.180 -0.1736  0.1967  0.6066
  134OSM    C4F14551   1.115   6.037   7.346 -0.0102 -0.0401 -0.4014
  134OSM    H4F14552   1.165   5.940   7.362 -2.1632 -0.8837  1.6549
  134OSM    H4G14553   1.015   6.022   7.394 -0.5706 -0.5944 -1.7418
  134OSM    C5F14554   1.177   6.153   7.438  0.5017 -0.3241  1.5733
  134OSM    H5F14555   1.118   6.248   7.434  1.2449  0.1414  1.5582
  134OSM    H5G14556   1.282   6.180   7.415 -0.4962  2.3985 -0.1650
  134OSM    C6F14557   1.194   6.124   7.587  0.5175 -0.6552  0.7010
  134OSM    H6F14558   1.206   6.014   7.590 -2.1504 -1.0307 -0.6849
  134OSM    H6G14559   1.100   6.159   7.636 -0.5277  1.2323 -2.5023
  134OSM    C7F14560   1.312   6.199   7.671 -0.1596  0.2369 -0.1465
  134OSM    H7F14561   1.320   6.303   7.633 -1.3179 -0.5492 -2.6186
  134OSM    H7G14562   1.404   6.146   7.641 -0.9156 -1.4064  0.3612
  134OSM    C8F14563   1.305   6.195   7.829 -0.2405  0.3204 -0.7688
  134OSM    H8F14564   1.402   6.240   7.859  0.3577 -2.3498  1.5082
  134OSM    H8G14565   1.314   6.088   7.857 -0.5570 -0.3728 -3.2559
  134OSM    C9F14566   1.181   6.249   7.894 -0.9449 -0.1730  0.7627
  134OSM    H9F14567   1.086   6.205   7.863 -0.8973 -0.2593  0.7404
  134OSM   C10F14568   1.181   6.347   7.987 -0.2333  0.2505  0.0945
  134OSM   H10F14569   1.080   6.374   8.021  0.8921  1.1705  2.8950
  134OSM   C11F14570   1.290   6.422   8.053  0.0244  0.3290 -0.5220
  134OSM   H11F14571   1.271   6.530   8.039 -0.8196  0.0864 -1.2635
  134OSM   H11G14572   1.391   6.407   8.009  0.0000  2.2328 -1.2645
  134OSM   C12F14573   1.316   6.384   8.207  0.3526  0.3483  0.2185
  134OSM   H12F14574   1.343   6.278   8.224  1.3507 -0.1352 -3.9622
  134OSM   H12G14575   1.217   6.390   8.257  0.6835  0.6576  0.8389
  134OSM   C13F14576   1.407   6.491   8.284  0.6261 -0.3509 -0.5030
  134OSM   H13F14577   1.372   6.595   8.266  1.4774 -0.1760 -1.2323
  134OSM   H13G14578   1.507   6.489   8.234  0.7191  2.1375 -0.4876
  134OSM   C14F14579   1.432   6.462   8.433  0.0707  0.3986  1.0873
  134OSM   H14F14580   1.336   6.466   8.489 -0.7559 -0.6037 -0.2478
  134OSM   H14G14581   1.493   6.541   8.483  0.4627  0.0090  1.2242
  134OSM   C15F14582   1.488   6.321   8.460 -0.0114  0.4615  0.8857
  134OSM   H15F14583   1.579   6.296   8.402  0.6591 -0.4695  2.3151
  134OSM   H15G14584   1.419   6.251   8.407  0.0211  0.8313  0.3461
  134OSM   C16F14585   1.500   6.287   8.610 -0.3713  0.1202  0.6639
  134OSM   H16F14586   1.599   6.329   8.640 -0.5985 -0.5931  2.4936
  134OSM   H16G14587   1.511   6.177   8.622 -0.9398 -0.1405 -1.1195
  134OSM   C17F14588   1.388   6.336   8.694 -0.0193  0.4085 -0.4376
  134OSM   H17F14589   1.293   6.292   8.655 -0.8802  0.5437  1.4704
  134OSM   H17G14590   1.375   6.446   8.701  1.1730  0.5215  0.1682
  134OSM   C18F14591   1.404   6.290   8.838  0.1494  0.0290 -0.2559
  134OSM   H18F14592   1.329   6.323   8.914  0.4484  0.9994 -0.3725
  134OSM   H18G14593   1.504   6.323   8.873  1.2328 -2.0652 -1.2976
  134OSM   H18H14594   1.404   6.179   8.834  0.8554  0.0392 -0.4928
  135OSM      N14595   0.965   6.150   6.222  0.1136 -0.3162  0.2051
  135OSM    C1514596   0.961   6.281   6.152 -0.0646  0.7355 -0.0299
  135OSM   H15A14597   0.859   6.314   6.144 -0.3822 -0.5993 -1.7178
  135OSM   H15B14598   1.006   6.279   6.054 -0.4842  1.5036 -0.2381
  135OSM   H15C14599   1.013   6.356   6.210  3.2286 -1.3932 -0.1012
  135OSM    C1414600   0.880   6.058   6.143 -0.1283  1.2112 -0.3529
  135OSM   H14A14601   0.782   6.103   6.134 -0.5844  0.2178 -0.3416
  135OSM   H14B14602   0.880   5.962   6.191  3.1300  1.0910 -0.4336
  135OSM   H14C14603   0.910   6.053   6.039  2.8846 -1.2835  0.5570
  135OSM    C1314604   1.106   6.099   6.229  0.3719  0.2105 -0.9219
  135OSM   H13A14605   1.174   6.156   6.291 -0.9896  2.3050 -1.3422
  135OSM   H13B14606   1.152   6.085   6.132  2.5257  0.2536  0.0512
  135OSM   H13C14607   1.105   6.005   6.282  0.1877 -0.2564 -1.7434
  135OSM    C1214608   0.899   6.157   6.360 -0.4565  0.2457 -0.0831
  135OSM   H12A14609   0.899   6.058   6.403  0.0953  0.2008 -0.1848
  135OSM   H12B14610   0.798   6.195   6.365 -0.7890 -0.5944 -0.4741
  135OSM    C1114611   0.960   6.247   6.466 -0.3108 -0.3766  0.0405
  135OSM   H11A14612   1.069   6.229   6.480 -0.5100 -2.2974 -0.7530
  135OSM   H11B14613   0.913   6.226   6.564 -1.7436 -0.9520 -0.7671
  135OSM      P14614   0.812   6.460   6.463  0.4566  0.2760 -0.5925
  135OSM    O1314615   0.825   6.598   6.410 -0.2736  0.5460  0.6166
  135OSM    O1414616   0.705   6.373   6.417  0.6416 -0.2279 -0.3184
  135OSM    O1114617   0.811   6.474   6.623  0.2790 -0.4432  0.0272
  135OSM    O1214618   0.953   6.387   6.438  0.1640  0.2737  0.4935
  135OSM    C1S14619   0.916   6.504   6.708  0.3981 -0.6123  0.5986
  135OSM    H1S14620   0.956   6.605   6.686 -1.2157  0.1907  1.2884
  135OSM    H1T14621   0.995   6.428   6.686 -0.7755 -1.3961 -0.9701
  135OSM     NF14622   1.032   6.477   6.927 -0.4532  0.0441  0.4617
  135OSM    HNF14623   1.046   6.384   6.959 -0.9972  0.1077  0.9120
  135OSM    C2S14624   0.899   6.481   6.865  0.7845 -0.6489 -0.8820
  135OSM    H2S14625   0.846   6.569   6.906 -0.2179 -1.3943 -0.5544
  135OSM    C3S14626   0.815   6.345   6.900  0.5002  0.1505  0.0080
  135OSM    H3S14627   0.874   6.257   6.867 -0.3287  0.2367 -1.7763
  135OSM     O314628   0.686   6.343   6.842  0.5563 -0.2017  0.2282
  135OSM    HO314629   0.680   6.424   6.790  2.1333 -0.2482 -0.0676
  135OSM    C4S14630   0.809   6.337   7.050  0.3631  0.9071 -0.3356
  135OSM    H4S14631   0.884   6.273   7.099 -1.5192  0.7808  2.4899
  135OSM    C5S14632   0.738   6.415   7.129 -0.3540  0.2014 -0.0542
  135OSM    H5S14633   0.666   6.482   7.079  0.8852 -0.0526 -2.2347
  135OSM    C6S14634   0.737   6.415   7.278  0.4796  0.2929 -0.2655
  135OSM    H6S14635   0.631   6.408   7.311  0.3344 -2.5064 -1.2522
  135OSM    H6T14636   0.781   6.513   7.307 -0.4476  1.1442 -1.6550
  135OSM    C7S14637   0.824   6.318   7.355 -0.7333  0.0331 -0.2586
  135OSM    H7S14638   0.932   6.343   7.353 -0.3514 -1.6428 -1.6879
  135OSM    H7T14639   0.827   6.224   7.297 -1.1782 -0.2588  0.1889
  135OSM    C8S14640   0.774   6.270   7.497 -0.0643  0.1183  0.0584
  135OSM    H8S14641   0.838   6.186   7.532  0.0556 -0.2791 -1.1158
  135OSM    H8T14642   0.673   6.228   7.476  0.8632 -1.3666 -1.5309
  135OSM    C9S14643   0.768   6.391   7.586  0.2689 -0.5818 -0.3102
  135OSM    H9S14644   0.676   6.453   7.575  1.0977  0.6741 -0.3179
  135OSM    H9T14645   0.852   6.459   7.560 -0.3749  0.6742  0.7987
  135OSM   C10S14646   0.787   6.360   7.734 -0.5625  0.6523 -0.6110
  135OSM   H10S14647   0.777   6.460   7.782  1.2126  0.8525 -0.6517
  135OSM   H10T14648   0.889   6.321   7.754 -0.7990 -0.3288 -1.2802
  135OSM   C11S14649   0.680   6.273   7.805 -0.3552  0.0316 -0.4612
  135OSM   H11S14650   0.678   6.173   7.756  2.2845 -0.2135 -0.1312
  135OSM   H11T14651   0.588   6.333   7.788  0.4247  1.3900  0.0101
  135OSM   C12S14652   0.722   6.249   7.953  0.9883  0.0068 -0.1008
  135OSM   H12S14653   0.716   6.347   8.005 -0.8483 -0.1846  0.0748
  135OSM   H12T14654   0.830   6.221   7.951  1.6096  2.3468 -1.9314
  135OSM   C13S14655   0.635   6.147   8.027 -0.0141  0.2723  0.4839
  135OSM   H13S14656   0.648   6.053   7.970  0.4714 -0.5785  1.9627
  135OSM   H13T14657   0.532   6.185   8.008 -0.4042 -1.7889 -1.7712
  135OSM   C14S14658   0.670   6.125   8.175  0.1101 -0.3102 -0.1432
  135OSM   H14S14659   0.661   6.224   8.225  1.8065 -0.0276 -0.3598
  135OSM   H14T14660   0.776   6.100   8.196  0.4819  0.8653 -0.5675
  135OSM   C15S14661   0.585   6.022   8.248  0.4783 -0.5737 -0.0765
  135OSM   H15S14662   0.603   5.924   8.200  1.0324 -2.5236  3.9054
  135OSM   H15T14663   0.476   6.041   8.262 -0.0006 -2.8892 -0.5633
  135OSM   C16S14664   0.651   5.985   8.386 -0.2134  0.0600 -0.2274
  135OSM   H16S14665   0.756   5.955   8.363 -0.1666 -1.3063  1.6460
  135OSM   H16T14666   0.597   5.899   8.431  1.7883 -1.2095 -0.1630
  135OSM   C17S14667   0.654   6.095   8.494  0.0579  0.3124  0.5145
  135OSM   H17S14668   0.751   6.149   8.492 -0.3475  1.1599  2.5124
  135OSM   H17T14669   0.651   6.031   8.586 -2.6191 -1.6322 -0.8413
  135OSM   C18S14670   0.539   6.198   8.501 -0.2935 -0.1273  0.1255
  135OSM   H18S14671   0.555   6.257   8.594 -0.6916  0.7548 -0.3485
  135OSM   H18T14672   0.440   6.150   8.515 -0.1791 -1.2388 -2.5604
  135OSM   H18U14673   0.525   6.256   8.406 -1.9830 -0.3357  0.2292
  135OSM    C1F14674   1.112   6.583   6.935  0.0280 -0.2479  0.0774
  135OSM     OF14675   1.091   6.696   6.896  0.5478  0.1953  0.6131
  135OSM    C2F14676   1.234   6.547   7.019 -0.5758 -0.1024  0.1820
  135OSM    H2F14677   1.325   6.529   6.958 -2.1163 -0.4748 -2.0685
  135OSM    H2G14678   1.204   6.452   7.068 -1.2032  0.2865  0.5668
  135OSM    C3F14679   1.273   6.659   7.130 -0.9423 -0.3079 -0.0026
  135OSM    H3F14680   1.251   6.764   7.102 -0.1693  0.1358  1.0155
  135OSM    H3G14681   1.382   6.651   7.149 -0.5281  1.6953 -1.3404
  135OSM    C4F14682   1.202   6.653   7.270  0.4103 -0.8336 -0.2599
  135OSM    H4F14683   1.093   6.644   7.248  0.1940  0.3952  0.2840
  135OSM    H4G14684   1.217   6.737   7.340 -2.6483 -1.4127  1.1630
  135OSM    C5F14685   1.233   6.528   7.360 -1.1041 -0.2797 -0.3192
  135OSM    H5F14686   1.342   6.514   7.372 -1.3998 -2.4930 -0.0227
  135OSM    H5G14687   1.188   6.435   7.318 -1.9738 -1.1744  2.4530
  135OSM    C6F14688   1.165   6.553   7.493 -0.3161  1.4276 -0.0141
  135OSM    H6F14689   1.171   6.457   7.549  1.1128  0.6311 -1.4891
  135OSM    H6G14690   1.058   6.569   7.470 -1.1431 -2.8738  0.4504
  135OSM    C7F14691   1.229   6.645   7.589  0.1380 -0.2066 -0.3124
  135OSM    H7F14692   1.170   6.737   7.569 -0.5310 -0.0189  2.3427
  135OSM    H7G14693   1.336   6.655   7.561  1.0794 -1.7909  2.5028
  135OSM    C8F14694   1.217   6.592   7.734  0.3972  0.2288 -0.3812
  135OSM    H8F14695   1.291   6.509   7.735  0.0404 -0.1203 -1.3869
  135OSM    H8G14696   1.114   6.554   7.754  0.9307  0.6970  3.4555
  135OSM    C9F14697   1.252   6.698   7.837 -0.5689  0.9245  0.5291
  135OSM    H9F14698   1.357   6.710   7.867 -0.0387 -1.8439 -0.0434
  135OSM   C10F14699   1.163   6.782   7.891 -0.3049  0.6055 -0.9964
  135OSM   H10F14700   1.199   6.858   7.962  2.5051 -0.6617 -0.9936
  135OSM   C11F14701   1.014   6.787   7.858  0.5912  0.2142  0.5090
  135OSM   H11F14702   0.989   6.755   7.755  0.9065 -1.9935  1.0920
  135OSM   H11G14703   0.969   6.883   7.892 -0.1926  0.9527 -2.5073
  135OSM   C12F14704   0.925   6.694   7.942  0.7297 -0.2630 -0.5564
  135OSM   H12F14705   0.942   6.585   7.928 -1.2823 -0.5490 -0.8380
  135OSM   H12G14706   0.820   6.717   7.918  1.1972  0.9398 -1.4579
  135OSM   C13F14707   0.939   6.717   8.092 -0.5016 -0.1802 -0.2840
  135OSM   H13F14708   0.927   6.824   8.118  2.4283  0.6249 -2.0637
  135OSM   H13G14709   1.036   6.680   8.132 -1.2078 -1.8234 -0.0587
  135OSM   C14F14710   0.828   6.646   8.170  0.2636 -0.1461  0.6244
  135OSM   H14F14711   0.745   6.622   8.101  0.9249  0.5806 -0.4376
  135OSM   H14G14712   0.783   6.710   8.250 -0.5865 -2.3766  1.9858
  135OSM   C15F14713   0.880   6.521   8.254 -0.1402  0.3539  0.0933
  135OSM   H15F14714   0.964   6.470   8.201 -0.0952  1.0271 -0.4963
  135OSM   H15G14715   0.801   6.443   8.255 -0.4122  0.6309  0.0808
  135OSM   C16F14716   0.920   6.565   8.392  0.1563 -0.1032 -0.2538
  135OSM   H16F14717   0.836   6.607   8.451 -1.5848  0.4150 -3.0130
  135OSM   H16G14718   0.989   6.650   8.378 -0.6309  0.5527 -0.1581
  135OSM   C17F14719   0.984   6.450   8.471 -0.2799  0.5048 -0.3894
  135OSM   H17F14720   1.082   6.424   8.427 -0.4839  0.1306 -0.6234
  135OSM   H17G14721   0.921   6.359   8.461 -2.7523  1.9118  1.8098
  135OSM   C18F14722   1.008   6.488   8.617 -0.2320 -0.1247  1.0609
  135OSM   H18F14723   0.919   6.487   8.683 -1.0426  1.1517  0.0273
  135OSM   H18G14724   1.056   6.588   8.624 -0.9452  0.3758 -0.8368
  135OSM   H18H14725   1.074   6.405   8.651 -1.9147 -1.8594  0.1960
  136OSM      N14726   5.930   0.774   5.794 -0.3609  0.1663  0.0931
  136OSM    C1514727   5.937   0.925   5.827 -0.1974 -0.3395  0.7077
  136OSM   H15A14728   5.940   0.969   5.728  1.2526 -0.8872  0.4892
  136OSM   H15B14729   6.019   0.958   5.890 -0.3891 -0.7786  1.1800
  136OSM   H15C14730   5.845   0.963   5.869 -1.2751  0.1033 -1.9475
  136OSM    C1414731   5.814   0.738   5.718 -0.3579  0.6941  0.0816
  136OSM   H14A14732   5.808   0.806   5.634  0.1782 -1.3498 -1.6640
  136OSM   H14B14733   5.721   0.756   5.770  0.6468  0.9988  1.7851
  136OSM   H14C14734   5.823   0.636   5.683 -0.9397  1.1221 -1.3540
  136OSM    C1314735   6.048   0.746   5.707  0.6676 -0.2135 -0.3615
  136OSM   H13A14736   6.072   0.816   5.628 -0.5372  2.8575  1.8764
  136OSM   H13B14737   6.049   0.647   5.664  0.2980  0.3194 -1.6041
  136OSM   H13C14738   6.143   0.744   5.759  0.8740 -0.3428 -0.7421
  136OSM    C1214739   5.940   0.705   5.927  0.7903  0.3174  0.4828
  136OSM   H12A14740   5.918   0.599   5.925 -1.9964  0.8964 -1.7864
  136OSM   H12B14741   5.859   0.753   5.980  0.5041  1.4522 -0.9535
  136OSM    C1114742   6.057   0.733   6.015  0.5145  0.4582 -0.0272
  136OSM   H11A14743   6.154   0.703   5.972  1.0558 -0.5765  1.8413
  136OSM   H11B14744   6.044   0.665   6.102  2.2091  1.7222  1.2439
  136OSM      P14745   6.192   0.943   6.128  0.2385 -0.2834 -0.3267
  136OSM    O1314746   6.314   0.927   6.046 -0.1470 -0.3389 -0.0876
  136OSM    O1414747   6.158   1.088   6.153 -0.5022 -1.1075  0.2445
  136OSM    O1114748   6.198   0.866   6.265 -0.1196 -0.3353  0.6220
  136OSM    O1214749   6.068   0.865   6.062 -0.0555 -0.0113 -0.2883
  136OSM    C1S14750   6.088   0.842   6.345 -0.6048 -0.8393  0.0307
  136OSM    H1S14751   6.043   0.748   6.308 -0.2779 -0.4446 -1.3774
  136OSM    H1T14752   6.011   0.922   6.340 -3.8959 -3.8973 -0.1909
  136OSM     NF14753   5.989   0.794   6.572  0.5784 -0.2736  0.0238
  136OSM    HNF14754   5.953   0.880   6.609 -0.1343 -0.8927  0.7704
  136OSM    C2S14755   6.121   0.813   6.499  0.1010 -0.0830 -0.8670
  136OSM    H2S14756   6.161   0.709   6.506 -1.9289 -0.8641 -0.6350
  136OSM    C3S14757   6.232   0.903   6.555 -0.2023 -0.2877 -0.6163
  136OSM    H3S14758   6.195   1.008   6.548  0.5031 -0.1197 -2.2218
  136OSM     O314759   6.351   0.889   6.479 -0.0730 -0.2465  0.4340
  136OSM    HO314760   6.336   0.849   6.393 -2.2145 -1.2643  1.2549
  136OSM    C4S14761   6.276   0.871   6.688  0.4826 -0.7655  0.1525
  136OSM    H4S14762   6.358   0.799   6.690 -0.1549 -1.5785 -1.8242
  136OSM    C5S14763   6.226   0.911   6.807  0.3028  0.1063 -0.1187
  136OSM    H5S14764   6.141   0.980   6.797  0.4391  0.4220  0.8807
  136OSM    C6S14765   6.262   0.866   6.950 -0.1238  0.1505 -0.2929
  136OSM    H6S14766   6.366   0.831   6.967 -0.0973  0.3110 -0.1229
  136OSM    H6T14767   6.207   0.772   6.968  1.7298 -0.5361  2.0244
  136OSM    C7S14768   6.217   0.956   7.061  0.5082  0.3937  0.0041
  136OSM    H7S14769   6.228   0.900   7.157 -1.3136 -1.0250 -0.5916
  136OSM    H7T14770   6.109   0.980   7.052  0.4966  0.2642 -0.2092
  136OSM    C8S14771   6.297   1.090   7.068  0.3296  0.0593 -0.3425
  136OSM    H8S14772   6.293   1.151   6.975  1.1909 -0.9899 -1.0801
  136OSM    H8T14773   6.405   1.065   7.077  0.9107  2.1022 -1.2034
  136OSM    C9S14774   6.251   1.170   7.185 -0.1546 -0.3577  0.1747
  136OSM    H9S14775   6.318   1.254   7.214 -1.5770  0.3717  1.4285
  136OSM    H9T14776   6.229   1.106   7.273  1.6885 -0.3651  0.6490
  136OSM   C10S14777   6.122   1.244   7.158  1.0916  0.1950  0.3385
  136OSM   H10S14778   6.045   1.165   7.157  0.3308  0.9141 -1.7174
  136OSM   H10T14779   6.124   1.304   7.064 -0.3954  0.2378  0.3171
  136OSM   C11S14780   6.082   1.336   7.271 -0.2843 -0.0814 -0.6379
  136OSM   H11S14781   6.153   1.422   7.272  1.1697 -1.2689  0.5016
  136OSM   H11T14782   6.094   1.284   7.369 -0.6773 -1.4667 -1.3224
  136OSM   C12S14783   5.944   1.389   7.253  0.2572  0.1174  0.5880
  136OSM   H12S14784   5.867   1.317   7.218 -1.8225  1.2407  2.6516
  136OSM   H12T14785   5.949   1.470   7.178 -0.8287 -2.6062 -2.5403
  136OSM   C13S14786   5.883   1.451   7.383  0.0428 -0.9166  0.4393
  136OSM   H13S14787   5.942   1.540   7.412  0.4197 -1.0107 -0.0382
  136OSM   H13T14788   5.884   1.382   7.470  3.7663  1.9462  2.8016
  136OSM   C14S14789   5.746   1.517   7.348 -0.2194  0.0629 -0.2768
  136OSM   H14S14790   5.680   1.456   7.283 -0.4597  1.3436 -1.2276
  136OSM   H14T14791   5.765   1.612   7.295 -0.4068 -0.9741 -2.2682
  136OSM   C15S14792   5.651   1.541   7.470  0.1034 -0.5217 -0.1580
  136OSM   H15S14793   5.616   1.444   7.511  1.5427 -0.0835  2.2707
  136OSM   H15T14794   5.563   1.601   7.437  0.5127 -0.2832 -0.8220
  136OSM   C16S14795   5.726   1.616   7.591 -0.2216  0.1197  0.0023
  136OSM   H16S14796   5.788   1.697   7.548 -1.8812  0.4970 -1.7543
  136OSM   H16T14797   5.796   1.547   7.642 -1.4531  0.1679  1.8174
  136OSM   C17S14798   5.635   1.678   7.691 -0.4009  0.2750  0.0228
  136OSM   H17S14799   5.599   1.596   7.757 -2.3075  1.5494  0.6286
  136OSM   H17T14800   5.548   1.710   7.629  0.3384  0.9556 -0.6812
  136OSM   C18S14801   5.712   1.784   7.770 -0.6413  0.6183  0.3590
  136OSM   H18S14802   5.648   1.841   7.841  0.0238  1.2756  0.4365
  136OSM   H18T14803   5.779   1.845   7.706 -1.2423  0.3991 -0.4992
  136OSM   H18U14804   5.782   1.728   7.836 -0.0458  1.8170  0.7616
  136OSM    C1F14805   5.921   0.680   6.581 -0.4467 -0.5848  0.1796
  136OSM     OF14806   5.970   0.582   6.521  0.8039  0.0195  0.1399
  136OSM    C2F14807   5.789   0.674   6.646  0.4210  0.0216  0.4991
  136OSM    H2F14808   5.711   0.705   6.573 -1.2066 -0.7490  1.8850
  136OSM    H2G14809   5.773   0.730   6.740 -1.7310 -0.4117  0.4230
  136OSM    C3F14810   5.749   0.535   6.685  0.7918  0.7048  0.6184
  136OSM    H3F14811   5.725   0.468   6.600 -1.7673  0.3794  1.5641
  136OSM    H3G14812   5.654   0.545   6.742  1.3759  1.4893  1.4691
  136OSM    C4F14813   5.840   0.459   6.779 -0.7060 -0.1426  0.2406
  136OSM    H4F14814   5.938   0.446   6.729 -1.4895  0.2411 -1.4272
  136OSM    H4G14815   5.806   0.354   6.794  0.8066 -0.8561 -1.1517
  136OSM    C5F14816   5.855   0.541   6.907  0.7634  0.3456 -0.0254
  136OSM    H5F14817   5.755   0.571   6.945 -0.0147 -0.6077 -1.2782
  136OSM    H5G14818   5.906   0.638   6.888 -0.1438  0.3745 -2.5825
  136OSM    C6F14819   5.913   0.456   7.017  0.0792  0.5947 -0.0089
  136OSM    H6F14820   6.015   0.424   6.987  0.0233  1.5818 -1.2950
  136OSM    H6G14821   5.846   0.371   7.045 -1.3687  1.4411 -0.8356
  136OSM    C7F14822   5.943   0.541   7.139  0.4918  0.1510 -0.4952
  136OSM    H7F14823   5.853   0.599   7.167  0.3475  0.2603 -1.1899
  136OSM    H7G14824   6.013   0.622   7.110 -1.3021  2.3467  1.1558
  136OSM    C8F14825   5.991   0.465   7.263 -0.3860 -0.2572  0.1336
  136OSM    H8F14826   6.031   0.537   7.337 -0.6826 -0.8291  0.8627
  136OSM    H8G14827   6.076   0.401   7.231 -1.0549 -1.3142  0.4213
  136OSM    C9F14828   5.883   0.378   7.332  0.3131  0.2997  0.2869
  136OSM    H9F14829   5.824   0.311   7.267 -1.0324 -0.0427  1.8238
  136OSM   C10F14830   5.844   0.377   7.464 -0.0637  0.1937 -0.5271
  136OSM   H10F14831   5.748   0.327   7.481  0.0620 -0.9416 -2.9036
  136OSM   C11F14832   5.893   0.451   7.582 -0.1182 -0.1265 -0.6761
  136OSM   H11F14833   5.971   0.522   7.550  0.2265 -0.0097  0.3982
  136OSM   H11G14834   5.936   0.381   7.656  1.4410  0.1940 -1.2560
  136OSM   C12F14835   5.779   0.522   7.647  0.1971  0.9013 -0.1427
  136OSM   H12F14836   5.698   0.458   7.687 -0.1401  0.3466 -1.6887
  136OSM   H12G14837   5.734   0.579   7.563 -0.6990  0.9303  0.3583
  136OSM   C13F14838   5.832   0.625   7.744 -0.6505  0.4640 -1.0030
  136OSM   H13F14839   5.879   0.702   7.680  2.0660 -1.7364 -1.7514
  136OSM   H13G14840   5.925   0.582   7.788 -1.0248 -0.2087 -0.8637
  136OSM   C14F14841   5.723   0.687   7.837  0.2152  0.1459  0.0678
  136OSM   H14F14842   5.666   0.605   7.884  0.5910  0.4786  1.1252
  136OSM   H14G14843   5.652   0.759   7.790  2.1137  3.6308  2.2932
  136OSM   C15F14844   5.789   0.777   7.939  0.8002  0.0979 -0.7111
  136OSM   H15F14845   5.868   0.838   7.890  2.1033 -2.0352 -1.3124
  136OSM   H15G14846   5.853   0.710   8.000 -1.0805 -1.6268 -0.5930
  136OSM   C16F14847   5.689   0.860   8.026  0.2564 -0.3297  0.1897
  136OSM   H16F14848   5.613   0.915   7.966  2.1063  2.1880  0.0571
  136OSM   H16G14849   5.738   0.940   8.087  0.4997 -0.6641  0.4349
  136OSM   C17F14850   5.614   0.762   8.116  0.6232 -0.6727 -0.5748
  136OSM   H17F14851   5.690   0.688   8.150  0.4581 -0.9246 -0.7501
  136OSM   H17G14852   5.540   0.705   8.057 -0.9259 -0.2035  0.8980
  136OSM   C18F14853   5.535   0.816   8.226  0.5589 -0.1725  0.2155
  136OSM   H18F14854   5.472   0.743   8.281  1.4525 -1.8094 -0.8898
  136OSM   H18G14855   5.465   0.899   8.198 -1.5422 -2.1704 -0.6355
  136OSM   H18H14856   5.598   0.864   8.304 -1.3015  1.0578  1.0021
  137OSM      N14857   2.127   5.538   6.495  0.0455  0.1009 -0.2639
  137OSM    C1514858   2.001   5.497   6.566  0.3639  0.1733  0.1116
  137OSM   H15A14859   1.915   5.483   6.501  0.2576  0.6039  0.1580
  137OSM   H15B14860   1.972   5.576   6.634 -0.0990 -0.2865  0.4557
  137OSM   H15C14861   2.013   5.411   6.631  3.0506  0.2754 -0.2013
  137OSM    C1414862   2.102   5.674   6.433  0.4078  0.5988  0.2592
  137OSM   H14A14863   2.038   5.682   6.347  1.6320  2.4464 -0.5031
  137OSM   H14B14864   2.199   5.718   6.422  0.1699  1.5147  1.6231
  137OSM   H14C14865   2.047   5.736   6.503  1.0900  0.6011  0.7886
  137OSM    C1314866   2.233   5.551   6.584 -0.0473 -0.4101 -0.0178
  137OSM   H13A14867   2.214   5.607   6.674 -1.1918 -0.5385 -0.1772
  137OSM   H13B14868   2.323   5.593   6.542 -0.5245  2.7568  1.9635
  137OSM   H13C14869   2.267   5.455   6.619  0.9701  0.3592  1.1889
  137OSM    C1214870   2.186   5.438   6.397 -0.1194 -0.2011  0.0312
  137OSM   H12A14871   2.246   5.502   6.333 -0.0987  0.2977  0.5391
  137OSM   H12B14872   2.097   5.411   6.343 -1.0378  1.7527  0.5006
  137OSM    C1114873   2.266   5.320   6.446 -1.0956  0.1442  0.2169
  137OSM   H11A14874   2.267   5.258   6.353 -1.0601  0.5470 -0.0504
  137OSM   H11B14875   2.195   5.275   6.519 -0.2775  1.8684  2.0999
  137OSM      P14876   2.480   5.234   6.568 -0.3313  0.4291 -0.6165
  137OSM    O1314877   2.522   5.127   6.477  0.6729  0.0043  0.0937
  137OSM    O1414878   2.584   5.295   6.650  0.0727 -0.5517  0.0471
  137OSM    O1114879   2.371   5.158   6.662  0.3127 -0.2445  0.3912
  137OSM    O1214880   2.395   5.346   6.505 -0.2706 -0.2454  0.1264
  137OSM    C1S14881   2.305   5.209   6.783 -0.7106  0.1615  0.3702
  137OSM    H1S14882   2.297   5.319   6.769  0.1346  0.1105 -0.5618
  137OSM    H1T14883   2.373   5.190   6.869 -0.0595  0.1010 -0.1514
  137OSM     NF14884   2.122   5.203   6.945  0.0493  0.7799 -0.5952
  137OSM    HNF14885   2.143   5.144   7.023 -0.4576 -1.3847 -2.0543
  137OSM    C2S14886   2.163   5.149   6.816  0.4668 -0.7904 -0.4982
  137OSM    H2S14887   2.097   5.193   6.738 -1.2028 -2.7933 -0.2569
  137OSM    C3S14888   2.163   4.996   6.803 -0.1048 -0.5947 -0.2094
  137OSM    H3S14889   2.238   4.949   6.870 -1.4973 -1.0747  1.0417
  137OSM     O314890   2.199   4.949   6.671  0.2418  0.1766 -0.5550
  137OSM    HO314891   2.243   5.027   6.635  1.8249  0.1194  1.2223
  137OSM    C4S14892   2.033   4.944   6.859 -0.1229 -0.2968 -0.1873
  137OSM    H4S14893   1.941   4.969   6.804  1.7474  0.2543 -3.1634
  137OSM    C5S14894   2.024   4.874   6.978 -0.0454  0.0282 -0.1711
  137OSM    H5S14895   2.116   4.865   7.038  1.3480  0.8146 -2.1466
  137OSM    C6S14896   1.907   4.806   7.031  0.8960  0.1163 -0.3679
  137OSM    H6S14897   1.920   4.695   7.029  0.3826 -0.0228  2.0502
  137OSM    H6T14898   1.822   4.843   6.970  0.8654  0.7882  0.0741
  137OSM    C7S14899   1.892   4.837   7.180 -0.3469 -0.7350  0.1267
  137OSM    H7S14900   1.840   4.933   7.203  5.5823  2.4136  1.5003
  137OSM    H7T14901   1.992   4.847   7.229 -0.3988  0.4385  0.0060
  137OSM    C8S14902   1.821   4.723   7.256 -0.0944  0.7637 -0.4343
  137OSM    H8S14903   1.875   4.629   7.229 -0.9006  0.3731 -0.7043
  137OSM    H8T14904   1.712   4.723   7.234 -0.2355  0.5655  0.2348
  137OSM    C9S14905   1.824   4.732   7.414  0.6501  0.1866  0.8942
  137OSM    H9S14906   1.926   4.758   7.450  1.1898 -0.0047 -0.4528
  137OSM    H9T14907   1.775   4.638   7.447 -0.8224  0.8086  0.5351
  137OSM   C10S14908   1.737   4.845   7.472  0.1142 -0.7715 -0.2819
  137OSM   H10S14909   1.629   4.829   7.452  0.2696  0.5376 -2.2793
  137OSM   H10T14910   1.766   4.938   7.419  0.1642 -1.2602 -1.1321
  137OSM   C11S14911   1.765   4.875   7.616  1.1533 -0.4926  0.9121
  137OSM   H11S14912   1.681   4.945   7.636  0.1270 -0.6806 -2.4467
  137OSM   H11T14913   1.860   4.932   7.628  0.5535  0.9687 -0.9972
  137OSM   C12S14914   1.765   4.758   7.720  0.1493  0.2738 -0.0340
  137OSM   H12S14915   1.811   4.672   7.668 -0.7550  0.6362 -1.4693
  137OSM   H12T14916   1.658   4.730   7.730 -0.4532  2.4371 -0.1915
  137OSM   C13S14917   1.845   4.796   7.845  0.1496 -0.1364 -0.0402
  137OSM   H13S14918   1.792   4.880   7.895 -2.5590 -1.4850 -0.5158
  137OSM   H13T14919   1.947   4.824   7.814 -0.3617 -0.0477 -1.6984
  137OSM   C14S14920   1.850   4.687   7.960 -0.0958  0.5416  0.1174
  137OSM   H14S14921   1.920   4.718   8.040 -0.2160 -1.0996  0.8665
  137OSM   H14T14922   1.891   4.593   7.917 -1.1023 -1.1977  2.8432
  137OSM   C15S14923   1.717   4.658   8.030  0.0073 -0.1519  0.4512
  137OSM   H15S14924   1.649   4.621   7.951 -0.0304  1.6060 -0.3805
  137OSM   H15T14925   1.681   4.752   8.078 -1.1314 -0.4446  0.1800
  137OSM   C16S14926   1.737   4.553   8.145 -0.5302 -0.1675  0.5425
  137OSM   H16S14927   1.760   4.451   8.106 -0.1233 -0.1693  0.7926
  137OSM   H16T14928   1.640   4.546   8.200 -0.8798  1.8179  0.2107
  137OSM   C17S14929   1.842   4.589   8.255 -0.5710  0.0304  0.4057
  137OSM   H17S14930   1.811   4.554   8.355  0.7970  0.7369  1.0840
  137OSM   H17T14931   1.856   4.699   8.267  0.7261 -0.2240  1.2933
  137OSM   C18S14932   1.984   4.524   8.226  0.5543 -0.3177  0.6763
  137OSM   H18S14933   2.007   4.436   8.290  1.5708 -0.7786 -0.2951
  137OSM   H18T14934   2.062   4.600   8.250 -1.8946  2.6565 -0.5621
  137OSM   H18U14935   1.995   4.497   8.118 -2.8318  1.7472 -0.2237
  137OSM    C1F14936   2.087   5.337   6.969 -0.0385  0.2674 -0.0653
  137OSM     OF14937   2.097   5.414   6.879 -0.4347 -0.4153  0.5999
  137OSM    C2F14938   2.018   5.377   7.104 -0.4293  0.0938 -0.2349
  137OSM    H2F14939   2.016   5.284   7.165  2.9785 -0.0854 -0.3451
  137OSM    H2G14940   1.916   5.416   7.082 -0.4742  0.3539  0.4247
  137OSM    C3F14941   2.082   5.501   7.170 -0.1408 -0.5892 -0.5653
  137OSM    H3F14942   2.067   5.601   7.124  2.2564  0.4672  0.8385
  137OSM    H3G14943   2.192   5.487   7.171 -0.3663 -2.4141 -0.4004
  137OSM    C4F14944   2.052   5.527   7.319  0.4742 -0.2216 -0.0209
  137OSM    H4F14945   2.079   5.439   7.381  0.7137  0.7788  1.3284
  137OSM    H4G14946   1.944   5.556   7.316  0.3725 -0.6276 -0.2436
  137OSM    C5F14947   2.126   5.654   7.364  1.3164 -0.1461 -0.3468
  137OSM    H5F14948   2.074   5.741   7.317  1.5575  0.5051  0.5678
  137OSM    H5G14949   2.229   5.650   7.324  0.3481  1.5710 -3.1533
  137OSM    C6F14950   2.124   5.674   7.519 -0.0993  0.6999  0.6752
  137OSM    H6F14951   2.141   5.578   7.572  0.6770 -0.5154 -1.7260
  137OSM    H6G14952   2.024   5.713   7.546 -0.8696  0.8648 -2.2589
  137OSM    C7F14953   2.234   5.769   7.563 -1.2085  0.1935  0.1456
  137OSM    H7F14954   2.244   5.858   7.497 -2.0259  0.3183  0.1869
  137OSM    H7G14955   2.325   5.709   7.539  1.2595  3.0628  2.0125
  137OSM    C8F14956   2.247   5.792   7.717 -0.5583  0.0097 -0.2898
  137OSM    H8F14957   2.335   5.851   7.748  0.1064 -1.6622  1.1409
  137OSM    H8G14958   2.262   5.693   7.766 -0.4268  1.1235  2.0223
  137OSM    C9F14959   2.130   5.873   7.765 -0.0792  0.0409  0.3042
  137OSM    H9F14960   2.128   5.976   7.726  1.1985 -0.3889 -0.9312
  137OSM   C10F14961   2.036   5.841   7.851 -0.9580  0.0256  0.5056
  137OSM   H10F14962   1.963   5.921   7.869  1.1339  1.8860  0.8530
  137OSM   C11F14963   2.029   5.705   7.914 -0.0770  0.7075 -0.3467
  137OSM   H11F14964   2.116   5.684   7.979  0.1718  0.9512 -0.6012
  137OSM   H11G14965   2.032   5.619   7.844  2.5077 -0.8652  1.6038
  137OSM   C12F14966   1.911   5.687   7.999  0.6502 -0.4944 -0.4514
  137OSM   H12F14967   1.821   5.654   7.943  1.6834 -0.0728 -2.4165
  137OSM   H12G14968   1.878   5.781   8.048 -1.5002 -0.2573 -2.2333
  137OSM   C13F14969   1.943   5.600   8.125  0.1895  0.0865 -0.2498
  137OSM   H13F14970   2.031   5.646   8.175  0.7646 -1.0373 -0.1987
  137OSM   H13G14971   1.969   5.498   8.090  0.9879  0.7662 -1.6722
  137OSM   C14F14972   1.823   5.616   8.223 -0.5284  0.4788  0.5394
  137OSM   H14F14973   1.734   5.583   8.166  0.5274 -0.0094 -0.8614
  137OSM   H14G14974   1.824   5.721   8.260 -1.2423  0.5351  0.4038
  137OSM   C15F14975   1.813   5.528   8.355 -0.1983  0.4330 -0.3559
  137OSM   H15F14976   1.912   5.529   8.407 -0.2603 -0.7339 -0.2094
  137OSM   H15G14977   1.794   5.428   8.312  0.0924  0.5363 -0.7257
  137OSM   C16F14978   1.703   5.570   8.455  0.6428  0.2244 -0.1766
  137OSM   H16F14979   1.604   5.544   8.411 -0.4377  2.2428  0.9953
  137OSM   H16G14980   1.697   5.680   8.464 -0.6993  0.6638 -5.1586
  137OSM   C17F14981   1.708   5.488   8.588 -0.3919  0.1272  0.3089
  137OSM   H17F14982   1.718   5.380   8.563  1.1229  0.2394  0.3394
  137OSM   H17G14983   1.613   5.511   8.640  0.6843 -1.4872  3.1863
  137OSM   C18F14984   1.810   5.532   8.688  0.5693  0.3918  0.5465
  137OSM   H18F14985   1.811   5.643   8.682 -2.0285  0.3656 -0.7038
  137OSM   H18G14986   1.915   5.494   8.682  0.1991 -0.5607  0.0944
  137OSM   H18H14987   1.774   5.507   8.790 -2.2175  0.8402 -0.3008
  138OSM      N14988   3.547   1.142   6.168 -0.3974  0.1539  0.6392
  138OSM    C1514989   3.564   1.284   6.199  0.2701  0.4231  0.1079
  138OSM   H15A14990   3.587   1.310   6.302  1.7799  0.0065 -0.1077
  138OSM   H15B14991   3.477   1.339   6.167 -0.4012 -0.9926 -0.5547
  138OSM   H15C14992   3.642   1.324   6.138 -0.8117  2.0336 -0.2333
  138OSM    C1414993   3.519   1.126   6.023  0.1152 -0.1041  0.6830
  138OSM   H14A14994   3.594   1.180   5.967  0.4840 -0.1651  1.1152
  138OSM   H14B14995   3.422   1.157   5.987  0.6522  2.3763  1.3110
  138OSM   H14C14996   3.526   1.024   5.987 -0.3540 -0.4434  1.5373
  138OSM    C1314997   3.682   1.080   6.183 -0.2566 -0.2512  0.5500
  138OSM   H13A14998   3.713   1.089   6.286 -0.3338 -1.7263  0.7172
  138OSM   H13B14999   3.763   1.131   6.133 -0.0977 -0.6489  0.4019
  138OSM   H13C15000   3.678   0.972   6.178  1.6926 -0.3933  1.6934
  138OSM    C1215001   3.458   1.068   6.259  0.0469  0.4961  0.6047
  138OSM   H12A15002   3.484   1.103   6.358  0.5863  1.7543  0.0239
  138OSM   H12B15003   3.486   0.963   6.257 -0.5865  0.3053  1.4402
  138OSM    C1115004   3.309   1.086   6.229 -0.2187  0.3022  0.7685
  138OSM   H11A15005   3.297   1.195   6.216  0.2068  0.2712  0.0781
  138OSM   H11B15006   3.248   1.060   6.318 -0.9065  3.2527  1.2073
  138OSM      P15007   3.121   1.058   6.056 -0.3533  0.1958  0.2366
  138OSM    O1315008   3.134   1.180   5.980 -0.6319 -0.4403  0.3873
  138OSM    O1415009   3.060   0.949   5.981  0.3974 -0.1362  0.3252
  138OSM    O1115010   3.039   1.088   6.186 -0.3516  0.0499  0.4754
  138OSM    O1215011   3.261   1.017   6.113 -0.2350  0.0014 -0.3264
  138OSM    C1S15012   2.999   0.984   6.281  0.3070  0.1831 -0.0172
  138OSM    H1S15013   3.080   0.909   6.285  0.4227  0.2826 -0.4506
  138OSM    H1T15014   2.919   0.916   6.244  0.2870 -0.7480  1.6845
  138OSM     NF15015   2.936   0.927   6.511  0.5631  0.0306 -0.2958
  138OSM    HNF15016   2.842   0.894   6.516  0.2515  0.9339 -0.1568
  138OSM    C2S15017   2.970   1.039   6.423 -0.7592  0.1376 -0.6931
  138OSM    H2S15018   3.067   1.086   6.452  0.7656 -0.7577 -4.0810
  138OSM    C3S15019   2.855   1.142   6.417 -0.7635  0.1399  1.4325
  138OSM    H3S15020   2.762   1.097   6.376  1.1573 -0.6075 -2.3797
  138OSM     O315021   2.873   1.257   6.331 -0.6040  0.6520 -0.6239
  138OSM    HO315022   2.944   1.229   6.272  0.0403  0.6500  0.1436
  138OSM    C4S15023   2.806   1.186   6.557  0.2273  0.5428 -0.0122
  138OSM    H4S15024   2.768   1.098   6.610 -0.9314  0.6371 -0.6683
  138OSM    C5S15025   2.826   1.307   6.614  0.3331  0.1896  0.2769
  138OSM    H5S15026   2.878   1.383   6.555  0.5581  0.5473  0.9269
  138OSM    C6S15027   2.800   1.349   6.759 -0.6617  0.1645  0.5655
  138OSM    H6S15028   2.694   1.381   6.757 -0.4485  0.8066 -0.6367
  138OSM    H6T15029   2.857   1.443   6.772 -0.1561 -0.1048  0.3176
  138OSM    C7S15030   2.834   1.262   6.883  0.6182 -0.0185 -0.1804
  138OSM    H7S15031   2.944   1.247   6.884  0.9990  2.4647  2.0048
  138OSM    H7T15032   2.793   1.159   6.875  0.3079 -0.0710  1.8706
  138OSM    C8S15033   2.778   1.321   7.017 -0.0169 -0.0427 -0.2544
  138OSM    H8S15034   2.667   1.322   7.016 -0.0279 -1.9093 -1.1289
  138OSM    H8T15035   2.814   1.426   7.029  2.1442 -0.6924 -0.7441
  138OSM    C9S15036   2.820   1.234   7.135 -0.0654  0.3053  0.1765
  138OSM    H9S15037   2.927   1.208   7.119 -0.0184  0.8300 -0.3799
  138OSM    H9T15038   2.760   1.140   7.139 -0.3228  0.5118  1.0964
  138OSM   C10S15039   2.792   1.303   7.272 -0.1969  0.0716 -0.4132
  138OSM   H10S15040   2.690   1.346   7.283  0.0650  0.3963  0.8412
  138OSM   H10T15041   2.862   1.389   7.282 -0.7133  0.4229  0.2612
  138OSM   C11S15042   2.820   1.218   7.395 -0.6232  0.5834 -0.3429
  138OSM   H11S15043   2.925   1.182   7.388 -0.3055  1.7063 -1.4056
  138OSM   H11T15044   2.751   1.131   7.388  1.4285 -1.2039  0.8963
  138OSM   C12S15045   2.798   1.300   7.528 -0.3178 -0.3079  0.5066
  138OSM   H12S15046   2.696   1.342   7.531 -0.7658 -1.2345 -1.2771
  138OSM   H12T15047   2.880   1.375   7.535 -0.1323 -0.4901  0.2860
  138OSM   C13S15048   2.807   1.201   7.649 -0.1722  0.6687 -0.1431
  138OSM   H13S15049   2.912   1.167   7.634 -0.2245  0.3193  0.2522
  138OSM   H13T15050   2.739   1.114   7.637  2.6213 -1.8781  1.8273
  138OSM   C14S15051   2.788   1.272   7.784 -0.4314 -0.0547  0.3506
  138OSM   H14S15052   2.680   1.262   7.805 -0.5404  1.1001  0.3519
  138OSM   H14T15053   2.827   1.375   7.776  2.9110 -1.2051  0.8172
  138OSM   C15S15054   2.873   1.198   7.888 -0.0711  0.2224  0.2800
  138OSM   H15S15055   2.981   1.207   7.863 -0.0238 -3.2098 -0.9068
  138OSM   H15T15056   2.842   1.092   7.883 -1.8111  0.6535  1.6133
  138OSM   C16S15057   2.850   1.244   8.036 -0.8180  0.0731 -0.5221
  138OSM   H16S15058   2.887   1.345   8.061  2.6831 -1.1933 -0.3658
  138OSM   H16T15059   2.909   1.175   8.100 -2.4916  0.5636  1.5970
  138OSM   C17S15060   2.700   1.239   8.083 -0.1408  0.5824  0.1851
  138OSM   H17S15061   2.664   1.134   8.085  1.6292 -0.0170  1.7174
  138OSM   H17T15062   2.646   1.293   8.003 -1.7812 -0.4293  0.5925
  138OSM   C18S15063   2.686   1.314   8.212 -0.1287  0.1493 -0.2394
  138OSM   H18S15064   2.582   1.314   8.250  0.5264  0.4398  1.6235
  138OSM   H18T15065   2.696   1.421   8.182 -0.2221 -0.2937 -1.8739
  138OSM   H18U15066   2.760   1.289   8.291  0.5623  0.8349 -0.6580
  138OSM    C1F15067   3.032   0.854   6.573 -0.1621  0.1978  0.8416
  138OSM     OF15068   3.146   0.895   6.573  0.0559 -0.0042 -0.1015
  138OSM    C2F15069   2.992   0.730   6.642  0.0683  0.3492 -0.7533
  138OSM    H2F15070   2.952   0.660   6.566 -1.3895  0.4240 -0.0841
  138OSM    H2G15071   2.910   0.751   6.714  1.6671 -1.0490  1.5289
  138OSM    C3F15072   3.114   0.651   6.705 -0.0179  0.0524  0.4021
  138OSM    H3F15073   3.170   0.723   6.768 -0.4092  0.0152  0.7908
  138OSM    H3G15074   3.189   0.621   6.629 -0.0844 -2.4689  1.2809
  138OSM    C4F15075   3.078   0.529   6.780  0.3786 -0.5922 -0.1351
  138OSM    H4F15076   3.167   0.500   6.840 -0.8737 -0.7912  1.6437
  138OSM    H4G15077   3.051   0.441   6.717  0.7044 -0.5421 -0.3479
  138OSM    C5F15078   2.969   0.547   6.888  0.2337 -0.6540 -0.1988
  138OSM    H5F15079   2.935   0.453   6.937 -1.2991 -0.7915 -1.4664
  138OSM    H5G15080   2.875   0.576   6.835  0.4100  0.7960  0.2748
  138OSM    C6F15081   3.006   0.654   6.992  0.6924 -0.5273  0.8086
  138OSM    H6F15082   3.067   0.739   6.953 -0.0279  0.1539  1.1694
  138OSM    H6G15083   3.072   0.611   7.070 -0.0597 -1.5642  0.8801
  138OSM    C7F15084   2.888   0.707   7.077  0.0083  0.5797 -0.4299
  138OSM    H7F15085   2.829   0.619   7.110  1.4721  0.8137  2.9695
  138OSM    H7G15086   2.830   0.774   7.010  0.6045 -0.7840 -2.3560
  138OSM    C8F15087   2.926   0.776   7.209  0.3855  0.1677 -0.1819
  138OSM    H8F15088   2.994   0.861   7.186  1.8791 -0.6107  1.2120
  138OSM    H8G15089   2.980   0.701   7.271  0.2340  0.7518  0.6656
  138OSM    C9F15090   2.812   0.821   7.291  0.5903 -0.0657  0.3442
  138OSM    H9F15091   2.717   0.820   7.234  0.7957 -0.4635  0.0069
  138OSM   C10F15092   2.812   0.843   7.423  0.7571  0.8268 -0.0792
  138OSM   H10F15093   2.720   0.863   7.479  1.0080 -3.0839  1.8685
  138OSM   C11F15094   2.934   0.821   7.512 -0.2866  0.4923 -0.1728
  138OSM   H11F15095   3.015   0.897   7.499 -0.0616  0.5131  1.2908
  138OSM   H11G15096   2.996   0.731   7.493  0.2840  0.8710 -0.1158
  138OSM   C12F15097   2.902   0.808   7.660 -0.3042  0.5943 -0.1481
  138OSM   H12F15098   2.859   0.710   7.691  0.7167  0.3593  0.5451
  138OSM   H12G15099   2.834   0.892   7.686  0.1387  0.9585 -0.1710
  138OSM   C13F15100   3.027   0.823   7.747 -0.4602 -0.8118 -0.1454
  138OSM   H13F15101   3.059   0.929   7.736 -0.5213 -0.8650 -0.8641
  138OSM   H13G15102   3.105   0.747   7.720 -0.1125 -0.5429  0.1030
  138OSM   C14F15103   2.981   0.813   7.891  0.6361  0.1852  0.0806
  138OSM   H14F15104   2.915   0.725   7.906 -0.5420  0.9810 -0.4039
  138OSM   H14G15105   2.926   0.907   7.915  0.5951  1.1535 -3.5608
  138OSM   C15F15106   3.101   0.807   7.988 -0.2395 -0.1580  0.4455
  138OSM   H15F15107   3.177   0.875   7.944 -0.5549 -0.5362 -0.7137
  138OSM   H15G15108   3.147   0.707   7.976 -1.9001 -0.7608 -1.2036
  138OSM   C16F15109   3.072   0.833   8.137 -0.0017 -0.5205  0.8532
  138OSM   H16F15110   3.035   0.938   8.140  0.6418 -0.2781  0.3820
  138OSM   H16G15111   3.176   0.836   8.178  0.9440 -0.8373 -1.4838
  138OSM   C17F15112   2.972   0.745   8.199  0.1804 -0.0477 -0.4440
  138OSM   H17F15113   3.006   0.642   8.174  0.1135 -0.1707 -0.0186
  138OSM   H17G15114   2.870   0.742   8.155 -0.3144 -1.7469  0.7786
  138OSM   C18F15115   2.953   0.779   8.350 -0.3344  0.0777 -0.5054
  138OSM   H18F15116   3.050   0.798   8.400 -0.6962 -1.5803  0.8988
  138OSM   H18G15117   2.904   0.694   8.403  1.9091 -0.5292  0.6633
  138OSM   H18H15118   2.899   0.876   8.343 -2.6537 -1.1993 -0.8360
  139OSM      N15119   1.713   0.900   6.110  0.5983 -0.0700 -0.2357
  139OSM    C1515120   1.763   0.782   6.032 -0.7505  0.7614 -0.2942
  139OSM   H15A15121   1.695   0.743   5.958  1.8098  1.2790 -3.0552
  139OSM   H15B15122   1.787   0.707   6.106  0.9163  1.0710 -0.4849
  139OSM   H15C15123   1.848   0.813   5.972  0.9854 -1.0687  1.1461
  139OSM    C1415124   1.694   1.010   6.019 -0.1264 -0.2114  0.1375
  139OSM   H14A15125   1.657   1.099   6.068 -0.3568  0.1032 -0.5931
  139OSM   H14B15126   1.614   0.981   5.952 -0.3388 -2.3873  1.3205
  139OSM   H14C15127   1.779   1.034   5.956 -0.8696 -0.7001 -1.0751
  139OSM    C1315128   1.581   0.864   6.171  0.1461  0.1061 -0.3433
  139OSM   H13A15129   1.543   0.954   6.218  1.1435  1.1902 -1.5873
  139OSM   H13B15130   1.604   0.791   6.248  3.3693 -0.1379 -1.5104
  139OSM   H13C15131   1.505   0.814   6.113  0.2312 -1.4366  0.8410
  139OSM    C1215132   1.813   0.927   6.223 -0.3094 -0.1225 -0.6904
  139OSM   H12A15133   1.909   0.958   6.186 -1.0745  2.2893 -0.7927
  139OSM   H12B15134   1.839   0.839   6.278  1.3869  1.2940  0.8360
  139OSM    C1115135   1.771   1.043   6.321 -0.0753  0.2114  0.4214
  139OSM   H11A15136   1.845   1.046   6.404  1.1373  1.4062 -0.6738
  139OSM   H11B15137   1.670   1.016   6.357 -0.3302  2.3493  1.3943
  139OSM      P15138   1.638   1.266   6.260 -0.0112  0.0168 -0.0308
  139OSM    O1315139   1.644   1.369   6.156  0.0716  0.2889 -0.3986
  139OSM    O1415140   1.517   1.180   6.254  0.3997  0.5185  0.4050
  139OSM    O1115141   1.655   1.328   6.405  0.4461 -0.2488 -0.2566
  139OSM    O1215142   1.769   1.169   6.243  0.0361 -0.1506  0.8797
  139OSM    C1S15143   1.782   1.357   6.466 -0.3235  0.7231 -0.3190
  139OSM    H1S15144   1.833   1.444   6.421  1.6587 -0.0895  0.2968
  139OSM    H1T15145   1.844   1.266   6.453 -2.2651 -0.6372 -0.4166
  139OSM     NF15146   1.874   1.443   6.680  0.1267  0.2950 -0.3804
  139OSM    HNF15147   1.920   1.383   6.745  1.2376 -0.8164 -2.1593
  139OSM    C2S15148   1.754   1.380   6.620 -0.1370  0.6003 -0.5749
  139OSM    H2S15149   1.670   1.453   6.624 -0.8660 -0.2341 -0.4924
  139OSM    C3S15150   1.715   1.247   6.686 -0.5283 -0.1477 -0.4009
  139OSM    H3S15151   1.794   1.172   6.663 -1.2314 -0.4521 -1.9187
  139OSM     O315152   1.594   1.189   6.633  0.3396 -0.5295 -0.2196
  139OSM    HO315153   1.575   1.243   6.555  2.2879  3.1148  1.6800
  139OSM    C4S15154   1.693   1.264   6.836 -0.4218  0.6851 -0.0402
  139OSM    H4S15155   1.767   1.213   6.898  0.5210  2.2791  0.1583
  139OSM    C5S15156   1.585   1.319   6.899 -0.5158 -0.5278  0.2195
  139OSM    H5S15157   1.504   1.365   6.840  1.1158  1.5406 -0.4788
  139OSM    C6S15158   1.563   1.334   7.049 -0.0687 -0.1642  0.3479
  139OSM    H6S15159   1.476   1.277   7.085  0.6071 -2.6577 -1.8132
  139OSM    H6T15160   1.546   1.442   7.068 -0.9521 -0.4940  1.4670
  139OSM    C7S15161   1.680   1.288   7.142 -0.0248  0.0603 -0.4508
  139OSM    H7S15162   1.784   1.316   7.114  0.9265 -0.0996  2.7776
  139OSM    H7T15163   1.673   1.177   7.135 -2.0843 -0.0487  2.4755
  139OSM    C8S15164   1.649   1.305   7.289 -0.8259  0.2526  0.4425
  139OSM    H8S15165   1.543   1.303   7.320 -1.0747  1.3531 -0.2969
  139OSM    H8T15166   1.674   1.412   7.302 -1.7137  0.2720  2.1532
  139OSM    C9S15167   1.739   1.221   7.383 -0.7390 -1.1476  0.4675
  139OSM    H9S15168   1.848   1.239   7.371 -1.2751  1.4065 -0.8573
  139OSM    H9T15169   1.712   1.115   7.362 -1.9458 -0.8408  0.4737
  139OSM   C10S15170   1.704   1.242   7.531 -0.7372 -0.4451  0.0190
  139OSM   H10S15171   1.682   1.350   7.543  2.3446  0.2533 -0.3381
  139OSM   H10T15172   1.790   1.228   7.600 -0.3177  2.4889  0.1420
  139OSM   C11S15173   1.589   1.155   7.574  0.2677 -0.5126 -0.4216
  139OSM   H11S15174   1.623   1.050   7.562  1.6853  0.0218 -1.1945
  139OSM   H11T15175   1.504   1.173   7.505 -0.3636 -0.2310  0.4102
  139OSM   C12S15176   1.548   1.174   7.716  0.5890  0.2677 -0.0795
  139OSM   H12S15177   1.631   1.149   7.786  1.2069  0.9419 -0.5621
  139OSM   H12T15178   1.468   1.103   7.743  1.5787 -0.8661 -0.0625
  139OSM   C13S15179   1.508   1.317   7.745  1.0626 -0.8662 -0.0805
  139OSM   H13S15180   1.432   1.351   7.672  2.2337 -0.6617 -1.2166
  139OSM   H13T15181   1.588   1.392   7.728  0.0005  0.6258  1.3035
  139OSM   C14S15182   1.446   1.326   7.887  0.5453  0.2369  0.5862
  139OSM   H14S15183   1.370   1.246   7.897  1.0845 -0.6581 -2.0579
  139OSM   H14T15184   1.388   1.421   7.888 -1.9943 -1.2775  0.0734
  139OSM   C15S15185   1.550   1.346   7.996 -0.0707 -0.0303  0.4597
  139OSM   H15S15186   1.611   1.437   7.975 -1.4086  1.3775  2.3940
  139OSM   H15T15187   1.620   1.261   8.001 -0.6991 -0.6122 -0.6431
  139OSM   C16S15188   1.491   1.366   8.136  0.2702 -0.0834  0.4180
  139OSM   H16S15189   1.407   1.438   8.135  0.2736 -0.0885 -0.2089
  139OSM   H16T15190   1.564   1.416   8.204  0.5768 -0.8638  0.6811
  139OSM   C17S15191   1.441   1.237   8.209 -0.4231 -0.4371  0.0299
  139OSM   H17S15192   1.525   1.165   8.208 -0.0455  0.0130 -0.3673
  139OSM   H17T15193   1.358   1.201   8.144 -0.8381 -0.5008  0.5897
  139OSM   C18S15194   1.397   1.255   8.352  0.1195 -0.0874  0.5248
  139OSM   H18S15195   1.296   1.301   8.354 -0.0270 -0.4187  0.7897
  139OSM   H18T15196   1.466   1.318   8.412 -0.2093  0.0605  0.7467
  139OSM   H18U15197   1.388   1.158   8.406  0.8396 -0.1391  0.5573
  139OSM    C1F15198   1.910   1.571   6.650  0.1551  0.1216  0.3898
  139OSM     OF15199   1.843   1.638   6.573  0.0903 -0.4067  0.4968
  139OSM    C2F15200   2.036   1.629   6.715  0.1668 -0.2575 -0.0231
  139OSM    H2F15201   2.090   1.682   6.633 -1.4060 -0.2833 -1.0877
  139OSM    H2G15202   2.104   1.545   6.741 -0.5764 -1.4004 -1.6685
  139OSM    C3F15203   2.015   1.733   6.826  0.3161  0.5600  0.0697
  139OSM    H3F15204   1.963   1.684   6.911  3.5490 -0.8251  1.3202
  139OSM    H3G15205   1.952   1.814   6.783 -1.8444 -1.6404 -1.0150
  139OSM    C4F15206   2.144   1.808   6.874 -0.0991  0.3868  1.0801
  139OSM    H4F15207   2.171   1.872   6.787 -0.0339 -1.9211 -0.6738
  139OSM    H4G15208   2.225   1.742   6.913  0.2968  0.0116 -0.3431
  139OSM    C5F15209   2.118   1.886   7.002  0.2527  0.6425  0.2700
  139OSM    H5F15210   2.112   1.821   7.092 -0.4910 -0.4998 -0.5861
  139OSM    H5G15211   2.031   1.955   6.993  1.2939  2.0478  0.8926
  139OSM    C6F15212   2.230   1.984   7.023  0.7590 -1.2273  0.1921
  139OSM    H6F15213   2.259   2.035   6.929 -2.6092  0.0897 -0.1976
  139OSM    H6G15214   2.316   1.932   7.071  1.4815  0.8810  1.2281
  139OSM    C7F15215   2.207   2.094   7.135  0.4414 -0.4809 -0.0899
  139OSM    H7F15216   2.107   2.137   7.115  0.9659  0.8701  0.1397
  139OSM    H7G15217   2.292   2.161   7.111 -2.0720  1.8905 -2.6383
  139OSM    C8F15218   2.209   2.048   7.278  0.0888  0.0057  0.4134
  139OSM    H8F15219   2.290   1.973   7.291  0.0226 -0.3108 -0.9460
  139OSM    H8G15220   2.116   1.989   7.296  0.0196 -0.7826 -2.2908
  139OSM    C9F15221   2.226   2.160   7.378  0.1164 -0.4721  0.6911
  139OSM    H9F15222   2.200   2.263   7.350  1.3343 -0.6231 -1.1337
  139OSM   C10F15223   2.282   2.144   7.503  0.0285 -0.0935 -0.0236
  139OSM   H10F15224   2.293   2.235   7.565  3.1971  0.0846 -0.7836
  139OSM   C11F15225   2.334   2.019   7.567  0.4596 -0.1627  0.3438
  139OSM   H11F15226   2.443   2.029   7.584  0.7507 -0.6485 -1.1949
  139OSM   H11G15227   2.315   1.934   7.498  1.8754  1.3076 -1.9290
  139OSM   C12F15228   2.259   1.974   7.700  0.3040 -0.1649 -0.5940
  139OSM   H12F15229   2.296   1.884   7.755  0.7145 -1.0643 -2.3138
  139OSM   H12G15230   2.159   1.935   7.669 -1.3002  2.8901  0.5661
  139OSM   C13F15231   2.245   2.079   7.810  0.0097  0.1262  0.2043
  139OSM   H13F15232   2.211   2.171   7.758  1.1427 -1.4833 -3.5278
  139OSM   H13G15233   2.340   2.100   7.865 -0.3472 -0.2505  0.9680
  139OSM   C14F15234   2.157   2.045   7.920  0.4190  0.3997  0.3911
  139OSM   H14F15235   2.073   1.985   7.880  1.2180  0.0184 -0.7168
  139OSM   H14G15236   2.111   2.138   7.962 -0.2941  0.9585 -1.5685
  139OSM   C15F15237   2.242   1.979   8.033 -0.1186 -0.5281  0.6650
  139OSM   H15F15238   2.324   2.048   8.063 -1.7164  1.3819  0.7874
  139OSM   H15G15239   2.299   1.891   7.997  1.7541  0.0659  2.0744
  139OSM   C16F15240   2.157   1.948   8.151  0.4369  1.0283 -0.2182
  139OSM   H16F15241   2.229   1.899   8.220  1.0445 -1.0723 -2.2853
  139OSM   H16G15242   2.072   1.885   8.119  0.4136  0.9536 -0.0112
  139OSM   C17F15243   2.101   2.070   8.223  0.6156 -0.2484  0.5430
  139OSM   H17F15244   2.050   2.146   8.162 -0.9986  0.3873  2.6327
  139OSM   H17G15245   2.187   2.128   8.264  1.4452  2.3243 -4.5089
  139OSM   C18F15246   2.014   2.026   8.336 -0.4347  0.8607  0.0584
  139OSM   H18F15247   2.051   1.935   8.388  0.5571  0.0996 -1.9390
  139OSM   H18G15248   1.916   1.992   8.297 -0.9338  1.9881  0.3102
  139OSM   H18H15249   1.995   2.106   8.411  3.4845 -0.9407  3.1749
  140OSM      N15250   2.372   3.349   6.626  0.4608 -0.1602  0.5857
  140OSM    C1515251   2.317   3.220   6.584 -0.3301 -1.0344 -0.4229
  140OSM   H15A15252   2.365   3.144   6.643  0.3977 -2.2342 -2.5032
  140OSM   H15B15253   2.341   3.206   6.480 -0.8403  2.2155 -1.0571
  140OSM   H15C15254   2.210   3.202   6.580 -0.8847  2.0801 -1.0711
  140OSM    C1415255   2.321   3.454   6.535 -0.0006 -0.6186  0.2029
  140OSM   H14A15256   2.368   3.442   6.439 -1.3289 -0.5276 -0.4788
  140OSM   H14B15257   2.328   3.554   6.574 -1.8715 -0.7390  0.9183
  140OSM   H14C15258   2.214   3.441   6.521  0.2171 -0.5287 -1.7033
  140OSM    C1315259   2.329   3.390   6.763 -0.5864  0.4121  0.3443
  140OSM   H13A15260   2.374   3.338   6.846  2.0357  2.6789  0.3956
  140OSM   H13B15261   2.221   3.386   6.768 -0.7105 -1.3231 -2.5452
  140OSM   H13C15262   2.358   3.493   6.777  2.3789 -0.3662  0.0715
  140OSM    C1215263   2.525   3.347   6.618  0.3313  0.2709 -1.2289
  140OSM   H12A15264   2.566   3.269   6.680  2.3244  1.1947 -1.3420
  140OSM   H12B15265   2.552   3.441   6.664  0.5847 -0.2254 -0.3372
  140OSM    C1115266   2.585   3.345   6.474  0.1147 -0.3868 -0.1492
  140OSM   H11A15267   2.695   3.329   6.482  0.4458  0.8404 -1.8204
  140OSM   H11B15268   2.571   3.444   6.425  0.5263 -0.7476 -1.0215
  140OSM      P15269   2.599   3.214   6.251 -0.4663  0.2211 -0.2794
  140OSM    O1315270   2.497   3.201   6.145 -0.0344  0.2785  0.4874
  140OSM    O1415271   2.721   3.299   6.223  0.5625 -0.2287  1.5190
  140OSM    O1115272   2.645   3.061   6.276 -0.0798 -0.4256 -0.5518
  140OSM    O1215273   2.521   3.253   6.384  0.8295  0.0988 -0.1899
  140OSM    C1S15274   2.697   3.010   6.397  0.5453  0.6242 -0.3255
  140OSM    H1S15275   2.752   3.088   6.454  0.2612  0.1057  0.6845
  140OSM    H1T15276   2.769   2.927   6.381  1.6232  1.4788  0.0376
  140OSM     NF15277   2.658   2.929   6.619  0.9557 -0.1274  0.3149
  140OSM    HNF15278   2.665   2.833   6.643  0.8434 -0.0953  0.4808
  140OSM    C2S15279   2.586   2.960   6.496 -0.0663  0.4034  0.1575
  140OSM    H2S15280   2.517   3.045   6.509 -0.9449 -0.4338  1.0677
  140OSM    C3S15281   2.503   2.838   6.444  0.4393 -0.1304 -0.4487
  140OSM    H3S15282   2.564   2.748   6.467 -0.6919 -0.8790 -0.3071
  140OSM     O315283   2.477   2.850   6.305 -0.1645 -0.0229 -0.5183
  140OSM    HO315284   2.530   2.921   6.266  0.9075  0.7542  2.2384
  140OSM    C4S15285   2.374   2.814   6.525  0.6696 -0.9467 -0.2386
  140OSM    H4S15286   2.383   2.745   6.610  0.8792 -0.7244 -0.0822
  140OSM    C5S15287   2.251   2.874   6.499  0.5216  0.0789  0.5187
  140OSM    H5S15288   2.241   2.943   6.414 -3.1881  0.0444  0.8509
  140OSM    C6S15289   2.128   2.857   6.579 -0.2554 -0.7243 -0.1751
  140OSM    H6S15290   2.068   2.770   6.545 -0.6006 -0.2851 -0.7039
  140OSM    H6T15291   2.058   2.943   6.564  0.2571 -0.6204 -2.1915
  140OSM    C7S15292   2.146   2.843   6.729  0.2751  0.4745 -0.1412
  140OSM    H7S15293   2.179   2.741   6.758  1.4047  0.8151 -0.1731
  140OSM    H7T15294   2.053   2.860   6.786  0.2103  0.0040 -0.1103
  140OSM    C8S15295   2.233   2.950   6.792 -0.1412  0.2452  0.4046
  140OSM    H8S15296   2.168   3.040   6.803 -2.9805 -1.2001 -3.5694
  140OSM    H8T15297   2.319   2.964   6.722  0.0735 -0.1975  0.5822
  140OSM    C9S15298   2.284   2.918   6.929  0.0138  0.9917  0.5258
  140OSM    H9S15299   2.357   2.835   6.921 -0.1045  1.0291 -0.9390
  140OSM    H9T15300   2.195   2.892   6.990 -0.0922  1.2490  0.4826
  140OSM   C10S15301   2.348   3.037   6.989  0.2205  0.1498 -0.0847
  140OSM   H10S15302   2.281   3.125   7.000 -2.4835 -1.7978 -0.5933
  140OSM   H10T15303   2.438   3.069   6.932 -0.1088 -1.3284 -1.4632
  140OSM   C11S15304   2.392   3.003   7.129 -0.0877  0.4596 -0.1119
  140OSM   H11S15305   2.463   2.918   7.119 -0.3449 -0.1827  3.1194
  140OSM   H11T15306   2.306   2.961   7.184 -0.1535 -1.2524 -1.4847
  140OSM   C12S15307   2.449   3.114   7.210  0.1202 -0.6804  0.5494
  140OSM   H12S15308   2.390   3.208   7.208  2.5337  0.8486 -0.4477
  140OSM   H12T15309   2.547   3.139   7.163 -0.5342  1.0061  0.0700
  140OSM   C13S15310   2.483   3.062   7.346  0.3375 -0.2130  0.2363
  140OSM   H13S15311   2.498   2.952   7.348  1.0954 -0.0921  1.6371
  140OSM   H13T15312   2.388   3.062   7.404 -1.0011  2.2907 -1.8567
  140OSM   C14S15313   2.595   3.143   7.408  0.0140 -0.9504 -0.0457
  140OSM   H14S15314   2.586   3.249   7.378 -0.1069 -0.7717  0.6153
  140OSM   H14T15315   2.696   3.118   7.369  0.5573  1.5657 -0.3021
  140OSM   C15S15316   2.601   3.131   7.559  0.6385 -0.4925  0.2919
  140OSM   H15S15317   2.590   3.031   7.606  3.2258  0.2767  2.6677
  140OSM   H15T15318   2.521   3.197   7.598 -0.4045  0.0801 -2.6414
  140OSM   C16S15319   2.742   3.160   7.610 -0.0479  0.3139  0.3092
  140OSM   H16S15320   2.771   3.261   7.572  0.1542  0.0510 -0.2431
  140OSM   H16T15321   2.823   3.101   7.562  2.6944  2.4121  2.1912
  140OSM   C17S15322   2.771   3.148   7.763  0.1746 -0.5762 -0.8209
  140OSM   H17S15323   2.748   3.041   7.784 -2.1358  0.0366  0.0029
  140OSM   H17T15324   2.690   3.201   7.819  1.4663 -2.4816  3.0304
  140OSM   C18S15325   2.903   3.204   7.811  0.4592 -0.0072 -0.1699
  140OSM   H18S15326   2.977   3.127   7.840  2.6019  2.0898  0.0681
  140OSM   H18T15327   2.876   3.266   7.900 -0.9923 -1.5967  0.5274
  140OSM   H18U15328   2.939   3.272   7.731  1.9824  2.3208  2.4085
  140OSM    C1F15329   2.709   3.014   6.705 -0.4385 -0.1536  0.2120
  140OSM     OF15330   2.689   3.130   6.701  0.0220  0.3357 -0.5632
  140OSM    C2F15331   2.788   2.952   6.815 -0.0229 -0.5066 -0.1121
  140OSM    H2F15332   2.893   2.989   6.815 -0.5659  1.0928  1.1284
  140OSM    H2G15333   2.805   2.843   6.805  0.8410 -0.2317 -1.8140
  140OSM    C3F15334   2.735   2.982   6.956 -0.1804 -0.6364 -0.6656
  140OSM    H3F15335   2.633   2.941   6.972 -1.3835  1.7595 -1.9717
  140OSM    H3G15336   2.724   3.093   6.952 -2.0225 -0.7360  0.8298
  140OSM    C4F15337   2.823   2.938   7.078  0.2554 -0.1144 -0.3377
  140OSM    H4F15338   2.855   2.835   7.048  0.6033 -0.6547  1.7873
  140OSM    H4G15339   2.759   2.930   7.169  1.6869  3.1973  1.0314
  140OSM    C5F15340   2.948   3.021   7.102  0.5729  0.0525 -1.0013
  140OSM    H5F15341   2.914   3.125   7.122 -0.2646 -0.4210  0.1072
  140OSM    H5G15342   3.000   3.034   7.005  0.5935 -4.3214 -1.6849
  140OSM    C6F15343   3.052   2.974   7.202 -0.1117  0.1189  0.3737
  140OSM    H6F15344   3.144   3.028   7.170  0.0538 -1.4293 -1.9334
  140OSM    H6G15345   3.061   2.864   7.186 -0.0696  0.3229 -1.1634
  140OSM    C7F15346   3.012   3.008   7.344  0.1607  0.0531  0.3037
  140OSM    H7F15347   2.945   2.922   7.368 -0.4366 -0.4934 -3.0849
  140OSM    H7G15348   2.942   3.094   7.348  1.5914  1.4041 -2.2132
  140OSM    C8F15349   3.133   3.025   7.441  0.8965 -0.0858  0.2905
  140OSM    H8F15350   3.081   3.040   7.538  0.4103 -0.4731  0.0947
  140OSM    H8G15351   3.191   3.118   7.421 -0.1891  0.5780  0.1956
  140OSM    C9F15352   3.216   2.898   7.447 -0.3537 -0.5330  0.5040
  140OSM    H9F15353   3.218   2.830   7.361  2.4887 -1.9487  1.6430
  140OSM   C10F15354   3.286   2.864   7.553  0.5139 -0.4013 -0.4112
  140OSM   H10F15355   3.345   2.771   7.544 -1.9285 -2.0391  0.0634
  140OSM   C11F15356   3.305   2.935   7.683  0.2729  0.0062  0.5288
  140OSM   H11F15357   3.243   3.027   7.679 -1.8240 -1.4538 -1.7982
  140OSM   H11G15358   3.412   2.961   7.698 -0.1897  3.0205 -1.1305
  140OSM   C12F15359   3.233   2.858   7.803  0.2146 -0.4661 -0.2961
  140OSM   H12F15360   3.265   2.751   7.802  0.1900 -0.4873  0.7245
  140OSM   H12G15361   3.125   2.861   7.778  0.2289  0.4936 -0.2577
  140OSM   C13F15362   3.254   2.922   7.939 -0.4758 -0.4067 -0.1359
  140OSM   H13F15363   3.201   3.018   7.921  1.5229  1.2057  2.1882
  140OSM   H13G15364   3.357   2.951   7.969 -0.1958 -0.6601 -0.8555
  140OSM   C14F15365   3.176   2.849   8.046 -0.9176 -0.2543 -0.3951
  140OSM   H14F15366   3.084   2.806   8.001 -1.6889 -0.7289  1.6052
  140OSM   H14G15367   3.137   2.932   8.107 -0.1072 -0.3925  0.3275
  140OSM   C15F15368   3.257   2.747   8.120 -0.4850  0.7521  0.1467
  140OSM   H15F15369   3.340   2.793   8.178  0.1241 -0.3401  0.1591
  140OSM   H15G15370   3.315   2.683   8.051 -1.0417  1.2191 -0.7618
  140OSM   C16F15371   3.172   2.659   8.204  0.2128  0.3861 -0.2249
  140OSM   H16F15372   3.234   2.585   8.259 -0.9537  0.8260  1.7476
  140OSM   H16G15373   3.081   2.620   8.153  0.5883 -0.2993 -0.3803
  140OSM   C17F15374   3.124   2.744   8.327 -0.4388  0.6579  1.4128
  140OSM   H17F15375   3.075   2.830   8.276  2.9796  1.2349 -1.0469
  140OSM   H17G15376   3.205   2.787   8.389 -1.6071 -1.6830  4.7019
  140OSM   C18F15377   3.021   2.673   8.417 -0.1180 -0.5103 -0.0634
  140OSM   H18F15378   3.001   2.731   8.509  0.4584  0.0616 -0.2949
  140OSM   H18G15379   3.071   2.589   8.470 -1.6590 -0.1837  1.9493
  140OSM   H18H15380   2.931   2.640   8.361 -0.8780  0.4950  0.5396
  141OSM      N15381   1.055   4.939   6.096  0.2693 -0.1785  0.2225
  141OSM    C1515382   1.200   4.926   6.068 -0.0925 -0.9460  0.2291
  141OSM   H15A15383   1.216   4.934   5.962 -1.6983  0.3722  0.0650
  141OSM   H15B15384   1.243   4.838   6.113  2.0196  0.7789  1.6663
  141OSM   H15C15385   1.237   5.010   6.123 -2.6206  0.4433 -0.0999
  141OSM    C1415386   0.983   4.822   6.037  0.6842  0.2011  0.9064
  141OSM   H14A15387   0.885   4.814   6.080  0.0462  0.1282 -0.5263
  141OSM   H14B15388   1.043   4.733   6.052  1.3431  0.6019  0.6923
  141OSM   H14C15389   0.956   4.841   5.934  1.5067 -0.1783  0.6141
  141OSM    C1315390   1.022   4.933   6.243 -0.1949 -0.3227 -0.0753
  141OSM   H13A15391   1.064   4.843   6.285 -1.2684 -0.7006  0.1926
  141OSM   H13B15392   0.915   4.935   6.257 -0.1256 -0.4290  0.4623
  141OSM   H13C15393   1.069   5.013   6.299  1.7107 -1.4580  0.0135
  141OSM    C1215394   1.014   5.070   6.029 -0.5175 -0.2451  0.1214
  141OSM   H12A15395   0.906   5.064   6.027 -0.6312  1.4427  0.2588
  141OSM   H12B15396   1.045   5.071   5.926  1.5601 -0.0090  0.7184
  141OSM    C1115397   1.059   5.197   6.109  0.0586 -0.0597  0.2563
  141OSM   H11A15398   1.010   5.205   6.208 -3.3107 -0.9976 -1.2650
  141OSM   H11B15399   1.023   5.283   6.050  1.7634  1.6426  1.6316
  141OSM      P15400   1.261   5.256   6.260 -0.2450  0.3848  0.0360
  141OSM    O1315401   1.409   5.250   6.233 -0.2985 -0.4403 -0.4186
  141OSM    O1415402   1.203   5.387   6.302 -0.5544  0.3386  0.2389
  141OSM    O1115403   1.214   5.138   6.351 -0.6277  0.0189 -0.4690
  141OSM    O1215404   1.201   5.209   6.121 -0.0965 -0.1057 -0.1340
  141OSM    C1S15405   1.276   5.129   6.477  0.2352 -0.0874  0.2420
  141OSM    H1S15406   1.383   5.161   6.473 -0.1147  1.0419 -0.1835
  141OSM    H1T15407   1.286   5.023   6.509  1.7015 -0.9895 -3.0128
  141OSM     NF15408   1.296   5.192   6.702  0.1091 -0.0402  0.0235
  141OSM    HNF15409   1.269   5.123   6.769 -0.6841 -0.8006 -1.0583
  141OSM    C2S15410   1.204   5.207   6.586 -0.6932  0.1348 -0.5892
  141OSM    H2S15411   1.192   5.314   6.559 -0.5959  0.0130 -1.1250
  141OSM    C3S15412   1.058   5.149   6.598 -0.5668  0.2115 -0.2674
  141OSM    H3S15413   1.070   5.040   6.618 -0.3847  0.4348  0.9099
  141OSM     O315414   0.976   5.151   6.479 -0.4441 -0.2904  0.5869
  141OSM    HO315415   1.028   5.194   6.411  0.5718 -0.9602  0.9289
  141OSM    C4S15416   0.984   5.203   6.720  0.1825 -0.5528 -0.4039
  141OSM    H4S15417   1.013   5.159   6.816  0.5500 -0.1820 -0.3411
  141OSM    C5S15418   0.892   5.301   6.722 -0.4589  0.0868  1.0872
  141OSM    H5S15419   0.871   5.357   6.630  0.0398 -1.4196  0.0361
  141OSM    C6S15420   0.828   5.362   6.846  0.5029  0.3579 -0.0931
  141OSM    H6S15421   0.717   5.374   6.842  0.5236 -0.1857 -2.7851
  141OSM    H6T15422   0.857   5.469   6.855  0.4785  0.2554  1.3392
  141OSM    C7S15423   0.847   5.296   6.983 -0.2861 -1.1821  0.6964
  141OSM    H7S15424   0.956   5.275   6.993 -0.0671 -0.1393  0.5667
  141OSM    H7T15425   0.793   5.199   6.982 -0.0858 -1.2990 -1.6649
  141OSM    C8S15426   0.809   5.382   7.106 -0.1704 -0.0305  0.3197
  141OSM    H8S15427   0.701   5.407   7.092  0.0136 -0.0849 -1.1845
  141OSM    H8T15428   0.859   5.480   7.093 -1.3629  0.4834 -0.5035
  141OSM    C9S15429   0.837   5.302   7.235 -0.4243  0.4220  0.4368
  141OSM    H9S15430   0.947   5.286   7.237 -0.4099  0.5235  0.4901
  141OSM    H9T15431   0.776   5.210   7.228  0.0274  0.1860 -0.4341
  141OSM   C10S15432   0.798   5.377   7.360 -0.5375 -0.2014  0.1002
  141OSM   H10S15433   0.689   5.396   7.362 -0.1945  1.8381  0.4377
  141OSM   H10T15434   0.845   5.478   7.365  2.3781 -1.4387 -0.9672
  141OSM   C11S15435   0.837   5.312   7.493 -0.0078 -0.4480 -0.8578
  141OSM   H11S15436   0.946   5.315   7.512  0.2132 -1.0691 -1.9665
  141OSM   H11T15437   0.809   5.204   7.488 -0.0548 -0.4979  0.2725
  141OSM   C12S15438   0.767   5.381   7.620 -0.3374 -0.3289 -0.0069
  141OSM   H12S15439   0.657   5.393   7.614 -0.3721  0.4993  1.9411
  141OSM   H12T15440   0.800   5.487   7.616  1.5251 -0.9311 -1.9680
  141OSM   C13S15441   0.789   5.321   7.761  0.3013  0.3462  0.0478
  141OSM   H13S15442   0.887   5.360   7.796 -0.0556 -1.0292  2.7045
  141OSM   H13T15443   0.786   5.210   7.759 -0.6037  0.2576  3.4111
  141OSM   C14S15444   0.686   5.366   7.863  0.5252  0.4456 -0.4361
  141OSM   H14S15445   0.587   5.319   7.848 -0.4582  1.9861  1.0371
  141OSM   H14T15446   0.674   5.475   7.850  1.8387  0.9663  2.2874
  141OSM   C15S15447   0.725   5.356   8.013 -0.0837 -0.3521  0.6739
  141OSM   H15S15448   0.654   5.420   8.069 -0.2815 -1.1179  1.3005
  141OSM   H15T15449   0.825   5.405   8.020 -0.4100  0.5476 -0.7017
  141OSM   C16S15450   0.747   5.206   8.056 -0.9115 -0.2055 -0.5192
  141OSM   H16S15451   0.814   5.143   7.994  0.6034 -0.6171  1.4792
  141OSM   H16T15452   0.648   5.155   8.056 -1.2971  0.4973  1.6205
  141OSM   C17S15453   0.804   5.169   8.195 -0.4803 -0.4906  0.8303
  141OSM   H17S15454   0.911   5.198   8.201 -0.1799 -1.5041  0.5085
  141OSM   H17T15455   0.807   5.060   8.213 -2.1083 -0.7555 -0.3551
  141OSM   C18S15456   0.734   5.236   8.312  0.5648 -0.1142  0.5066
  141OSM   H18S15457   0.783   5.217   8.409  0.2093 -1.4355  0.4338
  141OSM   H18T15458   0.632   5.193   8.305  0.4350  0.0672  1.3550
  141OSM   H18U15459   0.735   5.345   8.290  3.5474 -0.1283  0.3229
  141OSM    C1F15460   1.409   5.251   6.710  0.0819  0.0526 -0.3571
  141OSM     OF15461   1.436   5.340   6.635  0.0435 -0.0206 -0.0629
  141OSM    C2F15462   1.511   5.198   6.814 -0.2476 -0.5137  0.4171
  141OSM    H2F15463   1.611   5.177   6.771 -1.2913 -0.4414 -2.0966
  141OSM    H2G15464   1.466   5.110   6.866  0.8324 -0.9804  0.5755
  141OSM    C3F15465   1.530   5.300   6.925  0.0777  0.0282  0.5591
  141OSM    H3F15466   1.432   5.336   6.963 -0.1788 -0.8794  0.7860
  141OSM    H3G15467   1.587   5.391   6.897 -2.6548  2.0842  1.4532
  141OSM    C4F15468   1.620   5.237   7.032  0.5512 -0.3438 -0.1320
  141OSM    H4F15469   1.729   5.244   7.013  0.5437  0.7584  0.2241
  141OSM    H4G15470   1.591   5.129   7.036 -0.4662 -0.0061  3.2177
  141OSM    C5F15471   1.583   5.301   7.171  0.2579  0.5193 -0.2042
  141OSM    H5F15472   1.475   5.286   7.192  0.7288 -1.7568  0.6740
  141OSM    H5G15473   1.599   5.408   7.146 -1.6544  0.0377 -3.8493
  141OSM    C6F15474   1.670   5.237   7.282  0.8140  0.3631 -0.1985
  141OSM    H6F15475   1.752   5.190   7.224  1.0642  0.2102  0.2805
  141OSM    H6G15476   1.601   5.163   7.327 -1.4918  4.0616  2.6102
  141OSM    C7F15477   1.716   5.343   7.390 -0.2756  0.4406 -0.4272
  141OSM    H7F15478   1.625   5.392   7.431 -0.5274 -0.8043  0.5562
  141OSM    H7G15479   1.782   5.403   7.324 -0.6895  0.8226 -0.4950
  141OSM    C8F15480   1.803   5.275   7.498 -0.1638 -0.1930  0.8263
  141OSM    H8F15481   1.894   5.228   7.454  0.2723 -0.7284  2.2635
  141OSM    H8G15482   1.743   5.202   7.557  0.7279  0.6942  2.8719
  141OSM    C9F15483   1.843   5.387   7.585 -0.8104 -0.4379  0.5782
  141OSM    H9F15484   1.917   5.463   7.554  0.9676 -2.0955  0.7122
  141OSM   C10F15485   1.805   5.406   7.711  0.0041 -0.8727 -0.3747
  141OSM   H10F15486   1.843   5.493   7.766  1.4096 -1.8642  0.2514
  141OSM   C11F15487   1.719   5.329   7.803 -0.6736 -0.1258  0.1447
  141OSM   H11F15488   1.686   5.230   7.765 -2.8713  0.6763 -0.1094
  141OSM   H11G15489   1.626   5.388   7.816 -1.4772 -0.9789 -1.6379
  141OSM   C12F15490   1.764   5.283   7.945  0.2468 -1.0735  0.4288
  141OSM   H12F15491   1.749   5.371   8.011 -1.6880 -1.5988  0.7303
  141OSM   H12G15492   1.869   5.246   7.944  0.3798 -0.6966 -2.0209
  141OSM   C13F15493   1.687   5.166   8.013 -0.0989 -0.1828  0.3374
  141OSM   H13F15494   1.691   5.084   7.938 -0.1498  0.6173 -0.5445
  141OSM   H13G15495   1.581   5.202   8.017 -0.3940 -1.0572  0.5190
  141OSM   C14F15496   1.747   5.133   8.149 -0.2365 -0.0075 -0.3256
  141OSM   H14F15497   1.753   5.220   8.217  1.0288 -0.5217  0.2489
  141OSM   H14G15498   1.852   5.099   8.137 -0.5107 -2.1625  2.5606
  141OSM   C15F15499   1.665   5.029   8.227  0.1111 -0.4331  0.7055
  141OSM   H15F15500   1.666   4.939   8.162  0.6794 -0.2583  0.4642
  141OSM   H15G15501   1.561   5.064   8.243 -0.0522 -0.6703  0.1816
  141OSM   C16F15502   1.737   4.979   8.355  0.5465  0.2409 -0.5344
  141OSM   H16F15503   1.786   5.061   8.411  0.5886  0.5969 -1.0852
  141OSM   H16G15504   1.810   4.909   8.307  0.9514 -0.9717  1.7953
  141OSM   C17F15505   1.640   4.903   8.446 -0.6420  0.2850  0.7681
  141OSM   H17F15506   1.604   4.814   8.391  1.2429 -0.0182 -0.0110
  141OSM   H17G15507   1.558   4.975   8.468 -2.2356 -1.3236  0.1950
  141OSM   C18F15508   1.706   4.849   8.569  0.3945 -0.5011  0.3250
  141OSM   H18F15509   1.765   4.757   8.546  0.4344 -0.5813  0.7438
  141OSM   H18G15510   1.640   4.822   8.654  0.9396 -0.6649  0.6994
  141OSM   H18H15511   1.764   4.929   8.620 -2.9747  0.8925  2.0661
  142OSM      N15512   1.957   0.130   6.050 -0.7095  0.3493 -0.5997
  142OSM    C1515513   1.865   0.128   5.932  0.0380 -0.3297  0.3431
  142OSM   H15A15514   1.824   0.227   5.924 -1.0576 -0.5288  2.8434
  142OSM   H15B15515   1.782   0.061   5.947  0.7320 -0.4979  3.9868
  142OSM   H15C15516   1.919   0.117   5.839  2.8040 -0.2395  1.8586
  142OSM    C1415517   2.022  -0.012   6.060 -0.2763 -0.1723 -0.3739
  142OSM   H14A15518   2.055  -0.043   5.961 -0.2779  0.4921 -0.5879
  142OSM   H14B15519   1.950  -0.081   6.100  0.5631  0.3902  2.2005
  142OSM   H14C15520   2.103  -0.007   6.131  0.2031  0.8761 -0.9862
  142OSM    C1315521   2.066   0.226   6.023  0.6298 -0.3102 -0.1659
  142OSM   H13A15522   2.033   0.321   5.983 -2.2103 -1.5511 -0.8943
  142OSM   H13B15523   2.139   0.178   5.960  0.3928 -0.5582 -0.2518
  142OSM   H13C15524   2.120   0.246   6.115  2.8079  1.4506 -1.7391
  142OSM    C1215525   1.875   0.159   6.170 -0.6843  0.0030  0.5078
  142OSM   H12A15526   1.793   0.089   6.168 -0.7445  0.1033 -1.1381
  142OSM   H12B15527   1.846   0.262   6.161  2.4097  0.8441 -0.4384
  142OSM    C1115528   1.939   0.155   6.310 -1.0098  0.0886 -0.6646
  142OSM   H11A15529   1.994   0.059   6.319  0.7278  1.1878  0.7575
  142OSM   H11B15530   1.864   0.147   6.391 -0.4357  1.1653 -0.0236
  142OSM      P15531   1.964   0.411   6.355 -0.1156 -0.2929  0.0290
  142OSM    O1315532   2.065   0.514   6.369  0.1319 -0.6805 -0.1017
  142OSM    O1415533   1.857   0.441   6.251 -0.6032  0.1320  0.2749
  142OSM    O1115534   1.882   0.394   6.488 -0.3770 -0.0695  0.4403
  142OSM    O1215535   2.025   0.268   6.324  0.7442 -0.2035 -0.6359
  142OSM    C1S15536   1.963   0.353   6.602 -0.5045 -0.4898  0.0028
  142OSM    H1S15537   2.043   0.427   6.619 -0.6289 -1.0264  3.4476
  142OSM    H1T15538   2.004   0.252   6.580  0.6237  0.2165 -1.2128
  142OSM     NF15539   1.968   0.334   6.854  0.1335 -0.2042  0.2956
  142OSM    HNF15540   1.960   0.245   6.899 -1.5879  0.3958  1.2317
  142OSM    C2S15541   1.877   0.352   6.739  0.3356 -0.0150  0.9140
  142OSM    H2S15542   1.829   0.452   6.747 -2.3241 -1.3191  1.9353
  142OSM    C3S15543   1.763   0.249   6.726 -0.6406  0.6745  0.7168
  142OSM    H3S15544   1.812   0.150   6.712  1.4345  1.8129 -0.3006
  142OSM     O315545   1.673   0.270   6.622  0.2402  0.8126  0.1875
  142OSM    HO315546   1.708   0.335   6.560 -3.2332  1.3966 -1.2818
  142OSM    C4S15547   1.685   0.247   6.854 -0.0995  0.3896  0.0028
  142OSM    H4S15548   1.656   0.349   6.884  0.1721  0.3913  0.2632
  142OSM    C5S15549   1.647   0.135   6.922 -0.5675 -0.2333  0.2685
  142OSM    H5S15550   1.694   0.044   6.882 -1.0173 -0.5898  0.5431
  142OSM    C6S15551   1.570   0.122   7.051  0.0559  0.2096  0.5985
  142OSM    H6S15552   1.477   0.065   7.028 -0.4222  1.4268 -0.6337
  142OSM    H6T15553   1.538   0.221   7.090  0.7837  0.9940 -0.7486
  142OSM    C7S15554   1.660   0.070   7.161 -0.2971  0.2797 -0.2600
  142OSM    H7S15555   1.741   0.144   7.176  2.0257 -1.4167 -3.5293
  142OSM    H7T15556   1.713  -0.019   7.120 -0.1771  0.4266 -0.4263
  142OSM    C8S15557   1.583   0.043   7.292 -0.1936  0.5181 -0.8553
  142OSM    H8S15558   1.511  -0.040   7.282 -0.2012  0.2687  1.0376
  142OSM    H8T15559   1.517   0.126   7.327 -1.5578 -0.3467 -1.3556
  142OSM    C9S15560   1.672  -0.002   7.413  0.0712  0.0094 -0.1302
  142OSM    H9S15561   1.748   0.075   7.437 -0.1348  0.3216 -0.4645
  142OSM    H9T15562   1.726  -0.097   7.394  1.0655  0.5508 -0.0424
  142OSM   C10S15563   1.583  -0.023   7.537 -0.5157  0.0474 -0.3124
  142OSM   H10S15564   1.516  -0.111   7.527  0.4673 -0.9482  1.4930
  142OSM   H10T15565   1.514   0.061   7.556 -1.3276 -0.5239 -0.6915
  142OSM   C11S15566   1.679  -0.050   7.651 -0.2308  0.4747 -0.6388
  142OSM   H11S15567   1.750   0.036   7.648 -0.3168  0.5099 -1.7915
  142OSM   H11T15568   1.739  -0.139   7.620  0.7292  1.1468 -0.7388
  142OSM   C12S15569   1.613  -0.062   7.792  0.4738 -0.6475 -0.1533
  142OSM   H12S15570   1.572  -0.164   7.809 -3.4785  0.9619  0.6449
  142OSM   H12T15571   1.525   0.006   7.781  0.5257 -0.1791  2.0137
  142OSM   C13S15572   1.712  -0.031   7.905  0.0096  0.1337  0.1545
  142OSM   H13S15573   1.759   0.070   7.908  4.7496 -1.9297 -0.6121
  142OSM   H13T15574   1.786  -0.111   7.883  0.2010  0.5364 -0.6963
  142OSM   C14S15575   1.663  -0.057   8.053  0.2809 -0.0274 -0.0368
  142OSM   H14S15576   1.617  -0.158   8.053  1.4650 -0.5747  1.1519
  142OSM   H14T15577   1.575   0.009   8.070 -1.1187 -1.1024 -2.8226
  142OSM   C15S15578   1.770  -0.022   8.156 -0.2667  0.8313  0.2994
  142OSM   H15S15579   1.785   0.088   8.155 -1.9349  1.0600 -0.3276
  142OSM   H15T15580   1.863  -0.079   8.131 -2.0257 -2.2233  0.5028
  142OSM   C16S15581   1.733  -0.060   8.296  0.5551 -0.1099  0.0418
  142OSM   H16S15582   1.719  -0.170   8.301  2.0647 -0.2374  1.9512
  142OSM   H16T15583   1.631  -0.028   8.329  0.8120  0.9444 -0.1839
  142OSM   C17S15584   1.824  -0.002   8.409  0.1017  0.4131 -0.4879
  142OSM   H17S15585   1.816   0.109   8.406 -0.2703  0.4018 -0.0842
  142OSM   H17T15586   1.927  -0.034   8.385  0.1068  0.5691 -0.6748
  142OSM   C18S15587   1.786  -0.057   8.551 -0.4660  0.6348 -0.3848
  142OSM   H18S15588   1.752  -0.162   8.542 -1.4682  1.0458 -1.5391
  142OSM   H18T15589   1.714   0.009   8.604  0.5324  1.0458  0.4911
  142OSM   H18U15590   1.883  -0.059   8.605 -0.0304  4.2298 -0.8974
  142OSM    C1F15591   2.048   0.428   6.909  0.4284 -0.3587 -0.2885
  142OSM     OF15592   2.061   0.533   6.847 -0.1178 -0.1699 -0.5055
  142OSM    C2F15593   2.116   0.411   7.041  0.6386  0.1740 -0.1283
  142OSM    H2F15594   2.224   0.435   7.037  0.2117  2.2132 -0.0329
  142OSM    H2G15595   2.099   0.308   7.080 -1.8348  0.1348 -1.2142
  142OSM    C3F15596   2.062   0.518   7.139 -0.1312  0.1412  0.5850
  142OSM    H3F15597   1.952   0.502   7.147 -0.3425 -0.2545 -2.5101
  142OSM    H3G15598   2.084   0.617   7.092 -1.3209 -0.3585 -1.1002
  142OSM    C4F15599   2.136   0.518   7.283 -0.3952  0.5197 -0.0159
  142OSM    H4F15600   2.104   0.610   7.338 -2.0516  2.2554 -3.7166
  142OSM    H4G15601   2.247   0.526   7.282 -0.1977 -1.9502 -2.0326
  142OSM    C5F15602   2.101   0.392   7.360  0.2888 -0.5781  0.2696
  142OSM    H5F15603   2.174   0.311   7.342 -1.7398 -2.4253  0.0268
  142OSM    H5G15604   1.997   0.353   7.349  0.0624 -0.0321  0.4695
  142OSM    C6F15605   2.098   0.421   7.508  0.6512  0.1835 -0.1567
  142OSM    H6F15606   2.062   0.523   7.532  1.0478 -0.0953  1.6851
  142OSM    H6G15607   2.199   0.422   7.554  0.1404 -1.0411  1.0423
  142OSM    C7F15608   2.012   0.325   7.584  0.9405  0.4361 -0.4557
  142OSM    H7F15609   2.055   0.224   7.564 -2.6466 -1.5048  1.1690
  142OSM    H7G15610   1.904   0.327   7.560  1.0831  0.0357 -1.1380
  142OSM    C8F15611   2.033   0.348   7.741 -0.4279 -0.7551  0.4960
  142OSM    H8F15612   2.139   0.323   7.766  0.7589  1.1082 -2.4646
  142OSM    H8G15613   1.967   0.271   7.787 -2.7487  0.0463 -1.4477
  142OSM    C9F15614   1.991   0.475   7.793 -0.2165 -0.1915 -0.2317
  142OSM    H9F15615   1.940   0.544   7.724 -2.6504 -0.9503  0.7478
  142OSM   C10F15616   2.002   0.513   7.918  0.1263 -0.7637 -0.9507
  142OSM   H10F15617   1.967   0.612   7.949  1.6841 -0.4985  0.0178
  142OSM   C11F15618   2.052   0.424   8.022 -0.3386  0.2021 -0.2956
  142OSM   H11F15619   2.138   0.468   8.077 -0.1433  1.9507 -1.9661
  142OSM   H11G15620   2.089   0.322   7.997  1.8277  0.9666 -0.2825
  142OSM   C12F15621   1.938   0.376   8.116 -0.1315  0.4679 -0.4033
  142OSM   H12F15622   1.962   0.276   8.158 -0.9949  0.0882 -0.8000
  142OSM   H12G15623   1.850   0.349   8.055 -0.2749  0.3649 -0.1559
  142OSM   C13F15624   1.893   0.476   8.224 -0.6168 -0.6569 -1.0069
  142OSM   H13F15625   1.849   0.567   8.176 -3.0784 -0.4205  1.5345
  142OSM   H13G15626   1.974   0.510   8.293 -0.0723 -0.2017 -1.8658
  142OSM   C14F15627   1.787   0.411   8.314  0.1384 -0.0696 -0.5644
  142OSM   H14F15628   1.842   0.333   8.370  0.8019  0.8241  0.0565
  142OSM   H14G15629   1.702   0.368   8.257  0.4030  1.0140 -1.7935
  142OSM   C15F15630   1.745   0.503   8.434 -0.4881  0.2517  0.5729
  142OSM   H15F15631   1.742   0.612   8.410 -0.2649 -0.2350 -1.8840
  142OSM   H15G15632   1.826   0.496   8.509  0.6656 -2.3523 -0.8480
  142OSM   C16F15633   1.607   0.477   8.496  0.3748 -0.2402  0.8657
  142OSM   H16F15634   1.514   0.519   8.454  0.0968 -0.4935  1.2199
  142OSM   H16G15635   1.629   0.524   8.594  0.4619  1.5064  0.0149
  142OSM   C17F15636   1.581   0.329   8.529 -0.4225 -0.4246  0.1728
  142OSM   H17F15637   1.679   0.283   8.557 -0.3755 -0.3675  0.0999
  142OSM   H17G15638   1.540   0.286   8.434 -0.3674  0.2840 -0.1736
  142OSM   C18F15639   1.489   0.305   8.644 -0.2193 -0.6795  0.0614
  142OSM   H18F15640   1.492   0.205   8.693 -0.4365 -0.4489  0.5470
  142OSM   H18G15641   1.393   0.320   8.591  0.4755  0.6869 -0.8468
  142OSM   H18H15642   1.511   0.382   8.720 -0.6538  1.2839 -1.7684
  143OSM      N15643   3.470   2.225   6.049  0.2260  0.1860  0.0001
  143OSM    C1515644   3.369   2.112   6.068 -0.5897 -0.4497  0.3366
  143OSM   H15A15645   3.415   2.026   6.113 -0.4701  0.6620  2.4247
  143OSM   H15B15646   3.305   2.090   5.984 -1.3046 -0.3641  0.8448
  143OSM   H15C15647   3.295   2.142   6.141 -0.9203 -3.2935  1.2091
  143OSM    C1415648   3.561   2.175   5.938 -0.1645  0.3839 -0.4051
  143OSM   H14A15649   3.617   2.254   5.889 -0.2102 -0.1093 -1.2579
  143OSM   H14B15650   3.509   2.126   5.857  1.3250  0.0453 -1.1524
  143OSM   H14C15651   3.626   2.095   5.968 -0.3238 -0.0919 -1.3428
  143OSM    C1315652   3.400   2.344   6.008 -0.3884  0.3514 -0.4319
  143OSM   H13A15653   3.367   2.328   5.906 -0.9792 -2.3548  0.1477
  143OSM   H13B15654   3.470   2.426   6.009 -0.6522  0.6093 -2.0726
  143OSM   H13C15655   3.310   2.371   6.060 -1.3051  0.0406 -1.8153
  143OSM    C1215656   3.550   2.265   6.176 -0.0050 -0.1419  0.4425
  143OSM   H12A15657   3.582   2.172   6.222 -0.8835  0.1196  1.6198
  143OSM   H12B15658   3.484   2.320   6.242  1.0038 -0.3279  1.6426
  143OSM    C1115659   3.676   2.364   6.142  0.1013  0.5314 -0.5027
  143OSM   H11A15660   3.744   2.316   6.069  0.7659  0.4924  0.1406
  143OSM   H11B15661   3.734   2.365   6.236  1.3889  0.5363 -1.2798
  143OSM      P15662   3.632   2.621   6.178  0.2919  0.0806 -0.1377
  143OSM    O1315663   3.771   2.681   6.168  0.3206 -0.2832 -0.0500
  143OSM    O1415664   3.513   2.700   6.146  0.7504 -0.0015  0.0516
  143OSM    O1115665   3.594   2.572   6.322 -0.0163  0.2246 -0.2022
  143OSM    O1215666   3.635   2.496   6.094  0.6215 -0.0348  0.1968
  143OSM    C1S15667   3.671   2.550   6.436 -0.6554  0.5882  0.2090
  143OSM    H1S15668   3.732   2.639   6.459 -0.6097  0.7014 -0.3453
  143OSM    H1T15669   3.746   2.470   6.417 -0.2571  0.9280  0.3535
  143OSM     NF15670   3.667   2.517   6.684 -0.3908 -0.1215  0.5649
  143OSM    HNF15671   3.678   2.431   6.732  3.8585 -1.9669 -3.3023
  143OSM    C2S15672   3.588   2.533   6.567  0.3145  0.3402  0.3629
  143OSM    H2S15673   3.529   2.626   6.581 -1.0689 -0.3611 -0.7670
  143OSM    C3S15674   3.483   2.417   6.547 -0.1913 -0.3228  0.7560
  143OSM    H3S15675   3.546   2.326   6.555 -0.6808 -0.8564 -1.1558
  143OSM     O315676   3.429   2.408   6.420  0.2850  0.1446 -0.0587
  143OSM    HO315677   3.471   2.470   6.360 -0.7560 -0.5864 -1.5999
  143OSM    C4S15678   3.386   2.415   6.660  1.1597 -0.4603  0.1770
  143OSM    H4S15679   3.428   2.372   6.752 -0.7883 -2.6832  0.0608
  143OSM    C5S15680   3.255   2.464   6.674  0.2495  0.8181 -0.2769
  143OSM    H5S15681   3.232   2.541   6.598  0.2042  2.5242  1.4274
  143OSM    C6S15682   3.166   2.442   6.799  0.2454  0.3969 -0.9760
  143OSM    H6S15683   3.075   2.381   6.781 -0.4188  1.1021 -0.0635
  143OSM    H6T15684   3.129   2.541   6.834 -2.5251 -0.9146 -0.1069
  143OSM    C7S15685   3.227   2.376   6.919 -0.0759 -0.0051  0.7605
  143OSM    H7S15686   3.308   2.441   6.959 -0.7641  1.9939 -1.0338
  143OSM    H7T15687   3.284   2.285   6.888  2.7574  2.5404 -1.7901
  143OSM    C8S15688   3.133   2.347   7.038  0.0541 -0.5584 -0.0282
  143OSM    H8S15689   3.169   2.269   7.108 -1.7513 -0.6085  0.8710
  143OSM    H8T15690   3.038   2.309   6.993  0.0611 -0.7701  0.1346
  143OSM    C9S15691   3.118   2.470   7.125  0.0461  0.0944  0.3524
  143OSM    H9S15692   3.083   2.563   7.075  3.1822  1.3762  0.4581
  143OSM    H9T15693   3.218   2.493   7.168  0.4417 -1.1462  0.0860
  143OSM   C10S15694   3.010   2.455   7.234 -0.1098  0.6063 -0.2987
  143OSM   H10S15695   3.042   2.364   7.288  0.6433  2.3187  2.2048
  143OSM   H10T15696   2.912   2.429   7.189 -0.0693  1.1976 -0.7418
  143OSM   C11S15697   3.002   2.576   7.324 -0.0195  0.3694  0.6312
  143OSM   H11S15698   2.974   2.655   7.252  0.6931 -0.3649 -0.4739
  143OSM   H11T15699   3.095   2.602   7.378 -0.4461 -0.9368  2.0315
  143OSM   C12S15700   2.895   2.549   7.436 -0.1580 -0.6297  0.1176
  143OSM   H12S15701   2.925   2.484   7.521 -2.3395 -0.2576  1.2219
  143OSM   H12T15702   2.808   2.501   7.387 -1.3911  1.7922 -0.1663
  143OSM   C13S15703   2.853   2.684   7.502 -0.1360  0.3130 -0.1941
  143OSM   H13S15704   2.792   2.737   7.426 -1.1497  0.3020  0.5961
  143OSM   H13T15705   2.942   2.742   7.535  0.7554  0.2952 -2.5010
  143OSM   C14S15706   2.768   2.652   7.627 -0.0556 -0.2740  0.2792
  143OSM   H14S15707   2.833   2.583   7.686 -0.9697 -1.9094 -0.5893
  143OSM   H14T15708   2.679   2.590   7.604 -1.3539  1.1259  1.4522
  143OSM   C15S15709   2.731   2.772   7.710  0.1067  0.0017  0.1119
  143OSM   H15S15710   2.623   2.794   7.692  0.0273  0.3203  0.9428
  143OSM   H15T15711   2.792   2.861   7.684 -0.9018  0.5809 -0.3110
  143OSM   C16S15712   2.759   2.748   7.863 -0.4304 -0.3532  0.2389
  143OSM   H16S15713   2.787   2.849   7.902  1.4273 -0.4543 -0.7752
  143OSM   H16T15714   2.847   2.680   7.867 -1.0892 -1.2550 -0.4073
  143OSM   C17S15715   2.645   2.693   7.947 -0.7443 -0.3786 -0.3498
  143OSM   H17S15716   2.611   2.602   7.893 -1.9801  0.7485 -1.5134
  143OSM   H17T15717   2.570   2.772   7.925  1.2855  1.5339 -0.4648
  143OSM   C18S15718   2.655   2.669   8.094 -0.5609  0.1910  0.1279
  143OSM   H18S15719   2.681   2.763   8.148  1.0457 -0.7053  0.9673
  143OSM   H18T15720   2.746   2.609   8.117 -0.4683  0.0514 -0.6015
  143OSM   H18U15721   2.564   2.625   8.140  0.0223  0.5038  1.6435
  143OSM    C1F15722   3.748   2.616   6.724  0.6573  0.0370 -0.6250
  143OSM     OF15723   3.716   2.734   6.701 -0.0496 -0.0368  0.2565
  143OSM    C2F15724   3.866   2.579   6.806  0.1130  0.1234 -0.2069
  143OSM    H2F15725   3.954   2.589   6.740  1.6234 -0.6050  1.6542
  143OSM    H2G15726   3.857   2.482   6.859  0.1420 -0.2261 -0.8311
  143OSM    C3F15727   3.893   2.677   6.918  0.4088 -0.3345 -0.1368
  143OSM    H3F15728   3.793   2.701   6.962  1.4212  2.5958  0.6962
  143OSM    H3G15729   3.926   2.776   6.881 -0.9697  0.6243  1.1151
  143OSM    C4F15730   3.982   2.631   7.024 -0.4638 -0.7341  0.1999
  143OSM    H4F15731   4.090   2.647   7.000  0.3048 -2.9050  2.0540
  143OSM    H4G15732   3.967   2.522   7.041 -1.0046 -0.7303 -0.2466
  143OSM    C5F15733   3.957   2.698   7.154 -0.0317  0.4900 -0.0771
  143OSM    H5F15734   3.848   2.696   7.173 -0.1958 -1.1774 -1.1292
  143OSM    H5G15735   3.985   2.805   7.151  0.1532  0.4441  0.0084
  143OSM    C6F15736   4.012   2.607   7.265  0.5889  0.3431  0.6950
  143OSM    H6F15737   4.116   2.577   7.238  0.3201 -0.3060  0.3510
  143OSM    H6G15738   3.951   2.514   7.269  0.9124  0.0823 -0.2667
  143OSM    C7F15739   4.004   2.675   7.400  0.2580  0.0497 -0.2544
  143OSM    H7F15740   3.911   2.737   7.396 -2.3955 -3.7391 -0.1074
  143OSM    H7G15741   4.091   2.743   7.406 -0.0604  0.7670 -2.8708
  143OSM    C8F15742   4.010   2.588   7.529  0.1929 -0.2869 -0.1072
  143OSM    H8F15743   4.095   2.516   7.529  0.6321  0.2004  1.9274
  143OSM    H8G15744   3.910   2.540   7.536 -0.3452  0.4110 -2.6519
  143OSM    C9F15745   4.033   2.670   7.657  0.1214 -0.1298  0.0011
  143OSM    H9F15746   4.093   2.762   7.649 -1.8274  1.2812  1.0934
  143OSM   C10F15747   3.997   2.641   7.784  0.1743 -0.1915 -0.2819
  143OSM   H10F15748   4.030   2.712   7.862 -0.2388 -0.1395 -0.1535
  143OSM   C11F15749   3.917   2.527   7.833  0.5360  0.0451  0.3810
  143OSM   H11F15750   3.974   2.454   7.894 -1.7137 -2.8646 -0.8699
  143OSM   H11G15751   3.886   2.461   7.749 -0.2619  1.0821 -0.1543
  143OSM   C12F15752   3.795   2.581   7.910  0.1977  0.6160 -0.0517
  143OSM   H12F15753   3.744   2.661   7.853  0.9356  0.3141 -1.1460
  143OSM   H12G15754   3.828   2.620   8.009 -1.2363 -0.0978  0.7201
  143OSM   C13F15755   3.683   2.480   7.945 -0.5779  0.5970 -0.6826
  143OSM   H13F15756   3.729   2.390   7.992  0.6362  1.1516 -0.8051
  143OSM   H13G15757   3.641   2.456   7.845  1.2706 -0.4893 -1.2225
  143OSM   C14F15758   3.567   2.547   8.019 -0.4646  0.0725  0.5151
  143OSM   H14F15759   3.502   2.608   7.954 -1.9789 -1.2394  0.7751
  143OSM   H14G15760   3.609   2.609   8.101  0.5535 -1.4328  1.1750
  143OSM   C15F15761   3.472   2.448   8.083  0.0618  0.3432 -0.1997
  143OSM   H15F15762   3.415   2.397   8.002 -1.0585 -0.3994  1.0345
  143OSM   H15G15763   3.395   2.506   8.139 -0.4539  2.2888 -2.8129
  143OSM   C16F15764   3.527   2.344   8.172  0.0358  0.2794  0.6210
  143OSM   H16F15765   3.575   2.270   8.104 -1.2134 -0.8679  0.9682
  143OSM   H16G15766   3.444   2.287   8.218 -1.8979  1.6009 -1.0753
  143OSM   C17F15767   3.621   2.380   8.287 -0.6119 -0.1370 -0.7692
  143OSM   H17F15768   3.570   2.454   8.352 -0.9064 -1.8225  0.9698
  143OSM   H17G15769   3.713   2.429   8.248 -1.7847  2.4334 -0.4138
  143OSM   C18F15770   3.662   2.253   8.377  0.0433  0.4744 -0.4511
  143OSM   H18F15771   3.701   2.291   8.474 -0.2869  2.1496 -0.9571
  143OSM   H18G15772   3.750   2.200   8.335 -0.2736 -0.3645 -0.0775
  143OSM   H18H15773   3.582   2.178   8.398  1.5078 -1.2384 -0.8884
  144OSM      N15774   2.587   2.164   5.968  0.6236 -0.3590 -0.3175
  144OSM    C1515775   2.571   2.133   6.113  0.1112  0.1928  0.3514
  144OSM   H15A15776   2.575   2.029   6.142 -1.4257  0.5835  2.0766
  144OSM   H15B15777   2.467   2.147   6.142 -0.4316  0.4371 -1.6246
  144OSM   H15C15778   2.631   2.198   6.175  2.3529 -2.2156  0.7869
  144OSM    C1415779   2.564   2.313   5.949 -0.3325  0.3310  0.1896
  144OSM   H14A15780   2.606   2.338   5.853 -0.9504 -1.0328 -0.4437
  144OSM   H14B15781   2.607   2.370   6.030  0.2824  0.4853 -0.2392
  144OSM   H14C15782   2.457   2.322   5.944 -0.6335 -2.6520  0.6451
  144OSM    C1315783   2.735   2.133   5.933 -0.1379 -0.1393 -0.2769
  144OSM   H13A15784   2.760   2.029   5.920 -3.3921 -1.3702  2.7191
  144OSM   H13B15785   2.799   2.169   6.012 -0.8809  1.9582 -0.5862
  144OSM   H13C15786   2.762   2.189   5.844 -1.5620  1.8271  0.4922
  144OSM    C1215787   2.492   2.083   5.878 -0.1921 -0.0454 -0.3237
  144OSM   H12A15788   2.509   1.977   5.887 -0.2704 -0.0351 -0.0258
  144OSM   H12B15789   2.515   2.123   5.781 -0.3033 -1.9476 -1.1470
  144OSM    C1115790   2.336   2.106   5.900  0.0538  0.4695 -0.0313
  144OSM   H11A15791   2.292   2.082   5.801  0.9253  0.6155 -0.4642
  144OSM   H11B15792   2.324   2.217   5.905  2.7599  0.7555  0.9368
  144OSM      P15793   2.245   1.896   6.037  0.1133  0.2414  0.0230
  144OSM    O1315794   2.101   1.861   6.034  0.5508 -0.3953  0.7100
  144OSM    O1415795   2.329   1.818   5.941 -0.1746 -0.8777  0.3426
  144OSM    O1115796   2.293   1.873   6.182  0.5430  0.4198  0.3337
  144OSM    O1215797   2.267   2.046   6.011 -0.4342 -0.3542  0.0288
  144OSM    C1S15798   2.236   1.950   6.291 -0.6475 -0.1199  0.8883
  144OSM    H1S15799   2.126   1.958   6.277 -0.5022  1.3393  0.5294
  144OSM    H1T15800   2.271   2.055   6.292 -1.4947  0.1675  0.5573
  144OSM     NF15801   2.212   1.964   6.520 -0.4913  0.7054 -0.4489
  144OSM    HNF15802   2.257   2.036   6.571  0.1465  0.5972 -0.8560
  144OSM    C2S15803   2.272   1.874   6.420 -0.7047 -0.6510  0.1262
  144OSM    H2S15804   2.227   1.773   6.430 -1.0473 -0.2811  2.4120
  144OSM    C3S15805   2.434   1.868   6.434  0.2250 -0.0293 -0.9142
  144OSM    H3S15806   2.474   1.971   6.426 -1.2739  0.6579  0.1007
  144OSM     O315807   2.512   1.802   6.340  0.5196 -0.0885 -0.3718
  144OSM    HO315808   2.453   1.805   6.264  0.3964  2.1890 -0.2115
  144OSM    C4S15809   2.462   1.813   6.579 -0.4980 -0.0824 -0.2295
  144OSM    H4S15810   2.453   1.895   6.652 -0.7362  0.7907 -1.2139
  144OSM    C5S15811   2.510   1.687   6.604  0.0790  0.1797  0.3526
  144OSM    H5S15812   2.521   1.622   6.516 -1.0925  1.0485 -0.4619
  144OSM    C6S15813   2.559   1.629   6.739  0.3514 -0.2750  0.3521
  144OSM    H6S15814   2.660   1.584   6.725  0.5731  0.3634 -0.1174
  144OSM    H6T15815   2.486   1.548   6.762 -2.2558  1.8996  0.0785
  144OSM    C7S15816   2.569   1.716   6.860  0.0187  0.1910 -0.5162
  144OSM    H7S15817   2.476   1.775   6.875  0.4750  0.7597  0.0787
  144OSM    H7T15818   2.653   1.788   6.860  0.6941 -0.5312  2.7045
  144OSM    C8S15819   2.590   1.632   6.991 -0.9345 -0.3106  0.0153
  144OSM    H8S15820   2.686   1.576   6.979 -0.6938  0.0657  0.1783
  144OSM    H8T15821   2.517   1.548   6.993 -0.8297 -0.4037 -0.0349
  144OSM    C9S15822   2.579   1.708   7.120  0.3467  0.4989 -0.2270
  144OSM    H9S15823   2.488   1.770   7.133 -2.9402 -3.4079 -3.2244
  144OSM    H9T15824   2.661   1.782   7.110 -0.3824  1.2868 -0.3587
  144OSM   C10S15825   2.607   1.631   7.244 -0.1048 -0.6086 -0.2923
  144OSM   H10S15826   2.710   1.591   7.233 -0.0374 -0.5100 -0.0248
  144OSM   H10T15827   2.544   1.540   7.253 -0.6067 -0.5335 -2.6949
  144OSM   C11S15828   2.624   1.730   7.368  0.2154 -0.0927  1.2676
  144OSM   H11S15829   2.534   1.794   7.365 -0.2141 -0.7626 -1.0192
  144OSM   H11T15830   2.715   1.790   7.347  1.9839 -3.0163  0.2401
  144OSM   C12S15831   2.646   1.652   7.498 -0.1743 -0.1596 -0.0988
  144OSM   H12S15832   2.731   1.583   7.479  0.4425  0.9325 -1.3816
  144OSM   H12T15833   2.567   1.576   7.518 -0.7780  0.7760  1.1135
  144OSM   C13S15834   2.661   1.747   7.614 -0.8220 -0.3153 -0.1175
  144OSM   H13S15835   2.570   1.811   7.625 -0.7103 -0.2940  0.6843
  144OSM   H13T15836   2.744   1.817   7.592  1.1480 -2.4556  0.3300
  144OSM   C14S15837   2.674   1.670   7.752  0.0108 -0.2780  0.3481
  144OSM   H14S15838   2.777   1.629   7.760 -1.3006 -3.4596  2.0932
  144OSM   H14T15839   2.592   1.595   7.755  0.3053 -0.6292 -0.2883
  144OSM   C15S15840   2.653   1.765   7.868  0.0209 -0.0600  0.2847
  144OSM   H15S15841   2.577   1.838   7.833 -0.2299  0.1181  1.2019
  144OSM   H15T15842   2.742   1.826   7.893  1.1207 -0.6745 -1.9922
  144OSM   C16S15843   2.607   1.690   7.995  0.0998 -1.2173  0.0865
  144OSM   H16S15844   2.687   1.633   8.048  1.5463  0.1967 -0.5062
  144OSM   H16T15845   2.524   1.621   7.968 -0.6581  1.3928 -4.9610
  144OSM   C17S15846   2.558   1.790   8.108  0.1383  0.5306 -0.2394
  144OSM   H17S15847   2.480   1.864   8.078 -0.2965  0.2904  0.2975
  144OSM   H17T15848   2.660   1.830   8.123  0.7558 -1.8200  2.1742
  144OSM   C18S15849   2.511   1.730   8.236 -0.4572  0.8379 -0.2095
  144OSM   H18S15850   2.525   1.797   8.323 -0.8268 -0.0135  0.5147
  144OSM   H18T15851   2.576   1.643   8.258  0.8632  1.6080 -1.0120
  144OSM   H18U15852   2.409   1.686   8.244 -0.7810  1.8313  1.4613
  144OSM    C1F15853   2.083   1.967   6.543  0.3104 -0.3957  0.1864
  144OSM     OF15854   2.007   1.894   6.480 -0.4217  0.3917  0.1141
  144OSM    C2F15855   2.029   2.068   6.639 -0.0313  0.2120  0.7371
  144OSM    H2F15856   2.069   2.171   6.632 -1.7513  0.8730  0.1654
  144OSM    H2G15857   2.044   2.042   6.745 -2.2397 -2.3734  0.4749
  144OSM    C3F15858   1.873   2.073   6.630 -0.0566 -0.9157 -0.4296
  144OSM    H3F15859   1.825   1.974   6.613  1.6459 -1.6522 -1.1102
  144OSM    H3G15860   1.866   2.118   6.529 -1.4136  0.5453  0.3122
  144OSM    C4F15861   1.788   2.162   6.723  0.3129 -0.3940 -0.4159
  144OSM    H4F15862   1.681   2.155   6.692  0.9382 -0.8554 -2.4948
  144OSM    H4G15863   1.809   2.270   6.709  0.4069 -0.3563  0.0047
  144OSM    C5F15864   1.802   2.114   6.870 -0.1200  0.4822  0.2596
  144OSM    H5F15865   1.901   2.154   6.903 -1.0413  1.8860  1.3714
  144OSM    H5G15866   1.814   2.004   6.882  0.5409  0.5771  0.5036
  144OSM    C6F15867   1.691   2.177   6.954  0.3430 -0.2368 -0.1272
  144OSM    H6F15868   1.599   2.116   6.942 -0.0243  0.0626  1.1273
  144OSM    H6G15869   1.666   2.271   6.901 -1.9017 -1.5814 -1.5018
  144OSM    C7F15870   1.724   2.194   7.104  0.6603 -0.3484 -0.1874
  144OSM    H7F15871   1.807   2.266   7.122  0.1313  0.6182 -1.4842
  144OSM    H7G15872   1.739   2.096   7.154  3.2852  0.7243  1.2033
  144OSM    C8F15873   1.598   2.240   7.184 -0.7130  0.0880 -0.1278
  144OSM    H8F15874   1.643   2.233   7.285 -2.5885  0.6180  0.7772
  144OSM    H8G15875   1.521   2.161   7.178 -0.3878 -0.3570  1.4044
  144OSM    C9F15876   1.531   2.372   7.162  0.8766  0.0628 -0.4727
  144OSM    H9F15877   1.559   2.428   7.071 -0.6287 -0.9451 -1.5861
  144OSM   C10F15878   1.424   2.424   7.224 -0.1536 -0.7182 -0.0280
  144OSM   H10F15879   1.371   2.510   7.181  0.3168 -0.9949 -1.1570
  144OSM   C11F15880   1.363   2.350   7.332  0.1636 -0.3019  0.0379
  144OSM   H11F15881   1.352   2.243   7.305 -2.0297 -0.2743  0.7651
  144OSM   H11G15882   1.261   2.388   7.350  0.7765  1.2985  0.1664
  144OSM   C12F15883   1.432   2.364   7.472  0.1162  0.3810 -0.3076
  144OSM   H12F15884   1.449   2.472   7.494  2.2885  0.5616 -2.6288
  144OSM   H12G15885   1.534   2.322   7.476  0.9333  2.4214  1.5086
  144OSM   C13F15886   1.341   2.303   7.582 -0.0769  0.3408 -0.0580
  144OSM   H13F15887   1.320   2.198   7.551  2.7310 -0.1607 -0.3705
  144OSM   H13G15888   1.241   2.352   7.573  1.1658  2.6847 -1.3561
  144OSM   C14F15889   1.395   2.327   7.727  0.0775 -0.0729 -0.9723
  144OSM   H14F15890   1.354   2.422   7.767  2.7003  0.4035  0.7100
  144OSM   H14G15891   1.505   2.315   7.727 -0.1962 -2.9331 -0.2776
  144OSM   C15F15892   1.347   2.213   7.826 -0.1608 -0.0326 -0.1974
  144OSM   H15F15893   1.404   2.207   7.922 -0.8203  0.5231  0.2323
  144OSM   H15G15894   1.361   2.114   7.778 -0.6518 -0.2980  0.2094
  144OSM   C16F15895   1.202   2.236   7.864 -0.8745 -0.3434 -0.6510
  144OSM   H16F15896   1.130   2.219   7.781 -2.2575  0.9096  0.2605
  144OSM   H16G15897   1.185   2.343   7.890  2.2964  0.0811 -0.2049
  144OSM   C17F15898   1.151   2.160   7.989 -0.2077 -0.2842 -0.4447
  144OSM   H17F15899   1.198   2.213   8.075 -0.5572  2.1095 -1.6800
  144OSM   H17G15900   1.197   2.059   7.986  0.6546  0.1292 -1.5644
  144OSM   C18F15901   0.995   2.150   8.007 -0.4358 -0.1041  0.3239
  144OSM   H18F15902   0.953   2.130   7.906  0.1295 -0.8479  0.2362
  144OSM   H18G15903   0.973   2.249   8.052  1.4487  0.6101 -0.2677
  144OSM   H18H15904   0.956   2.073   8.077  0.2324  1.8793  2.9731
  145SAPE     N15905   0.453   2.700  10.951 -0.0870 -0.0739 -0.0505
  145SAPE   HN115906   0.434   2.768  11.029  1.4960  0.0332  0.2510
  145SAPE   HN215907   0.509   2.620  10.987 -0.7147 -0.1875  0.7022
  145SAPE   HN315908   0.504   2.751  10.877  1.1501  2.0103  2.1567
  145SAPE   C1215909   0.327   2.646  10.901 -0.3426 -0.6077 -0.0104
  145SAPE  H12A15910   0.247   2.722  10.914  0.1712  0.0060 -0.3906
  145SAPE  H12B15911   0.318   2.549  10.955 -0.4321 -1.4499 -1.4895
  145SAPE   C1115912   0.342   2.602  10.752  0.4289 -0.0551 -0.6141
  145SAPE  H11A15913   0.362   2.695  10.695  0.9172  0.9482  1.1540
  145SAPE  H11B15914   0.249   2.557  10.710 -1.5035  0.5175  2.8294
  145SAPE     P15915   0.465   2.390  10.665 -0.1631  0.3003  0.7555
  145SAPE   O1315916   0.606   2.337  10.659  0.7237  0.0764 -0.1063
  145SAPE   O1415917   0.365   2.300  10.732 -0.3897 -0.3222 -0.0780
  145SAPE   O1215918   0.469   2.529  10.740 -0.2994  0.0769 -0.5522
  145SAPE   O1115919   0.419   2.424  10.517  0.2868 -0.4112 -0.6895
  145SAPE    C115920   0.501   2.526  10.449  0.4013 -0.6700 -0.8439
  145SAPE    HA15921   0.469   2.630  10.473  1.1686 -0.8016  0.8108
  145SAPE    HB15922   0.607   2.516  10.479  0.5204 -1.4689 -1.4900
  145SAPE    C215923   0.483   2.511  10.294 -0.1631 -0.1518  0.1598
  145SAPE    HS15924   0.539   2.598  10.252  2.1781 -1.3505  0.6993
  145SAPE   O2115925   0.344   2.514  10.249 -0.0071  0.2568  0.2672
  145SAPE   C2115926   0.316   2.564  10.128 -1.1137  0.3273  0.0586
  145SAPE   O2215927   0.392   2.618  10.049  0.1808 -0.2217  0.6940
  145SAPE   C2215928   0.170   2.576  10.121  0.3265  0.2784  0.6892
  145SAPE   H2R15929   0.107   2.509  10.183  0.5634 -0.3455  0.2515
  145SAPE   H2S15930   0.149   2.681  10.151 -1.4941 -0.0273  0.5410
  145SAPE    C315931   0.550   2.385  10.229 -0.0082  0.0264  0.1877
  145SAPE    HX15932   0.490   2.295  10.253  0.1099  0.0097  0.4194
  145SAPE    HY15933   0.640   2.362  10.289 -0.4496 -0.2458  0.7536
  145SAPE   O3115934   0.568   2.400  10.085  0.3713  0.3735 -0.2432
  145SAPE   C3115935   0.670   2.473  10.044 -0.7656  0.5770  0.5677
  145SAPE   O3215936   0.742   2.544  10.114  0.3735 -0.0030  0.6011
  145SAPE   C3215937   0.671   2.461   9.891 -0.5270 -0.4543  0.0150
  145SAPE   H2X15938   0.591   2.531   9.858 -0.2352  0.1095  0.4994
  145SAPE   H2Y15939   0.634   2.359   9.869 -2.8355 -0.8438  4.8848
  145SAPE   C2315940   0.127   2.562   9.970 -0.0432 -0.1899  0.1198
  145SAPE   H3R15941   0.200   2.606   9.899 -0.0498 -0.8259 -0.2871
  145SAPE   H3S15942   0.025   2.605   9.961 -1.2610 -3.0652 -0.6763
  145SAPE   C2415943   0.114   2.407   9.936  0.0032 -0.5702 -0.2169
  145SAPE   H4R15944   0.061   2.353  10.018 -0.5837 -0.2211 -0.3690
  145SAPE   H4S15945   0.220   2.372   9.944  0.6300  1.5352  0.9406
  145SAPE   C2515946   0.055   2.390   9.797  0.3887  0.6855 -0.5816
  145SAPE   H5R15947  -0.055   2.389   9.795  0.3183  3.0451 -0.0527
  145SAPE   C2615948   0.115   2.370   9.682 -0.1174  0.0499  0.1671
  145SAPE   H6R15949   0.055   2.349   9.592 -0.4631 -0.9359  0.6226
  145SAPE   C2715950   0.268   2.377   9.671  0.5006 -0.2002  0.1482
  145SAPE   H7R15951   0.319   2.308   9.741  0.0825 -1.5201 -0.8271
  145SAPE   H7S15952   0.303   2.482   9.687 -0.7073  0.0380  1.3041
  145SAPE   C2815953   0.307   2.322   9.533 -1.3330 -0.1865  0.5193
  145SAPE   H8R15954   0.331   2.214   9.525 -0.7332 -0.0103 -0.1053
  145SAPE   C2915955   0.315   2.399   9.423 -0.2860 -0.4071  1.2531
  145SAPE   H9R15956   0.357   2.352   9.334  1.7435  3.8764 -0.1941
  145SAPE  C21015957   0.290   2.547   9.410  0.8385 -0.2017  0.8336
  145SAPE  H10R15958   0.366   2.582   9.336 -0.4371 -1.1222 -0.9420
  145SAPE  H10S15959   0.296   2.603   9.506  0.9212  2.0601 -0.4357
  145SAPE  C21115960   0.149   2.553   9.341 -0.6838  0.8519  0.1969
  145SAPE  H11R15961   0.068   2.510   9.400 -1.3203 -2.4754 -2.8876
  145SAPE  C21215962   0.110   2.585   9.213  0.0731 -0.1053 -0.2951
  145SAPE  H12R15963   0.003   2.582   9.187  0.5925 -1.0933 -2.3955
  145SAPE  C21315964   0.202   2.637   9.107  0.3146 -0.7794  0.3249
  145SAPE  H13R15965   0.271   2.556   9.075  0.9525 -0.6673  1.3950
  145SAPE  H13S15966   0.272   2.716   9.142 -1.5810  0.9464  0.3087
  145SAPE  C21415967   0.138   2.708   8.993  0.6913  0.0715  0.3325
  145SAPE  H14R15968   0.157   2.816   8.998  1.5057  0.0274 -1.7197
  145SAPE  C21515969   0.077   2.654   8.889  0.2974  0.6732  0.3794
  145SAPE  H15R15970   0.017   2.714   8.819  1.1052  0.5182 -0.4607
  145SAPE  C21615971   0.057   2.508   8.868  0.6861  0.3689  0.3158
  145SAPE  H16R15972   0.071   2.455   8.965 -0.6813 -1.3645 -0.3937
  145SAPE  H16S15973   0.130   2.465   8.796  1.0031  2.2266 -0.5040
  145SAPE  C21715974  -0.087   2.457   8.828  0.0466  0.0495  0.0993
  145SAPE  H17R15975  -0.160   2.511   8.892 -0.1233 -0.6987  0.5426
  145SAPE  H17S15976  -0.091   2.346   8.838  0.4364  0.0265 -0.0021
  145SAPE  C21815977  -0.140   2.502   8.689 -0.4462 -0.2596 -0.2912
  145SAPE  H18R15978  -0.071   2.454   8.616  0.4055 -1.1396  1.0607
  145SAPE  H18S15979  -0.134   2.612   8.680 -0.0541 -0.3644 -1.3512
  145SAPE  C21915980  -0.281   2.459   8.670  0.1758  0.1458  0.4671
  145SAPE  H19R15981  -0.338   2.484   8.762  2.4326  3.5638  1.0021
  145SAPE  H19S15982  -0.289   2.349   8.654 -1.1007  0.3327 -0.2729
  145SAPE  C22015983  -0.363   2.533   8.561 -0.3245 -0.0950  0.3720
  145SAPE  H20R15984  -0.457   2.483   8.530 -1.3380  1.1887  1.3306
  145SAPE  H20S15985  -0.293   2.554   8.477 -0.1921 -0.0318  0.5000
  145SAPE  H20T15986  -0.387   2.635   8.599  0.7128  0.2057  0.2355
  145SAPE   C3315987   0.803   2.501   9.824 -0.1327 -0.9388  0.1266
  145SAPE   H3X15988   0.884   2.430   9.849 -1.7421 -2.6247  0.6907
  145SAPE   H3Y15989   0.831   2.602   9.861 -2.4879 -0.6305  1.1772
  145SAPE   C3415990   0.792   2.504   9.669  0.1206 -0.7515  0.3062
  145SAPE   H4X15991   0.763   2.401   9.637 -0.3201 -0.5704  0.1146
  145SAPE   H4Y15992   0.885   2.535   9.618 -0.9127  1.0442 -0.5330
  145SAPE   C3515993   0.686   2.597   9.604 -0.4611 -0.7671 -0.1088
  145SAPE   H5X15994   0.679   2.693   9.660  2.1428 -0.5411 -0.0947
  145SAPE   H5Y15995   0.587   2.550   9.624 -0.3588 -0.4634  1.1623
  145SAPE   C3615996   0.714   2.619   9.447 -0.0270 -0.8707 -0.5298
  145SAPE   H6X15997   0.808   2.675   9.427  0.4776 -1.4526  0.1903
  145SAPE   H6Y15998   0.626   2.677   9.413  0.5510 -0.2249 -0.9467
  145SAPE   C3715999   0.705   2.490   9.369  0.4515  0.2343 -0.4893
  145SAPE   H7X16000   0.627   2.425   9.414  0.4552  1.0309  0.6960
  145SAPE   H7Y16001   0.801   2.440   9.394  0.0747 -0.2568 -0.0192
  145SAPE   C3816002   0.686   2.488   9.216  0.2160  0.3815  0.4808
  145SAPE   H8X16003   0.773   2.547   9.179  0.0683  1.8379  2.3737
  145SAPE   H8Y16004   0.596   2.546   9.187 -0.9394 -1.3479  0.5321
  145SAPE   C3916005   0.682   2.341   9.179  0.0611  0.2722  0.2779
  145SAPE   H9X16006   0.602   2.290   9.236 -1.7139  1.1702 -1.3624
  145SAPE   H9Y16007   0.777   2.306   9.225  0.8808  1.8409 -0.1668
  145SAPE  C31016008   0.673   2.319   9.025 -0.2410 -0.0801  0.4914
  145SAPE  H10X16009   0.779   2.305   8.997  0.3982  0.5142  2.5471
  145SAPE  H10Y16010   0.637   2.405   8.964 -1.0123 -0.2135  0.7474
  145SAPE  C31116011   0.597   2.186   8.994 -0.8513  0.3297  0.5121
  145SAPE  H11X16012   0.507   2.197   9.058 -0.1674  2.3807  1.1743
  145SAPE  H11Y16013   0.648   2.098   9.037  0.6790  0.5735 -0.7561
  145SAPE  C31216014   0.558   2.175   8.841  0.0469  0.6062  0.2329
  145SAPE  H12X16015   0.644   2.151   8.775 -0.9514 -2.7603  0.0624
  145SAPE  H12Y16016   0.512   2.274   8.822  1.9152  0.8171 -3.4764
  145SAPE  C31316017   0.459   2.060   8.823  0.5343 -0.2060 -0.2388
  145SAPE  H13X16018   0.378   2.053   8.900 -0.7064 -1.2759 -1.6060
  145SAPE  H13Y16019   0.513   1.964   8.837  0.4268  0.0564  2.2745
  145SAPE  C31416020   0.400   2.065   8.678 -0.2852  0.0099  0.1068
  145SAPE  H14X16021   0.347   1.969   8.657 -0.4895 -0.2046  1.5387
  145SAPE  H14Y16022   0.494   2.074   8.619 -0.2082  0.0098  0.2292
  145SAPE  C31516023   0.307   2.184   8.641 -0.7499 -0.9045  0.1317
  145SAPE  H15X16024   0.362   2.280   8.639  0.0415 -1.3654 -2.4178
  145SAPE  H15Y16025   0.229   2.179   8.720  1.3219 -1.1540  2.2168
  145SAPE  C31616026   0.236   2.164   8.507  0.0349 -0.3758 -0.2740
  145SAPE  H16X16027   0.198   2.060   8.515  0.9740 -0.6693  0.4453
  145SAPE  H16Y16028   0.320   2.171   8.434 -0.5895 -1.4356 -1.1125
  145SAPE  C31716029   0.119   2.259   8.480 -0.2862  0.1381 -0.2876
  145SAPE  H17X16030   0.073   2.279   8.580 -1.6637  0.2923 -0.9460
  145SAPE  H17Y16031   0.042   2.212   8.416 -0.2991 -0.9779  0.5280
  145SAPE  C31816032   0.168   2.396   8.425  0.6114  0.8975  0.0190
  145SAPE  H18X16033   0.086   2.464   8.392  1.2460  1.3222 -0.6924
  145SAPE  H18Y16034   0.227   2.379   8.333  0.5454  0.7290  0.0092
  145SAPE  H18Z16035   0.224   2.447   8.506 -0.4221  2.2352 -0.0732
  146SAPE     N16036   6.517   3.641  10.768  0.4501  0.0602  0.3240
  146SAPE   HN116037   6.428   3.689  10.746 -0.2316 -0.7369  1.2888
  146SAPE   HN216038   6.576   3.654  10.683 -0.9595  0.6891 -0.5798
  146SAPE   HN316039   6.507   3.538  10.782 -0.0872 -0.0835 -0.9785
  146SAPE   C1216040   6.593   3.710  10.875  0.1420 -0.2991  0.2939
  146SAPE  H12A16041   6.695   3.671  10.889  0.5623  1.3598  2.0940
  146SAPE  H12B16042   6.532   3.700  10.967 -0.9065  2.7730 -0.0057
  146SAPE   C1116043   6.599   3.860  10.830 -0.6062 -0.0592  0.2478
  146SAPE  H11A16044   6.683   3.887  10.762 -1.8736  3.8776  0.0914
  146SAPE  H11B16045   6.618   3.907  10.929  0.3048  1.5323 -0.6737
  146SAPE     P16046   6.453   4.035  10.714  0.2537 -0.6189  0.4363
  146SAPE   O1316047   6.313   4.050  10.663  0.2165 -0.5947  0.6482
  146SAPE   O1416048   6.501   4.140  10.809 -0.1050 -0.3758  0.0969
  146SAPE   O1216049   6.466   3.896  10.790 -0.4242  0.8184 -0.6783
  146SAPE   O1116050   6.549   4.011  10.582  0.9478 -0.1879 -0.0170
  146SAPE    C116051   6.525   3.903  10.498  0.2485  0.5313 -0.4149
  146SAPE    HA16052   6.622   3.862  10.462  1.0987 -0.1989  2.5477
  146SAPE    HB16053   6.478   3.817  10.550 -0.0803  0.3494 -1.0137
  146SAPE    C216054   6.426   3.934  10.386  0.2479 -0.6068  0.6277
  146SAPE    HS16055   6.323   3.925  10.427  0.1239 -1.7317  0.0655
  146SAPE   O2116056   6.436   3.836  10.284  0.0483  0.2166  0.3241
  146SAPE   C2116057   6.372   3.718  10.301 -0.0704  0.9277 -0.6108
  146SAPE   O2216058   6.299   3.685  10.391 -0.0950  0.4744  0.2566
  146SAPE   C2216059   6.407   3.622  10.190  0.3590 -0.0073 -0.4332
  146SAPE   H2R16060   6.425   3.680  10.097 -0.0144  2.9229  1.2422
  146SAPE   H2S16061   6.502   3.581  10.231  0.2498  2.2313  2.2155
  146SAPE    C316062   6.446   4.077  10.335  0.6278 -0.0089  0.3534
  146SAPE    HX16063   6.546   4.070  10.286  0.5167  0.6981  0.0182
  146SAPE    HY16064   6.441   4.155  10.414 -3.8409 -0.1776  0.3668
  146SAPE   O3116065   6.351   4.099  10.234  0.2547 -0.4131 -0.3781
  146SAPE   C3116066   6.378   4.223  10.177 -0.0246  0.1064 -0.4487
  146SAPE   O3216067   6.469   4.292  10.209 -0.3456  0.1241 -0.0927
  146SAPE   C3216068   6.268   4.252  10.069  0.8277 -0.0671 -0.5947
  146SAPE   H2X16069   6.219   4.352  10.078  1.1259 -0.0832  1.2798
  146SAPE   H2Y16070   6.193   4.171  10.081 -0.2302  0.8698 -0.6741
  146SAPE   C2316071   6.309   3.508  10.178  1.0270 -0.1686  0.3177
  146SAPE   H3R16072   6.211   3.555  10.154  2.3666  0.9819 -3.2881
  146SAPE   H3S16073   6.295   3.462  10.278 -1.7019 -1.5817 -0.6693
  146SAPE   C2416074   6.354   3.410  10.069 -0.1710  0.4205  0.1992
  146SAPE   H4R16075   6.445   3.352  10.094  0.3590  1.6599  1.2286
  146SAPE   H4S16076   6.378   3.483   9.989 -1.0315  0.0585 -0.3947
  146SAPE   C2516077   6.254   3.303  10.032  0.0775  0.1335 -0.1032
  146SAPE   H5R16078   6.225   3.239  10.117 -2.3930  0.5507 -0.5829
  146SAPE   C2616079   6.203   3.279   9.912  0.9406 -0.2370 -0.0377
  146SAPE   H6R16080   6.143   3.187   9.900 -0.1032  0.1674  1.9351
  146SAPE   C2716081   6.236   3.357   9.791  0.3056  1.0979  0.6678
  146SAPE   H7R16082   6.326   3.319   9.739  0.9211  1.1685  1.6605
  146SAPE   H7S16083   6.262   3.463   9.812 -0.2940  0.7155  3.5450
  146SAPE   C2816084   6.120   3.361   9.696  0.7949 -0.9147 -0.2696
  146SAPE   H8R16085   6.039   3.426   9.733  1.7882  0.5745 -0.6682
  146SAPE   C2916086   6.106   3.308   9.575  0.2587  0.0016  0.2471
  146SAPE   H9R16087   6.010   3.317   9.522  0.3827  3.7974  0.4923
  146SAPE  C21016088   6.206   3.227   9.496  0.0850  0.0001 -0.0570
  146SAPE  H10R16089   6.146   3.162   9.429 -0.8101  0.3326  0.4143
  146SAPE  H10S16090   6.251   3.161   9.573 -2.0395  0.0539  1.2710
  146SAPE  C21116091   6.314   3.288   9.404 -0.2313 -0.0365 -0.5834
  146SAPE  H11R16092   6.360   3.379   9.445 -3.2360  0.2359  2.4847
  146SAPE  C21216093   6.340   3.261   9.276  0.3941 -0.0261  0.2518
  146SAPE  H12R16094   6.422   3.314   9.224  3.4659 -3.9843  0.8202
  146SAPE  C21316095   6.268   3.155   9.195  0.9330 -0.1569  0.0734
  146SAPE  H13R16096   6.173   3.112   9.233 -0.1900  1.9912 -0.2187
  146SAPE  H13S16097   6.325   3.059   9.196  1.3791  0.0024 -3.3408
  146SAPE  C21416098   6.235   3.202   9.052  0.1429  0.0024  0.2140
  146SAPE  H14R16099   6.173   3.293   9.058 -1.0989 -0.7177 -1.4740
  146SAPE  C21516100   6.271   3.165   8.929  0.5497  0.4008  0.0382
  146SAPE  H15R16101   6.238   3.225   8.843 -0.1087  1.0036  0.7123
  146SAPE  C21616102   6.376   3.059   8.900  0.5823  0.0090  0.0311
  146SAPE  H16R16103   6.334   2.973   8.844  0.2016 -0.6811  1.3718
  146SAPE  H16S16104   6.410   3.014   8.996 -0.8797  0.3769  0.7221
  146SAPE  C21716105   6.496   3.112   8.821  0.1389  0.4892  0.3170
  146SAPE  H17R16106   6.578   3.044   8.853 -0.9045 -0.6128  0.6555
  146SAPE  H17S16107   6.519   3.217   8.852  0.2922  0.8837 -1.0948
  146SAPE  C21816108   6.488   3.095   8.671 -0.4570 -0.2360  0.5964
  146SAPE  H18R16109   6.426   3.174   8.623  2.5661  1.6497 -0.3209
  146SAPE  H18S16110   6.446   2.997   8.641 -0.5314 -0.0254  0.0127
  146SAPE  C21916111   6.628   3.099   8.616  0.4515 -0.5181 -0.5371
  146SAPE  H19R16112   6.689   3.016   8.660  1.2419 -2.1203 -4.4393
  146SAPE  H19S16113   6.674   3.192   8.655  1.9554 -0.6094 -2.0281
  146SAPE  C22016114   6.640   3.096   8.463  0.3600  0.5429 -0.6881
  146SAPE  H20R16115   6.588   3.006   8.424 -3.0271  1.2456  1.9355
  146SAPE  H20S16116   6.747   3.083   8.439  0.6355  0.6725  0.4482
  146SAPE  H20T16117   6.598   3.187   8.413  1.1205  0.7593 -0.9313
  146SAPE   C3316118   6.348   4.254   9.937 -0.2151 -0.2104 -0.3117
  146SAPE   H3X16119   6.390   4.154   9.916 -0.3970 -0.3385 -0.0587
  146SAPE   H3Y16120   6.422   4.336   9.925 -1.5167  1.0430  0.0104
  146SAPE   C3416121   6.254   4.275   9.820  0.0867 -0.3692  0.2128
  146SAPE   H4X16122   6.215   4.379   9.823  1.3321  0.0800  2.1984
  146SAPE   H4Y16123   6.165   4.209   9.827 -0.1616 -0.0887 -0.2586
  146SAPE   C3516124   6.319   4.238   9.682  0.6639  0.5265  0.1838
  146SAPE   H5X16125   6.331   4.127   9.675 -1.0276  0.3904 -0.9960
  146SAPE   H5Y16126   6.418   4.282   9.658  1.6615 -1.2397  0.9803
  146SAPE   C3616127   6.240   4.280   9.563  0.4104  1.0525 -0.6862
  146SAPE   H6X16128   6.236   4.391   9.562 -2.5418  0.9878 -0.2051
  146SAPE   H6Y16129   6.132   4.256   9.565  0.7303 -0.2528  2.0603
  146SAPE   C3716130   6.293   4.230   9.423 -0.2724  0.3546 -0.1507
  146SAPE   H7X16131   6.279   4.120   9.415  1.4175 -0.0023  1.5655
  146SAPE   H7Y16132   6.402   4.253   9.424 -0.3082  0.5456  1.9746
  146SAPE   C3816133   6.227   4.304   9.298 -0.4214 -0.0142 -0.1393
  146SAPE   H8X16134   6.252   4.409   9.326 -1.5632 -0.3793  2.3232
  146SAPE   H8Y16135   6.117   4.300   9.308 -0.3772 -0.2389  0.2801
  146SAPE   C3916136   6.290   4.259   9.165 -0.4582 -0.0357 -0.4671
  146SAPE   H9X16137   6.389   4.215   9.188  0.3355  0.6331 -2.5260
  146SAPE   H9Y16138   6.319   4.341   9.096  0.1090 -0.3874 -0.6436
  146SAPE  C31016139   6.209   4.158   9.087  0.4884  0.3153 -0.1917
  146SAPE  H10X16140   6.193   4.070   9.153 -0.9808  0.6395 -0.1200
  146SAPE  H10Y16141   6.274   4.114   9.008 -0.9528  0.4989 -1.4879
  146SAPE  C31116142   6.072   4.196   9.035 -0.1495 -0.5938  0.1374
  146SAPE  H11X16143   6.076   4.292   8.978 -0.1571  0.8523  2.5133
  146SAPE  H11Y16144   5.997   4.206   9.116  1.4531  0.2346  1.5477
  146SAPE  C31216145   6.014   4.090   8.940  0.1118  0.3282 -0.7770
  146SAPE  H12X16146   5.978   3.998   8.993 -2.5304  1.8214  0.1135
  146SAPE  H12Y16147   6.093   4.053   8.871  0.3763  0.7913 -0.7214
  146SAPE  C31316148   5.890   4.139   8.865  0.5053 -0.1092 -0.5616
  146SAPE  H13X16149   5.914   4.221   8.795 -2.0570 -0.1000 -1.4775
  146SAPE  H13Y16150   5.817   4.180   8.937 -1.8023  0.4390 -3.1190
  146SAPE  C31416151   5.830   4.024   8.781  0.4272 -0.1121 -0.3897
  146SAPE  H14X16152   5.734   4.046   8.729 -0.3429 -0.9340  0.6810
  146SAPE  H14Y16153   5.809   3.944   8.854  0.3764  1.4533  1.3461
  146SAPE  C31516154   5.919   3.967   8.674 -0.2611  0.6908 -0.4173
  146SAPE  H15X16155   6.022   3.942   8.708 -0.3279  1.0736  0.0601
  146SAPE  H15Y16156   5.929   4.048   8.598  1.7802 -0.4107 -1.3829
  146SAPE  C31616157   5.868   3.839   8.613 -0.5915  0.2907 -0.1017
  146SAPE  H16X16158   5.757   3.832   8.610 -0.4582 -3.8508  0.5615
  146SAPE  H16Y16159   5.884   3.761   8.691  1.1087 -0.6488 -1.3418
  146SAPE  C31716160   5.922   3.800   8.476  0.2496  0.5254 -0.0756
  146SAPE  H17X16161   5.912   3.888   8.408 -0.4059 -0.1322 -0.8450
  146SAPE  H17Y16162   5.864   3.715   8.435 -2.4270  1.2339  2.0635
  146SAPE  C31816163   6.065   3.767   8.483 -0.2066  0.8941 -0.5393
  146SAPE  H18X16164   6.118   3.863   8.495 -0.0772  0.8969 -1.0995
  146SAPE  H18Y16165   6.110   3.704   8.403 -0.9760 -1.3584  0.7533
  146SAPE  H18Z16166   6.066   3.703   8.574 -0.8308  0.6296 -0.7107
  147SAPE     N16167   1.516   0.150  11.078 -0.8492  0.0995  0.4092
  147SAPE   HN116168   1.617   0.140  11.098 -1.0414  1.4647  2.2402
  147SAPE   HN216169   1.469   0.060  11.057  0.0588 -0.1499 -0.5742
  147SAPE   HN316170   1.501   0.202  10.990  0.4306  1.4043  0.9437
  147SAPE   C1216171   1.441   0.217  11.192 -0.0292 -0.5064  0.3340
  147SAPE  H12A16172   1.494   0.311  11.218 -2.1943  0.9766 -0.4332
  147SAPE  H12B16173   1.438   0.155  11.284 -0.5859  0.4898  1.0040
  147SAPE   C1116174   1.294   0.239  11.151  0.0243  0.2335  0.7546
  147SAPE  H11A16175   1.240   0.288  11.235 -0.8269 -0.0690  0.3966
  147SAPE  H11B16176   1.253   0.136  11.136  0.9972  0.1912 -1.9279
  147SAPE     P16177   1.168   0.417  11.009  0.8166 -0.0018 -0.1176
  147SAPE   O1316178   1.038   0.370  11.064  0.2549 -0.0814  0.5642
  147SAPE   O1416179   1.205   0.544  11.064 -0.9104 -0.8945 -0.5832
  147SAPE   O1216180   1.284   0.317  11.030 -0.0320 -0.1362 -0.5292
  147SAPE   O1116181   1.161   0.432  10.853  0.1840  0.0654 -0.5375
  147SAPE    C116182   1.121   0.324  10.766 -0.7837  1.3139 -0.4824
  147SAPE    HA16183   1.112   0.225  10.816 -0.1750  0.0865 -2.7716
  147SAPE    HB16184   1.018   0.340  10.726 -1.4098 -0.0187  0.5467
  147SAPE    C216185   1.214   0.306  10.646  0.2678  0.3234  0.4760
  147SAPE    HS16186   1.306   0.254  10.680 -0.2466  1.6805  4.1771
  147SAPE   O2116187   1.240   0.445  10.607 -0.2297 -0.0473 -0.4138
  147SAPE   C2116188   1.341   0.462  10.528 -0.2987  0.1748 -0.0655
  147SAPE   O2216189   1.433   0.379  10.523 -0.3564  0.0663 -0.3918
  147SAPE   C2216190   1.329   0.589  10.438  0.5138  0.2426  0.1998
  147SAPE   H2R16191   1.233   0.591  10.383  1.1243 -1.0566 -0.9588
  147SAPE   H2S16192   1.333   0.666  10.518  3.4792  0.6047 -0.2139
  147SAPE    C316193   1.142   0.229  10.537 -0.8385  0.0178 -0.9217
  147SAPE    HX16194   1.194   0.243  10.440  3.2134  0.2757  1.1778
  147SAPE    HY16195   1.042   0.274  10.522 -0.1796  0.6958 -3.5787
  147SAPE   O3116196   1.124   0.087  10.563  0.8270 -0.1257 -0.0096
  147SAPE   C3116197   1.182   0.011  10.478  0.2739  1.0392  0.3707
  147SAPE   O3216198   1.269   0.036  10.397  0.1318 -0.3116 -0.2970
  147SAPE   C3216199   1.135  -0.131  10.521 -0.3843  0.3745  0.7328
  147SAPE   H2X16200   1.024  -0.136  10.510 -0.3132  0.5260 -0.0665
  147SAPE   H2Y16201   1.167  -0.148  10.626  0.5355 -0.8062  0.2599
  147SAPE   C2316202   1.436   0.623  10.332 -0.6148 -0.2387 -0.0495
  147SAPE   H3R16203   1.533   0.626  10.387 -0.6096 -0.1683 -0.0611
  147SAPE   H3S16204   1.400   0.719  10.288 -2.6904 -0.9339  0.0856
  147SAPE   C2416205   1.428   0.545  10.200 -0.2817  0.3010 -0.3108
  147SAPE   H4R16206   1.480   0.604  10.121 -1.1399  0.8598 -0.4639
  147SAPE   H4S16207   1.322   0.547  10.167 -0.7770  1.3681  1.3085
  147SAPE   C2516208   1.500   0.412  10.213  0.6374  0.3520 -0.6375
  147SAPE   H5R16209   1.607   0.423  10.234  0.6529  0.1802 -0.6260
  147SAPE   C2616210   1.447   0.288  10.188 -0.9219 -0.0795 -0.5201
  147SAPE   H6R16211   1.513   0.200  10.191 -1.6646 -0.6491 -0.6115
  147SAPE   C2716212   1.311   0.265  10.143  0.1679 -0.6056  0.6990
  147SAPE   H7R16213   1.270   0.336  10.069 -1.0311 -1.6166  0.3605
  147SAPE   H7S16214   1.252   0.288  10.235 -0.8106 -0.2120 -0.0259
  147SAPE   C2816215   1.295   0.125  10.091 -0.0162  0.5896 -0.6401
  147SAPE   H8R16216   1.283   0.042  10.161  1.6011  0.0777 -0.9560
  147SAPE   C2916217   1.307   0.083   9.965  0.5001 -0.1632  0.4541
  147SAPE   H9R16218   1.298  -0.024   9.940  1.7975 -0.3144  0.6004
  147SAPE  C21016219   1.316   0.172   9.840  0.3261  0.2051 -0.2709
  147SAPE  H10R16220   1.353   0.272   9.871  1.4723 -1.0974  2.7020
  147SAPE  H10S16221   1.215   0.195   9.799  0.4466 -0.1186 -0.7483
  147SAPE  C21116222   1.414   0.111   9.740  1.1372 -0.4623 -0.3244
  147SAPE  H11R16223   1.499   0.064   9.793  2.3507  0.9282 -0.9855
  147SAPE  C21216224   1.415   0.114   9.608  0.3287  0.3909  0.2750
  147SAPE  H12R16225   1.485   0.047   9.556 -1.2603 -0.2114 -1.1538
  147SAPE  C21316226   1.312   0.183   9.526 -0.2983  0.2534  0.0464
  147SAPE  H13R16227   1.248   0.241   9.596 -0.5495 -1.7192  1.4780
  147SAPE  H13S16228   1.257   0.100   9.479 -0.1230  0.5460 -0.6812
  147SAPE  C21416229   1.384   0.267   9.422  1.3209 -0.6346 -0.8505
  147SAPE  H14R16230   1.414   0.364   9.463 -1.6471  0.6088 -1.4472
  147SAPE  C21516231   1.409   0.248   9.294 -0.8323  1.0482  0.6543
  147SAPE  H15R16232   1.464   0.326   9.240 -1.1468  0.5031 -0.4904
  147SAPE  C21616233   1.368   0.122   9.221 -0.2880 -0.1141  0.3743
  147SAPE  H16R16234   1.360   0.031   9.283  0.9672 -0.8325 -0.5027
  147SAPE  H16S16235   1.456   0.093   9.160 -0.4288  1.3443 -0.5642
  147SAPE  C21716236   1.243   0.137   9.133 -0.4973  0.1822 -0.0901
  147SAPE  H17R16237   1.241   0.243   9.098  0.7542  0.1593 -0.2317
  147SAPE  H17S16238   1.154   0.126   9.198  0.0474  0.9823  0.7992
  147SAPE  C21816239   1.226   0.051   9.013 -0.3969 -0.3403  0.6569
  147SAPE  H18R16240   1.193  -0.052   9.037 -2.2487  0.2361  0.6912
  147SAPE  H18S16241   1.324   0.057   8.961 -0.7808 -0.2559 -0.0655
  147SAPE  C21916242   1.133   0.112   8.915 -0.5519  0.0864  0.2382
  147SAPE  H19R16243   1.172   0.215   8.899  1.4499 -0.6947 -0.1115
  147SAPE  H19S16244   1.041   0.120   8.976  0.9113  0.1880  2.4884
  147SAPE  C22016245   1.119   0.033   8.782 -0.6232 -0.2980  0.1431
  147SAPE  H20R16246   1.214   0.013   8.729 -1.0429  0.7377 -1.0371
  147SAPE  H20S16247   1.068   0.100   8.710  0.6191  0.3238 -0.1698
  147SAPE  H20T16248   1.063  -0.059   8.813 -2.0873  0.0830 -1.2824
  147SAPE   C3316249   1.192  -0.244  10.429  0.0222  0.4143  0.3415
  147SAPE   H3X16250   1.180  -0.344  10.476  0.0452  0.2451 -0.0144
  147SAPE   H3Y16251   1.302  -0.230  10.422  0.0762  0.1069  0.5592
  147SAPE   C3416252   1.124  -0.242  10.290 -0.1916  0.6838 -0.7678
  147SAPE   H4X16253   1.100  -0.139  10.258 -0.7616  1.0033  0.6165
  147SAPE   H4Y16254   1.030  -0.299  10.309 -0.0931  1.5756  2.8017
  147SAPE   C3516255   1.199  -0.318  10.178  0.2671  0.3956  0.7173
  147SAPE   H5X16256   1.246  -0.408  10.225 -0.2672 -1.2697 -1.8159
  147SAPE   H5Y16257   1.281  -0.252  10.143  0.2556  0.0559  0.0477
  147SAPE   C3616258   1.096  -0.370  10.066  0.1793 -0.0258  0.0167
  147SAPE   H6X16259   1.011  -0.299  10.071  0.5510  0.4543 -0.4514
  147SAPE   H6Y16260   1.048  -0.465  10.100 -1.6404  0.7150 -0.4401
  147SAPE   C3716261   1.165  -0.392   9.931 -0.9574 -0.0887 -0.3269
  147SAPE   H7X16262   1.265  -0.441   9.941 -0.4642  0.7892 -0.8342
  147SAPE   H7Y16263   1.175  -0.297   9.873 -1.7564 -0.2092 -0.6619
  147SAPE   C3816264   1.094  -0.491   9.841  0.2358 -0.4685  0.4169
  147SAPE   H8X16265   0.999  -0.454   9.797 -0.4872 -0.4644  1.9561
  147SAPE   H8Y16266   1.071  -0.587   9.892 -2.6569 -0.6584 -1.1766
  147SAPE   C3916267   1.179  -0.527   9.712  0.0099  0.0931 -0.4427
  147SAPE   H9X16268   1.275  -0.570   9.749  1.0626  0.4043 -2.7228
  147SAPE   H9Y16269   1.191  -0.445   9.639  2.8040  0.7928  0.7692
  147SAPE  C31016270   1.094  -0.634   9.632 -1.3021 -0.0196  0.1017
  147SAPE  H10X16271   1.001  -0.584   9.598  0.7334  0.6665 -4.8281
  147SAPE  H10Y16272   1.076  -0.722   9.697  0.0151  0.9762  1.8424
  147SAPE  C31116273   1.166  -0.677   9.499  0.5316 -0.2509  0.0043
  147SAPE  H11X16274   1.240  -0.757   9.523  2.1041  0.6538 -1.7079
  147SAPE  H11Y16275   1.206  -0.592   9.440 -1.2194 -0.2547 -1.2414
  147SAPE  C31216276   1.073  -0.761   9.407 -0.5622  0.5524  0.8283
  147SAPE  H12X16277   0.975  -0.710   9.397 -0.2151  0.9853 -0.4356
  147SAPE  H12Y16278   1.050  -0.860   9.453 -0.4510 -0.3614 -1.0402
  147SAPE  C31316279   1.137  -0.788   9.265  0.2594  0.1853 -0.0622
  147SAPE  H13X16280   1.235  -0.840   9.264  0.0442 -0.2182 -0.7449
  147SAPE  H13Y16281   1.153  -0.684   9.228 -2.0639  1.9549  3.5950
  147SAPE  C31416282   1.040  -0.869   9.175  0.3218  0.0644  0.4666
  147SAPE  H14X16283   0.954  -0.890   9.241  1.5266 -2.4453  1.3024
  147SAPE  H14Y16284   1.097  -0.959   9.143  1.0343  0.8069 -0.3940
  147SAPE  C31516285   0.987  -0.782   9.053 -0.3186  0.0637 -0.8763
  147SAPE  H15X16286   0.962  -0.682   9.095 -1.8658 -0.1479 -1.2533
  147SAPE  H15Y16287   0.889  -0.831   9.035  0.1101 -2.0548  2.1936
  147SAPE  C31616288   1.078  -0.767   8.933  0.3303 -0.7010  0.6498
  147SAPE  H16X16289   1.071  -0.856   8.867 -1.1306 -1.0141  1.1977
  147SAPE  H16Y16290   1.180  -0.742   8.969  0.7778 -2.3410  0.5926
  147SAPE  C31716291   1.020  -0.654   8.841 -0.0835  0.7108  0.0383
  147SAPE  H17X16292   1.091  -0.650   8.755  1.1832 -1.3192  0.9363
  147SAPE  H17Y16293   1.036  -0.560   8.897  0.8174  0.2941  0.5066
  147SAPE  C31816294   0.869  -0.662   8.792  0.0834  0.4022 -0.5858
  147SAPE  H18X16295   0.843  -0.593   8.708 -0.3036 -0.5242 -1.2343
  147SAPE  H18Y16296   0.798  -0.644   8.875 -0.5195 -1.4542 -0.6838
  147SAPE  H18Z16297   0.836  -0.762   8.757  1.3553 -0.0660 -0.5017
  148SAPE     N16298   2.363   2.098  11.020 -0.0856  0.0065  0.1240
  148SAPE   HN116299   2.368   2.055  11.114  1.4882  0.3184  0.1873
  148SAPE   HN216300   2.442   2.164  11.010  0.3416 -0.6096 -0.5774
  148SAPE   HN316301   2.271   2.148  11.014 -0.8547 -1.3267  0.5405
  148SAPE   C1216302   2.382   1.986  10.921  0.7935  0.7800  0.6611
  148SAPE  H12A16303   2.331   1.899  10.968  1.4730  1.1581  2.1239
  148SAPE  H12B16304   2.490   1.966  10.912  0.2062 -2.5788  0.3994
  148SAPE   C1116305   2.321   2.018  10.780 -1.0003  0.2911  0.1557
  148SAPE  H11A16306   2.212   2.041  10.782 -1.0702 -0.0662  0.3569
  148SAPE  H11B16307   2.339   1.922  10.727 -0.3019  0.7419 -0.4314
  148SAPE     P16308   2.451   2.128  10.585 -0.1095  0.3610 -0.0094
  148SAPE   O1316309   2.432   2.258  10.518 -0.0904  0.6492  0.4321
  148SAPE   O1416310   2.592   2.080  10.597  0.1631 -0.4108  0.1334
  148SAPE   O1216311   2.379   2.137  10.724  0.2562  0.2761  0.3237
  148SAPE   O1116312   2.378   2.023  10.501  0.2851  0.1769 -0.6057
  148SAPE    C116313   2.248   2.049  10.446 -0.8619  0.2089  0.8665
  148SAPE    HA16314   2.169   1.986  10.491 -1.1591  0.1563  0.2738
  148SAPE    HB16315   2.225   2.158  10.455  1.3152  1.0313 -2.4419
  148SAPE    C216316   2.251   2.026  10.287 -0.2480 -0.3235 -0.1744
  148SAPE    HS16317   2.261   1.916  10.273  0.1561 -0.3785  0.4947
  148SAPE   O2116318   2.367   2.096  10.233 -0.0892  0.2935  0.0836
  148SAPE   C2116319   2.483   2.043  10.236 -0.0100 -0.0696  0.0894
  148SAPE   O2216320   2.507   1.924  10.254  0.5505  0.0518  0.0760
  148SAPE   C2216321   2.601   2.138  10.196  0.1829  0.3542  0.4452
  148SAPE   H2R16322   2.570   2.238  10.233  0.4235  0.5218  0.1951
  148SAPE   H2S16323   2.690   2.107  10.255  1.9482 -0.4398 -2.5485
  148SAPE    C316324   2.123   2.086  10.212 -0.4889  0.8601  0.0084
  148SAPE    HX16325   2.134   2.195  10.232 -0.5214  0.6784  1.0782
  148SAPE    HY16326   2.031   2.057  10.267 -1.5712 -0.8344 -2.6469
  148SAPE   O3116327   2.122   2.046  10.070  0.3893 -0.3863  0.2996
  148SAPE   C3116328   2.026   2.116  10.002  0.6439 -0.2745  0.1378
  148SAPE   O3216329   1.950   2.199  10.053 -0.4174  0.4532  0.1591
  148SAPE   C3216330   2.013   2.056   9.862  0.1265  0.8958 -0.9707
  148SAPE   H2X16331   1.984   1.949   9.874 -0.0136  0.9792 -0.5732
  148SAPE   H2Y16332   2.115   2.047   9.820  0.5754  0.2519  0.2417
  148SAPE   C2316333   2.654   2.139  10.045 -0.3570 -0.1268 -1.0541
  148SAPE   H3R16334   2.581   2.184   9.974 -3.2277 -2.6045  0.2136
  148SAPE   H3S16335   2.668   2.042   9.991  2.7081  0.5833 -1.6511
  148SAPE   C2416336   2.787   2.215  10.033  0.0685  0.6860 -0.1400
  148SAPE   H4R16337   2.813   2.205   9.925  1.1387  3.9910 -0.2541
  148SAPE   H4S16338   2.867   2.158  10.084 -0.4988 -1.1593 -1.2793
  148SAPE   C2516339   2.762   2.353  10.093  0.4622 -0.6634  0.1700
  148SAPE   H5R16340   2.791   2.373  10.198 -0.0186  2.6021 -0.2743
  148SAPE   C2616341   2.727   2.468  10.027  0.0759 -0.1363  0.6942
  148SAPE   H6R16342   2.715   2.562  10.082  1.2503  1.0147 -0.9345
  148SAPE   C2716343   2.698   2.481   9.883  0.1967 -0.0873  0.1927
  148SAPE   H7R16344   2.602   2.535   9.868  0.4442  0.3216  0.0579
  148SAPE   H7S16345   2.688   2.382   9.835  0.4368 -0.4112  0.8090
  148SAPE   C2816346   2.784   2.571   9.801 -0.1365  0.0100  0.7975
  148SAPE   H8R16347   2.829   2.655   9.855  1.6331 -0.3496 -0.1081
  148SAPE   C2916348   2.817   2.558   9.673 -0.4224  0.4631  1.3751
  148SAPE   H9R16349   2.869   2.644   9.628 -2.3631  0.5129 -0.8625
  148SAPE  C21016350   2.769   2.451   9.579 -0.3630  0.0568 -0.2099
  148SAPE  H10R16351   2.727   2.364   9.634 -2.3023  2.3345  2.0445
  148SAPE  H10S16352   2.859   2.404   9.535  0.0591  1.0763 -0.4428
  148SAPE  C21116353   2.664   2.486   9.484 -0.0517  0.9085 -0.3175
  148SAPE  H11R16354   2.568   2.463   9.533  2.3017 -1.5960  3.4430
  148SAPE  C21216355   2.690   2.556   9.365 -0.3674  0.0747 -0.5241
  148SAPE  H12R16356   2.606   2.584   9.299  0.6302 -0.0880 -1.8824
  148SAPE  C21316357   2.822   2.599   9.313 -0.3035 -0.0336 -0.4474
  148SAPE  H13R16358   2.876   2.670   9.380  2.5454 -1.6148 -0.9499
  148SAPE  H13S16359   2.802   2.654   9.218  0.6180 -0.9166 -1.1749
  148SAPE  C21416360   2.922   2.494   9.272  0.2052  0.6233  0.4108
  148SAPE  H14R16361   3.004   2.499   9.344 -1.0363  1.5542  1.7932
  148SAPE  C21516362   2.908   2.403   9.176  0.6666  0.3943 -0.3153
  148SAPE  H15R16363   2.989   2.332   9.153 -0.1089  0.1386 -2.4204
  148SAPE  C21616364   2.789   2.397   9.081  0.3353 -0.5533  0.4969
  148SAPE  H16R16365   2.715   2.478   9.098  1.3497  0.2213  1.2839
  148SAPE  H16S16366   2.742   2.297   9.093  0.1303 -0.5630 -0.3126
  148SAPE  C21716367   2.826   2.415   8.933 -0.0711  0.0421  0.0109
  148SAPE  H17R16368   2.866   2.517   8.913 -1.8895  0.5176 -1.3611
  148SAPE  H17S16369   2.736   2.404   8.869 -0.9032  1.3374  0.9409
  148SAPE  C21816370   2.913   2.300   8.876 -0.2830 -0.3686  0.1761
  148SAPE  H18R16371   2.893   2.200   8.920  1.1076 -1.0617 -0.7511
  148SAPE  H18S16372   3.022   2.315   8.895 -0.4076 -1.3515  1.8171
  148SAPE  C21916373   2.911   2.283   8.727 -0.5236 -0.1798  0.6178
  148SAPE  H19R16374   2.809   2.242   8.708 -1.0523  1.0913  0.6235
  148SAPE  H19S16375   2.977   2.200   8.693  0.7049  0.9511  0.1841
  148SAPE  C22016376   2.935   2.411   8.643 -0.2763  0.7767 -0.4156
  148SAPE  H20R16377   2.969   2.380   8.542  1.4258  0.4281  0.2465
  148SAPE  H20S16378   3.019   2.477   8.674 -0.3471 -0.0015  1.4686
  148SAPE  H20T16379   2.844   2.475   8.634 -0.7920 -0.0141 -0.8121
  148SAPE   C3316380   1.899   2.114   9.784 -0.7300  0.3620  0.5044
  148SAPE   H3X16381   1.925   2.214   9.744  0.7484  0.6547  2.1485
  148SAPE   H3Y16382   1.812   2.127   9.852 -1.4965 -2.7854  0.2285
  148SAPE   C3416383   1.856   2.045   9.652 -0.5877  0.8905 -0.2679
  148SAPE   H4X16384   1.767   2.101   9.614 -2.4419 -3.6349 -3.0376
  148SAPE   H4Y16385   1.832   1.941   9.680  0.6890  0.6475 -0.0477
  148SAPE   C3516386   1.959   2.051   9.532  0.0725 -0.0239  0.3232
  148SAPE   H5X16387   2.043   1.987   9.567  0.6158  0.1780 -0.6102
  148SAPE   H5Y16388   2.003   2.144   9.489 -1.9028 -0.0067 -1.7584
  148SAPE   C3616389   1.903   2.000   9.400 -0.1325  0.5208  0.5617
  148SAPE   H6X16390   1.842   2.075   9.346  0.2458  0.3268 -0.1471
  148SAPE   H6Y16391   1.841   1.910   9.422  1.0492 -0.3278  0.4379
  148SAPE   C3716392   2.023   1.961   9.308  0.5048 -0.5329 -0.6570
  148SAPE   H7X16393   2.082   1.877   9.350  0.6356  0.8676  2.0577
  148SAPE   H7Y16394   2.088   2.050   9.298 -1.0933  0.8613  0.9754
  148SAPE   C3816395   1.973   1.930   9.171  0.2111 -0.0303 -0.2046
  148SAPE   H8X16396   1.884   1.988   9.137 -0.0494 -0.6557 -0.5988
  148SAPE   H8Y16397   1.939   1.825   9.165  1.7503 -0.4936 -0.8089
  148SAPE   C3916398   2.083   1.942   9.072 -0.0365  1.5035 -0.0430
  148SAPE   H9X16399   2.175   1.886   9.101 -1.0236 -0.4052 -0.5612
  148SAPE   H9Y16400   2.110   2.049   9.060  0.4549  1.4620  0.6898
  148SAPE  C31016401   2.038   1.896   8.933  0.8019  0.2634  0.2152
  148SAPE  H10X16402   1.945   1.951   8.906  0.3109 -0.4539  0.4275
  148SAPE  H10Y16403   2.010   1.789   8.945  0.5641 -0.1209 -3.2050
  148SAPE  C31116404   2.132   1.911   8.812  0.1466 -0.1088  0.2570
  148SAPE  H11X16405   2.077   1.874   8.723  1.8309 -0.3517 -0.7111
  148SAPE  H11Y16406   2.224   1.852   8.829  1.8133  2.2380 -0.3248
  148SAPE  C31216407   2.180   2.049   8.781  0.4859  0.0782 -0.2155
  148SAPE  H12X16408   2.253   2.048   8.697 -0.3117  2.0934 -0.9677
  148SAPE  H12Y16409   2.237   2.085   8.870  0.6475  0.5469 -0.5094
  148SAPE  C31316410   2.073   2.149   8.738  0.0267 -0.4278 -0.3561
  148SAPE  H13X16411   2.006   2.164   8.825  0.3068  1.2843 -0.4048
  148SAPE  H13Y16412   1.996   2.112   8.667 -0.7600 -0.4311  0.4977
  148SAPE  C31416413   2.139   2.284   8.695 -0.0543  1.0708 -0.0045
  148SAPE  H14X16414   2.180   2.269   8.593 -0.2668  2.9569 -0.3902
  148SAPE  H14Y16415   2.212   2.312   8.774 -0.4929 -1.2662  1.2724
  148SAPE  C31516416   2.038   2.396   8.678 -0.3417 -0.6739 -0.4641
  148SAPE  H15X16417   2.090   2.493   8.658  0.7803 -1.0486  0.5350
  148SAPE  H15Y16418   1.971   2.404   8.766 -1.2728  0.3695 -1.2448
  148SAPE  C31616419   1.942   2.365   8.565  0.1001  0.3406 -0.5231
  148SAPE  H16X16420   1.900   2.264   8.580 -1.5168  0.7477 -2.0460
  148SAPE  H16Y16421   1.999   2.351   8.470 -0.9958 -1.9650 -0.8825
  148SAPE  C31716422   1.823   2.454   8.549 -0.8633  0.8789  0.0125
  148SAPE  H17X16423   1.856   2.552   8.510 -0.8162  0.8874  0.0740
  148SAPE  H17Y16424   1.766   2.457   8.645  1.1415 -1.3111  1.3266
  148SAPE  C31816425   1.727   2.402   8.446 -0.0657 -0.0405 -0.4354
  148SAPE  H18X16426   1.697   2.298   8.472 -0.5948  1.2457  4.5898
  148SAPE  H18Y16427   1.781   2.407   8.349 -1.3442  0.5027 -1.1294
  148SAPE  H18Z16428   1.647   2.476   8.426 -0.3318 -0.4851 -1.0369
  149SAPE     N16429   4.910   3.136  11.342  0.1780  0.7048 -0.3916
  149SAPE   HN116430   4.926   3.069  11.265 -0.7836 -1.2203  1.0279
  149SAPE   HN216431   4.982   3.211  11.342  0.2176  0.6693  0.2244
  149SAPE   HN316432   4.915   3.076  11.427  0.1318 -1.3317 -1.7906
  149SAPE   C1216433   4.779   3.201  11.341 -0.6001 -0.0506 -0.3921
  149SAPE  H12A16434   4.778   3.290  11.274 -0.7182 -1.6055 -2.5380
  149SAPE  H12B16435   4.748   3.239  11.440 -1.3308  2.7645 -1.6333
  149SAPE   C1116436   4.662   3.109  11.309 -0.1733  0.4231 -0.0575
  149SAPE  H11A16437   4.572   3.162  11.345 -0.2004  0.0084  0.4974
  149SAPE  H11B16438   4.673   3.017  11.371 -0.2078  0.2706 -0.2743
  149SAPE     P16439   4.535   3.057  11.096  0.0552  0.0814 -0.1717
  149SAPE   O1316440   4.454   2.946  11.155 -0.0949 -0.0953 -0.4248
  149SAPE   O1416441   4.477   3.192  11.092  0.1127  0.4016 -0.4626
  149SAPE   O1216442   4.668   3.075  11.171 -0.2280 -0.0266 -0.1276
  149SAPE   O1116443   4.581   3.012  10.954  0.6415  0.6961  0.2375
  149SAPE    C116444   4.716   3.008  10.904 -0.8799  0.6866  0.1831
  149SAPE    HA16445   4.784   2.982  10.987  0.1413  2.4212 -0.0661
  149SAPE    HB16446   4.719   2.940  10.816  2.7109  0.9871 -0.0099
  149SAPE    C216447   4.759   3.150  10.853 -1.0081  0.0826  0.0512
  149SAPE    HS16448   4.755   3.205  10.949 -1.4885  2.1036 -1.0958
  149SAPE   O2116449   4.660   3.204  10.756  0.2818  0.0092 -0.3151
  149SAPE   C2116450   4.674   3.335  10.730 -0.8111  0.1894 -0.1221
  149SAPE   O2216451   4.746   3.416  10.781  0.0173  0.2101 -0.1225
  149SAPE   C2216452   4.584   3.359  10.606 -0.6011 -0.4018 -0.3513
  149SAPE   H2R16453   4.591   3.281  10.527 -0.7188  0.1560 -0.9199
  149SAPE   H2S16454   4.479   3.361  10.642 -0.6269 -4.6539 -0.0276
  149SAPE    C316455   4.901   3.152  10.785 -0.4033  0.4635 -0.1867
  149SAPE    HX16456   4.971   3.118  10.865 -1.0239 -0.3210  0.0253
  149SAPE    HY16457   4.935   3.257  10.771  2.2611 -0.6162 -2.1851
  149SAPE   O3116458   4.917   3.083  10.662  0.1195  0.3819  0.4892
  149SAPE   C3116459   4.997   2.979  10.662 -0.5954  0.1169 -0.1059
  149SAPE   O3216460   5.026   2.910  10.757 -0.1816  0.5434  0.6868
  149SAPE   C3216461   5.053   2.959  10.519  0.2107 -0.3626  0.0267
  149SAPE   H2X16462   5.114   2.865  10.517 -0.0527 -0.5094 -1.9923
  149SAPE   H2Y16463   5.119   3.047  10.504 -2.8130  2.3345  2.1102
  149SAPE   C2316464   4.623   3.503  10.544  0.5199 -0.6794 -0.5360
  149SAPE   H3R16465   4.617   3.585  10.619  1.1210  0.5060 -1.7448
  149SAPE   H3S16466   4.536   3.531  10.482 -1.0633 -1.3479  1.3529
  149SAPE   C2416467   4.755   3.515  10.455  0.0679  0.6813  0.2697
  149SAPE   H4R16468   4.844   3.507  10.521  0.4875 -2.8476 -0.6384
  149SAPE   H4S16469   4.753   3.622  10.425 -0.8312  1.0357  1.5130
  149SAPE   C2516470   4.784   3.415  10.346  0.3013 -0.6099 -0.0735
  149SAPE   H5R16471   4.782   3.311  10.384  2.9357 -0.3860  0.7848
  149SAPE   C2616472   4.816   3.439  10.214  0.9515 -0.3354  0.2204
  149SAPE   H6R16473   4.826   3.361  10.137  0.4178  0.9481 -1.1736
  149SAPE   C2716474   4.822   3.578  10.157 -0.8930  0.1351  0.1121
  149SAPE   H7R16475   4.744   3.648  10.195 -0.8831 -0.5740  1.4760
  149SAPE   H7S16476   4.796   3.570  10.050  0.7769  1.2670 -0.4030
  149SAPE   C2816477   4.959   3.640  10.170 -0.7417 -0.0794 -0.0536
  149SAPE   H8R16478   5.005   3.639  10.270  0.2490 -2.8108 -0.5187
  149SAPE   C2916479   5.032   3.690  10.070  0.5216  0.1000 -0.5022
  149SAPE   H9R16480   5.124   3.745  10.098  0.3084 -0.5725  1.6165
  149SAPE  C21016481   4.992   3.704   9.929  0.8327 -0.4005  0.9378
  149SAPE  H10R16482   5.041   3.782   9.867 -0.3599  1.4002  2.2006
  149SAPE  H10S16483   4.890   3.748   9.935  1.2621  0.4034  2.4494
  149SAPE  C21116484   4.965   3.577   9.850 -0.2898 -0.6657 -0.5147
  149SAPE  H11R16485   4.989   3.484   9.903 -0.4337 -1.2378 -1.4498
  149SAPE  C21216486   4.922   3.571   9.726  0.1209 -0.7899 -0.2838
  149SAPE  H12R16487   4.910   3.471   9.683  0.3901 -0.2596 -1.6277
  149SAPE  C21316488   4.879   3.681   9.644 -1.0017  0.5760 -0.3345
  149SAPE  H13R16489   4.895   3.656   9.537 -1.6760  1.6278 -0.6904
  149SAPE  H13S16490   4.957   3.760   9.656  0.5839 -0.5153 -3.0589
  149SAPE  C21416491   4.740   3.734   9.681 -0.7496 -0.3068  0.2844
  149SAPE  H14R16492   4.722   3.739   9.790 -0.0423 -0.7193  0.4194
  149SAPE  C21516493   4.635   3.770   9.606 -0.5410  0.0836 -0.1880
  149SAPE  H15R16494   4.536   3.790   9.649 -0.1267  1.3202  0.2084
  149SAPE  C21616495   4.637   3.776   9.454  0.4701 -0.3109 -0.6777
  149SAPE  H16R16496   4.743   3.778   9.421 -0.6135  1.6798 -4.3458
  149SAPE  H16S16497   4.591   3.871   9.417  0.7235 -1.2891 -3.6562
  149SAPE  C21716498   4.568   3.661   9.378 -0.4208  0.7134 -0.3921
  149SAPE  H17R16499   4.459   3.662   9.401  0.0803  1.6016  2.1315
  149SAPE  H17S16500   4.624   3.567   9.400  1.3490  1.8118 -0.0752
  149SAPE  C21816501   4.580   3.687   9.226 -0.0434  0.2869  0.0235
  149SAPE  H18R16502   4.683   3.667   9.188  0.0655  1.8975 -0.5468
  149SAPE  H18S16503   4.575   3.795   9.200 -0.9393  0.1440 -0.4074
  149SAPE  C21916504   4.473   3.605   9.146 -0.0019 -0.1426  0.0426
  149SAPE  H19R16505   4.371   3.630   9.182  0.8746  0.5854  2.1162
  149SAPE  H19S16506   4.505   3.500   9.161  3.1000  1.0660  2.4992
  149SAPE  C22016507   4.486   3.634   8.996  0.0663 -0.2028 -0.5085
  149SAPE  H20R16508   4.454   3.739   8.979  1.3129  0.3434  0.4619
  149SAPE  H20S16509   4.418   3.569   8.935  0.5847  1.4499 -2.9159
  149SAPE  H20T16510   4.589   3.621   8.957  1.0102 -1.1557  2.2009
  149SAPE   C3316511   4.943   2.947  10.409 -0.4425  0.0847  0.4910
  149SAPE   H3X16512   4.868   3.023  10.439 -0.1502  0.1133  1.1490
  149SAPE   H3Y16513   4.888   2.850  10.409 -3.5009  1.6749 -2.1260
  149SAPE   C3416514   4.976   2.988  10.261 -0.2183 -0.6889  0.2465
  149SAPE   H4X16515   5.076   2.959  10.223 -0.2393 -0.5171  0.0610
  149SAPE   H4Y16516   4.992   3.098  10.263  1.4055 -0.9145  0.7849
  149SAPE   C3516517   4.874   2.934  10.166 -0.1879 -0.1685  0.0558
  149SAPE   H5X16518   4.779   2.988  10.191  0.4180  1.4205 -0.9650
  149SAPE   H5Y16519   4.835   2.831  10.175 -0.7200  0.0015 -0.2272
  149SAPE   C3616520   4.902   2.961  10.017 -0.3004  0.5199  0.3817
  149SAPE   H6X16521   4.995   2.907   9.992  0.2175  1.3934  0.4091
  149SAPE   H6Y16522   4.919   3.069   9.997 -1.2968  0.3853 -1.3677
  149SAPE   C3716523   4.793   2.916   9.925  0.1935 -0.0333 -0.2880
  149SAPE   H7X16524   4.702   2.976   9.945  0.9588  1.0240  0.0560
  149SAPE   H7Y16525   4.755   2.816   9.957 -1.8548  1.3012  1.5829
  149SAPE   C3816526   4.853   2.923   9.781  0.0536  0.0118  0.2634
  149SAPE   H8X16527   4.944   2.859   9.786 -0.2156 -0.2618  2.2550
  149SAPE   H8Y16528   4.892   3.025   9.761  2.8738 -0.7398  1.5472
  149SAPE   C3916529   4.751   2.883   9.676  0.3890  0.0062 -0.2348
  149SAPE   H9X16530   4.651   2.931   9.681 -0.5103 -1.7319 -1.2344
  149SAPE   H9Y16531   4.735   2.774   9.688 -1.7571  0.2266 -0.7921
  149SAPE  C31016532   4.810   2.913   9.541 -0.0565  0.0864 -0.2122
  149SAPE  H10X16533   4.906   2.860   9.523 -1.2195 -2.1393 -0.0457
  149SAPE  H10Y16534   4.838   3.020   9.537  0.1953 -0.0299 -1.9657
  149SAPE  C31116535   4.716   2.886   9.416 -0.6172 -0.3382  0.6968
  149SAPE  H11X16536   4.636   2.961   9.401 -0.0657 -0.0253 -0.7530
  149SAPE  H11Y16537   4.657   2.796   9.445 -1.5087  0.6340  1.9823
  149SAPE  C31216538   4.789   2.858   9.287 -0.2313  0.0899  0.2247
  149SAPE  H12X16539   4.872   2.790   9.315  1.4197  2.6255  1.7510
  149SAPE  H12Y16540   4.844   2.950   9.259  0.4904 -0.6484 -0.8117
  149SAPE  C31316541   4.718   2.790   9.173 -0.1443 -0.3510 -0.3047
  149SAPE  H13X16542   4.630   2.848   9.136 -1.5263 -0.7078  2.2548
  149SAPE  H13Y16543   4.675   2.694   9.209 -2.2644  0.6729 -0.0147
  149SAPE  C31416544   4.815   2.754   9.063 -0.1459  0.1173 -1.0402
  149SAPE  H14X16545   4.883   2.670   9.089  0.4426  1.1394  0.8070
  149SAPE  H14Y16546   4.880   2.844   9.062  1.9132 -1.2510  2.2005
  149SAPE  C31516547   4.751   2.735   8.922 -0.1632  0.0832  0.5269
  149SAPE  H15X16548   4.670   2.810   8.907 -0.0782 -0.2861 -2.0702
  149SAPE  H15Y16549   4.698   2.638   8.923 -1.2305  0.6560  1.5107
  149SAPE  C31616550   4.850   2.714   8.817 -0.3432 -0.2429  0.0015
  149SAPE  H16X16551   4.930   2.640   8.841  1.3739  1.8107  0.8457
  149SAPE  H16Y16552   4.904   2.809   8.797 -0.2307 -0.5281 -1.0582
  149SAPE  C31716553   4.797   2.678   8.681  0.5135 -0.4636 -0.2932
  149SAPE  H17X16554   4.731   2.759   8.643  0.0399  0.1729  1.8411
  149SAPE  H17Y16555   4.711   2.610   8.702  0.1578  0.5768  1.8038
  149SAPE  C31816556   4.889   2.627   8.574  0.7563 -0.1295 -0.3862
  149SAPE  H18X16557   4.980   2.689   8.557  1.2828 -0.8737 -0.3431
  149SAPE  H18Y16558   4.840   2.615   8.475  1.5040 -0.6160 -0.7066
  149SAPE  H18Z16559   4.930   2.530   8.609 -1.4454 -0.6808  0.7443
  150SAPE     N16560   6.298   3.282  10.987 -0.8017  0.3980 -0.1426
  150SAPE   HN116561   6.366   3.346  11.033  0.1699  0.0435 -1.0528
  150SAPE   HN216562   6.295   3.315  10.889  3.3107 -0.7057 -0.7400
  150SAPE   HN316563   6.202   3.287  11.025 -0.5602 -2.2239  0.9168
  150SAPE   C1216564   6.336   3.138  10.988 -0.4638  0.1146  0.2207
  150SAPE  H12A16565   6.252   3.078  10.948 -1.2796  1.0347  0.5415
  150SAPE  H12B16566   6.341   3.116  11.097  0.2170 -0.4589  0.0787
  150SAPE   C1116567   6.458   3.095  10.914 -0.2487  0.9753  0.2433
  150SAPE  H11A16568   6.446   3.092  10.804  0.8683 -0.4317  0.1366
  150SAPE  H11B16569   6.479   2.988  10.936 -1.2629  0.3768 -1.6109
  150SAPE     P16570   6.623   3.300  10.869  0.1629  0.2224  0.2251
  150SAPE   O1316571   6.511   3.391  10.832 -0.1551 -0.0135 -0.2353
  150SAPE   O1416572   6.734   3.366  10.943  0.4206 -0.6409 -0.1760
  150SAPE   O1216573   6.571   3.179  10.951  0.0098  0.4283  1.2549
  150SAPE   O1116574   6.676   3.235  10.739 -0.2000  0.2061  0.5188
  150SAPE    C116575   6.719   3.315  10.634 -0.1497 -0.1219 -0.6840
  150SAPE    HA16576   6.702   3.425  10.641  0.8028  0.1447 -2.3118
  150SAPE    HB16577   6.829   3.298  10.628 -0.4699 -2.4932 -0.3522
  150SAPE    C216578   6.680   3.259  10.500 -0.2344 -0.5183  0.5282
  150SAPE    HS16579   6.696   3.334  10.419  1.9012  0.3248  1.7091
  150SAPE   O2116580   6.552   3.213  10.490 -0.1164  0.1573  0.0142
  150SAPE   C2116581   6.460   3.315  10.509  0.1701  0.0381 -0.6704
  150SAPE   O2216582   6.484   3.434  10.495  0.1776 -0.4076  0.2544
  150SAPE   C2216583   6.319   3.255  10.534  0.2738 -0.0088 -0.2042
  150SAPE   H2R16584   6.294   3.265  10.642 -0.4300  1.0162 -0.4517
  150SAPE   H2S16585   6.255   3.324  10.475 -0.4649  0.8936  1.5938
  150SAPE    C316586   6.776   3.137  10.465  0.3641 -1.2187 -0.2148
  150SAPE    HX16587   6.731   3.095  10.372  0.0813  1.7616 -1.4795
  150SAPE    HY16588   6.762   3.065  10.548 -1.5098  0.8562  1.3495
  150SAPE   O3116589   6.912   3.177  10.440  0.0561 -0.2624 -0.7400
  150SAPE   C3116590   6.987   3.078  10.387 -0.7171  0.0243  0.2541
  150SAPE   O3216591   6.936   2.974  10.356  0.1132 -0.2445  0.0355
  150SAPE   C3216592   7.134   3.126  10.361 -0.1880 -0.6082  0.0567
  150SAPE   H2X16593   7.168   3.128  10.466 -1.4055 -1.6079  0.4824
  150SAPE   H2Y16594   7.131   3.226  10.313 -1.5759 -0.7512 -0.1860
  150SAPE   C2316595   6.295   3.107  10.493  0.2923  0.1979 -0.0763
  150SAPE   H3R16596   6.344   3.044  10.571  1.2355 -1.0341 -1.6243
  150SAPE   H3S16597   6.352   3.087  10.399 -1.3306 -0.7327 -0.8973
  150SAPE   C2416598   6.140   3.070  10.477  0.4733  0.5162 -0.1492
  150SAPE   H4R16599   6.098   3.128  10.393 -1.0405  1.8224  1.4545
  150SAPE   H4S16600   6.101   3.114  10.571 -0.1132 -0.5736  0.1300
  150SAPE   C2516601   6.124   2.925  10.475 -0.8340  0.3192 -0.0041
  150SAPE   H5R16602   6.139   2.863  10.565 -0.7773 -1.5740 -1.2930
  150SAPE   C2616603   6.104   2.854  10.356 -0.4666 -0.1352 -0.9784
  150SAPE   H6R16604   6.104   2.745  10.364 -2.1778 -0.2617 -2.5066
  150SAPE   C2716605   6.093   2.903  10.211 -0.5961  0.4737 -0.8292
  150SAPE   H7R16606   6.192   2.932  10.169 -0.7270  0.4150 -1.1843
  150SAPE   H7S16607   6.018   2.984  10.200 -0.1848  0.9502 -0.0851
  150SAPE   C2816608   6.042   2.792  10.124  0.4699  0.2459  0.3333
  150SAPE   H8R16609   5.991   2.705  10.169 -1.7741  0.3067 -2.0176
  150SAPE   C2916610   6.053   2.794   9.986  0.1956  0.2422 -0.3172
  150SAPE   H9R16611   6.008   2.711   9.930 -0.1671 -1.0571  1.8613
  150SAPE  C21016612   6.123   2.896   9.899  0.9354  0.2130  0.0161
  150SAPE  H10R16613   6.203   2.853   9.834  0.4018  2.0450 -1.9104
  150SAPE  H10S16614   6.170   2.978   9.956  1.2510 -1.2688  1.9464
  150SAPE  C21116615   6.011   2.940   9.806 -1.2320 -0.3608 -0.2554
  150SAPE  H11R16616   5.943   3.017   9.845 -0.9888 -0.6058  0.6599
  150SAPE  C21216617   6.006   2.921   9.670 -0.2476  0.8491  0.1843
  150SAPE  H12R16618   5.916   2.958   9.620 -0.0234 -0.4233 -1.1935
  150SAPE  C21316619   6.100   2.840   9.582 -0.3792  0.1160  0.3531
  150SAPE  H13R16620   6.175   2.790   9.647  1.3920  0.6523 -1.2404
  150SAPE  H13S16621   6.145   2.914   9.512  0.3271 -0.2485  0.4201
  150SAPE  C21416622   6.024   2.749   9.492  0.2710 -0.2057 -0.8481
  150SAPE  H14R16623   5.980   2.665   9.548  0.2005 -0.8174 -1.8161
  150SAPE  C21516624   6.002   2.750   9.357 -1.0513 -0.1982  0.0317
  150SAPE  H15R16625   5.931   2.677   9.317 -1.3625 -0.7436  1.5548
  150SAPE  C21616626   6.054   2.854   9.260  0.7762 -0.0450  0.8042
  150SAPE  H16R16627   6.149   2.817   9.217  0.5830  1.2525 -0.7989
  150SAPE  H16S16628   6.066   2.948   9.319  0.0933  0.4676  0.1469
  150SAPE  C21716629   5.954   2.891   9.151  0.2577  0.2954 -0.2920
  150SAPE  H17R16630   5.972   2.993   9.111 -2.6362  2.0124  2.5391
  150SAPE  H17S16631   5.851   2.869   9.186 -0.4489  0.8816 -1.9416
  150SAPE  C21816632   5.952   2.789   9.044 -0.6665 -0.6291  0.4645
  150SAPE  H18R16633   5.973   2.682   9.065 -0.5929 -0.8852 -0.8667
  150SAPE  H18S16634   6.023   2.827   8.967  0.1234  0.3072  1.6284
  150SAPE  C21916635   5.814   2.799   8.968 -0.2059  0.1573  0.1815
  150SAPE  H19R16636   5.829   2.787   8.858 -1.5336  0.0398  0.0050
  150SAPE  H19S16637   5.773   2.902   8.972 -0.5945  0.0241 -0.2840
  150SAPE  C22016638   5.710   2.703   9.022 -0.7356  0.2997 -0.4032
  150SAPE  H20R16639   5.677   2.721   9.127 -1.0202  2.4852 -0.8411
  150SAPE  H20S16640   5.746   2.600   9.001 -0.6027  0.5851 -1.5887
  150SAPE  H20T16641   5.615   2.716   8.966 -1.9769  1.2111  1.8522
  150SAPE   C3316642   7.209   3.037  10.255 -0.1550 -0.4251  0.4166
  150SAPE   H3X16643   7.193   2.932  10.288 -1.9912 -0.4771 -0.5632
  150SAPE   H3Y16644   7.317   3.056  10.237 -0.6088  0.5935 -1.3361
  150SAPE   C3416645   7.146   3.041  10.117  0.3716 -1.1331  0.8215
  150SAPE   H4X16646   7.164   3.140  10.069  1.2548 -0.5810  2.2821
  150SAPE   H4Y16647   7.035   3.037  10.120  0.3131 -2.2211 -1.5350
  150SAPE   C3516648   7.208   2.937  10.020 -0.0610  0.0348 -0.4889
  150SAPE   H5X16649   7.225   2.843  10.078 -3.0874  1.1400  2.3485
  150SAPE   H5Y16650   7.298   2.983   9.974  0.2590 -0.2709 -0.1853
  150SAPE   C3616651   7.103   2.896   9.914  0.1618 -0.1428  0.0366
  150SAPE   H6X16652   7.034   2.818   9.953 -0.5649  0.5399  0.1300
  150SAPE   H6Y16653   7.161   2.849   9.831  0.3594 -2.6939  1.5781
  150SAPE   C3716654   7.030   3.012   9.843 -0.1277  0.4722 -0.3124
  150SAPE   H7X16655   7.121   3.070   9.817  1.2003 -2.2266 -1.9274
  150SAPE   H7Y16656   6.979   3.075   9.918 -0.7211 -2.2398  1.6727
  150SAPE   C3816657   6.947   2.960   9.727 -0.7225 -0.1570 -0.3660
  150SAPE   H8X16658   6.875   2.893   9.778  0.3399  0.6807  2.3248
  150SAPE   H8Y16659   7.013   2.911   9.653  0.8236 -1.4065  1.7761
  150SAPE   C3916660   6.875   3.071   9.654 -0.0632 -0.2379 -0.5640
  150SAPE   H9X16661   6.943   3.160   9.656 -0.5301  0.1849 -2.2744
  150SAPE   H9Y16662   6.773   3.095   9.689 -0.1405  0.3676 -1.1805
  150SAPE  C31016663   6.855   3.048   9.498  0.2966 -0.3455  0.0419
  150SAPE  H10X16664   6.775   2.971   9.492 -0.0190  0.1771 -3.5336
  150SAPE  H10Y16665   6.948   3.017   9.446  0.1617 -2.7700  1.1964
  150SAPE  C31116666   6.804   3.174   9.431 -0.9675 -0.4093 -0.2852
  150SAPE  H11X16667   6.890   3.243   9.435 -0.3444 -1.1300 -1.1828
  150SAPE  H11Y16668   6.728   3.229   9.491 -0.2874  0.2964 -0.0712
  150SAPE  C31216669   6.769   3.156   9.280 -0.2143  0.9485 -0.0610
  150SAPE  H12X16670   6.703   3.236   9.240 -1.6342 -0.0510  0.2198
  150SAPE  H12Y16671   6.715   3.059   9.275  2.9304 -0.9517  1.1031
  150SAPE  C31316672   6.890   3.131   9.183 -0.6687 -0.3647 -0.4967
  150SAPE  H13X16673   6.951   3.043   9.213 -2.4795 -0.6555  2.6394
  150SAPE  H13Y16674   6.948   3.225   9.193  0.0306 -0.9829  1.5267
  150SAPE  C31416675   6.844   3.106   9.046  0.6948 -0.1493  0.1987
  150SAPE  H14X16676   6.787   3.188   8.996  0.7773 -0.5670 -0.5896
  150SAPE  H14Y16677   6.774   3.020   9.052  0.5062  0.0604  0.9638
  150SAPE  C31516678   6.959   3.085   8.952 -0.0389  0.3978  0.8268
  150SAPE  H15X16679   7.025   3.008   8.996  0.5042  0.5289  0.2338
  150SAPE  H15Y16680   7.014   3.182   8.945 -0.4970  0.5280 -1.1152
  150SAPE  C31616681   6.916   3.048   8.808 -0.1776 -0.2348  0.2772
  150SAPE  H16X16682   6.868   3.139   8.765  0.9776  0.2709  0.0527
  150SAPE  H16Y16683   6.854   2.956   8.817  0.2033 -0.8862 -3.1167
  150SAPE  C31716684   7.035   3.008   8.716 -0.2106  0.1333 -0.4794
  150SAPE  H17X16685   7.087   2.920   8.761  0.9250  1.2955  0.4989
  150SAPE  H17Y16686   7.104   3.094   8.702  1.1439 -1.0770 -1.4292
  150SAPE  C31816687   7.008   2.955   8.574  0.2354  0.4728 -0.1802
  150SAPE  H18X16688   7.103   2.916   8.531  0.8907  2.0892 -0.2460
  150SAPE  H18Y16689   6.959   3.031   8.510  1.0991  2.4943  1.4616
  150SAPE  H18Z16690   6.949   2.861   8.570  1.5433 -0.3307 -0.7625
  151SAPE     N16691   3.424   0.104  10.680  0.4200 -0.1350 -0.2162
  151SAPE   HN116692   3.465   0.017  10.639  0.6968 -0.9593  1.7737
  151SAPE   HN216693   3.491   0.173  10.720  2.0325 -0.9103 -1.5103
  151SAPE   HN316694   3.359   0.071  10.754 -0.3753 -1.0411 -1.2855
  151SAPE   C1216695   3.343   0.178  10.573  0.6825 -0.3534 -0.0183
  151SAPE  H12A16696   3.303   0.274  10.611  1.8991  0.4128 -0.6277
  151SAPE  H12B16697   3.257   0.114  10.544  0.2547 -0.2723  1.0667
  151SAPE   C1116698   3.429   0.217  10.455  0.2393  0.4606  0.1514
  151SAPE  H11A16699   3.351   0.261  10.389 -1.0498  1.3726  2.2248
  151SAPE  H11B16700   3.474   0.133  10.397 -3.2884 -0.3516 -1.6039
  151SAPE     P16701   3.648   0.345  10.411  0.1364 -0.4645 -0.4308
  151SAPE   O1316702   3.696   0.481  10.433 -0.4828 -0.0120 -0.0359
  151SAPE   O1416703   3.742   0.242  10.450 -0.4146  1.1632 -0.6202
  151SAPE   O1216704   3.524   0.317  10.498  0.0253  0.1460 -0.1827
  151SAPE   O1116705   3.599   0.326  10.265 -0.3285 -0.1881 -0.1591
  151SAPE    C116706   3.528   0.430  10.206  0.5116 -1.0098  0.2278
  151SAPE    HA16707   3.426   0.447  10.248  0.4344 -2.4840  0.6738
  151SAPE    HB16708   3.577   0.527  10.226  1.1970 -1.1103 -0.9614
  151SAPE    C216709   3.533   0.404  10.050 -0.6985  0.0627 -0.1759
  151SAPE    HS16710   3.497   0.497   9.999  0.2003 -0.2912 -1.5006
  151SAPE   O2116711   3.450   0.288  10.016 -0.7849  0.0029  0.5325
  151SAPE   C2116712   3.323   0.305  10.010 -0.2557  0.1296  0.1278
  151SAPE   O2216713   3.265   0.408  10.027 -1.0108  0.3783  0.2177
  151SAPE   C2216714   3.255   0.168   9.974  0.3435  0.0728 -0.7288
  151SAPE   H2R16715   3.333   0.103   9.929  2.5926  2.4130 -0.3429
  151SAPE   H2S16716   3.233   0.120  10.072 -0.3221  1.0275 -0.3918
  151SAPE    C316717   3.675   0.375   9.990  0.4008  0.0436  0.1065
  151SAPE    HX16718   3.711   0.282  10.038  2.5334 -0.5527 -2.5250
  151SAPE    HY16719   3.744   0.455  10.023  1.2605 -0.1388 -1.2243
  151SAPE   O3116720   3.666   0.358   9.848  0.1315  0.3571  0.8675
  151SAPE   C3116721   3.646   0.460   9.769  0.0381 -0.0824 -0.2547
  151SAPE   O3216722   3.650   0.578   9.801 -0.1513  0.3541 -1.0463
  151SAPE   C3216723   3.632   0.405   9.633  0.2675 -0.4236  0.0370
  151SAPE   H2X16724   3.548   0.332   9.638  0.8651 -1.0064  1.9383
  151SAPE   H2Y16725   3.717   0.335   9.620 -0.3867 -1.5386  1.5870
  151SAPE   C2316726   3.125   0.163   9.890  0.1085  0.5262  0.3048
  151SAPE   H3R16727   3.052   0.237   9.929 -1.0676 -0.8209  0.7139
  151SAPE   H3S16728   3.082   0.061   9.903 -2.1693  1.4940  0.7156
  151SAPE   C2416729   3.147   0.195   9.745 -0.1179 -0.1827  0.5619
  151SAPE   H4R16730   3.060   0.166   9.682 -0.4136 -4.1720  2.6293
  151SAPE   H4S16731   3.229   0.129   9.709  0.7076  2.2238 -2.0602
  151SAPE   C2516732   3.163   0.341   9.724  0.0670 -0.2477  0.0010
  151SAPE   H5R16733   3.135   0.406   9.808 -0.7477 -1.2152  0.4887
  151SAPE   C2616734   3.228   0.387   9.609 -0.4077  0.0205  0.1112
  151SAPE   H6R16735   3.261   0.492   9.604 -0.0141 -0.1708 -1.4878
  151SAPE   C2716736   3.288   0.304   9.497  0.2779  0.8350 -0.0261
  151SAPE   H7R16737   3.310   0.204   9.540 -1.8265  1.3400  2.3727
  151SAPE   H7S16738   3.388   0.335   9.462  0.6025 -0.1548  0.0246
  151SAPE   C2816739   3.207   0.299   9.368 -0.5798  0.5387  0.6168
  151SAPE   H8R16740   3.184   0.395   9.320 -0.1043  1.2315  1.7488
  151SAPE   C2916741   3.165   0.191   9.303 -0.6843  0.5791  0.5209
  151SAPE   H9R16742   3.106   0.200   9.211 -3.0828  1.4034  2.0915
  151SAPE  C21016743   3.182   0.042   9.336 -0.1301  0.2545  0.5050
  151SAPE  H10R16744   3.108   0.020   9.416  1.2231  0.6202  1.8833
  151SAPE  H10S16745   3.277   0.024   9.392  1.2122  0.5105 -1.6245
  151SAPE  C21116746   3.154  -0.074   9.243 -0.0461 -0.9986  0.1944
  151SAPE  H11R16747   3.244  -0.113   9.193  1.1498  0.2861  1.3017
  151SAPE  C21216748   3.035  -0.136   9.220  0.3391 -0.0105  0.4584
  151SAPE  H12R16749   3.019  -0.202   9.133 -1.4492 -0.0238  0.7907
  151SAPE  C21316750   2.903  -0.088   9.283  0.4819  0.1363  0.7409
  151SAPE  H13R16751   2.869  -0.003   9.220 -0.8724  0.1823  1.5025
  151SAPE  H13S16752   2.922  -0.054   9.387  2.6821 -0.9675  0.7209
  151SAPE  C21416753   2.806  -0.205   9.294 -0.3551  1.3387  0.2462
  151SAPE  H14R16754   2.744  -0.230   9.207  0.9676 -0.2784 -0.2475
  151SAPE  C21516755   2.775  -0.287   9.399 -0.1383  0.4226 -0.1711
  151SAPE  H15R16756   2.697  -0.361   9.376  1.0987 -0.6573 -0.9891
  151SAPE  C21616757   2.840  -0.281   9.533  0.0842  0.2985  0.3099
  151SAPE  H16R16758   2.881  -0.180   9.556 -3.6354  1.8457  0.6347
  151SAPE  H16S16759   2.926  -0.348   9.550  0.0199  0.1646  0.1181
  151SAPE  C21716760   2.740  -0.296   9.650 -0.4100  0.1203 -0.3443
  151SAPE  H17R16761   2.661  -0.219   9.639 -0.2844  0.2283 -0.4909
  151SAPE  H17S16762   2.791  -0.289   9.748  0.5586 -0.9656 -0.7506
  151SAPE  C21816763   2.666  -0.431   9.655 -0.5412  0.2634  0.8264
  151SAPE  H18R16764   2.744  -0.511   9.658 -1.5467 -0.7753 -0.3889
  151SAPE  H18S16765   2.600  -0.438   9.567  0.0344 -0.6777  0.4668
  151SAPE  C21916766   2.583  -0.455   9.780 -0.1717 -0.7642  0.9905
  151SAPE  H19R16767   2.647  -0.441   9.869  3.2298 -0.9736 -1.3238
  151SAPE  H19S16768   2.555  -0.562   9.773 -3.0236 -0.0889  1.4734
  151SAPE  C22016769   2.470  -0.359   9.775 -0.2762 -0.4670 -0.5764
  151SAPE  H20R16770   2.493  -0.251   9.766  2.4997 -1.0056 -0.4566
  151SAPE  H20S16771   2.393  -0.376   9.853 -1.2922 -1.0466 -1.6947
  151SAPE  H20T16772   2.418  -0.382   9.679 -1.7999 -1.4518  0.4628
  151SAPE   C3316773   3.611   0.504   9.521  0.1882  0.3247 -0.3941
  151SAPE   H3X16774   3.668   0.599   9.534  0.7774 -0.1212  0.3588
  151SAPE   H3Y16775   3.506   0.538   9.516  1.2635  3.8010 -1.2521
  151SAPE   C3416776   3.648   0.462   9.376 -0.0740  0.6552  0.3283
  151SAPE   H4X16777   3.599   0.365   9.354 -0.9627  0.9318  1.0483
  151SAPE   H4Y16778   3.757   0.444   9.369 -0.3345 -0.3430 -1.3447
  151SAPE   C3516779   3.606   0.572   9.281  0.0597  0.1323  0.6452
  151SAPE   H5X16780   3.635   0.672   9.320 -1.3414  1.3257 -1.2611
  151SAPE   H5Y16781   3.495   0.580   9.285  0.1126  2.0010 -0.7786
  151SAPE   C3616782   3.660   0.569   9.139  0.0025 -0.1116 -0.2142
  151SAPE   H6X16783   3.771   0.563   9.135 -0.1027 -1.4863 -1.8801
  151SAPE   H6Y16784   3.630   0.665   9.091  0.7829  0.5453  0.6012
  151SAPE   C3716785   3.612   0.455   9.057  0.7035 -0.5724  0.6459
  151SAPE   H7X16786   3.649   0.358   9.095  0.3795 -0.8657  0.2144
  151SAPE   H7Y16787   3.642   0.465   8.950 -0.1966 -2.9304  0.1517
  151SAPE   C3816788   3.454   0.458   9.055 -0.0440 -0.1243 -0.1563
  151SAPE   H8X16789   3.424   0.554   9.008  0.0741 -0.3075 -0.6164
  151SAPE   H8Y16790   3.405   0.454   9.154  2.0757  0.4922  0.9281
  151SAPE   C3916791   3.398   0.349   8.966  0.3915  0.4325  0.6136
  151SAPE   H9X16792   3.422   0.253   9.016  2.8705  0.2676 -0.8320
  151SAPE   H9Y16793   3.462   0.348   8.875  0.5073 -1.2455  0.7032
  151SAPE  C31016794   3.246   0.360   8.934  0.4617  0.0923  0.2305
  151SAPE  H10X16795   3.226   0.453   8.876  2.6072  2.5757  3.2403
  151SAPE  H10Y16796   3.196   0.387   9.029  0.6651 -1.3152  0.7402
  151SAPE  C31116797   3.182   0.238   8.872 -0.1318  0.7071  0.4097
  151SAPE  H11X16798   3.073   0.249   8.891  0.1522 -0.6444  3.1681
  151SAPE  H11Y16799   3.227   0.150   8.922 -2.5342 -2.1241 -2.2611
  151SAPE  C31216800   3.200   0.233   8.722 -0.0640  0.1818  0.3059
  151SAPE  H12X16801   3.307   0.233   8.692 -0.4121  1.1023 -0.9897
  151SAPE  H12Y16802   3.159   0.325   8.676  0.2043  1.3644  2.3297
  151SAPE  C31316803   3.134   0.120   8.653 -0.6453  0.5256 -0.0678
  151SAPE  H13X16804   3.142   0.147   8.546  0.9968  2.1591  0.4436
  151SAPE  H13Y16805   3.024   0.118   8.669 -0.5817 -0.1478  0.3449
  151SAPE  C31416806   3.175  -0.019   8.703 -0.4474  0.4711  0.6275
  151SAPE  H14X16807   3.115  -0.051   8.791 -1.4493 -0.4541 -0.3787
  151SAPE  H14Y16808   3.280  -0.024   8.739 -0.5418  1.4629  1.0380
  151SAPE  C31516809   3.156  -0.131   8.594  0.1706  0.1210  0.0667
  151SAPE  H15X16810   3.221  -0.103   8.508 -0.7859 -0.5967 -0.9107
  151SAPE  H15Y16811   3.048  -0.125   8.568  0.0799 -1.6578  0.0154
  151SAPE  C31616812   3.199  -0.271   8.637  0.2284 -0.0035  0.3406
  151SAPE  H16X16813   3.145  -0.291   8.732 -0.9825  0.4233 -0.2427
  151SAPE  H16Y16814   3.307  -0.275   8.663  0.1685 -1.4096  0.3927
  151SAPE  C31716815   3.172  -0.372   8.525  0.3168  0.6664 -0.4668
  151SAPE  H17X16816   3.077  -0.338   8.478 -0.4205  0.4613  0.8507
  151SAPE  H17Y16817   3.146  -0.471   8.567  0.8794  0.0469 -1.5556
  151SAPE  C31816818   3.282  -0.387   8.423 -0.1094 -0.2336 -0.0776
  151SAPE  H18X16819   3.372  -0.436   8.464  2.1065 -0.4768 -4.8252
  151SAPE  H18Y16820   3.304  -0.293   8.368 -3.6806  1.0284  0.5105
  151SAPE  H18Z16821   3.255  -0.454   8.338  0.7238  0.2179 -0.7042
  152SAPE     N16822   4.759   6.619  10.826  0.8335  0.2023 -0.0112
  152SAPE   HN116823   4.721   6.713  10.851  0.9287 -0.3916  2.4959
  152SAPE   HN216824   4.675   6.558  10.812 -0.8462  1.7677  2.7043
  152SAPE   HN316825   4.815   6.590  10.908  1.9412  2.5204  0.0870
  152SAPE   C1216826   4.828   6.627  10.693  0.3469  0.0892  0.6329
  152SAPE  H12A16827   4.921   6.683  10.717  1.4856 -2.1978  1.7966
  152SAPE  H12B16828   4.769   6.687  10.621  0.4332 -0.7610 -0.1475
  152SAPE   C1116829   4.855   6.495  10.617  0.1216  0.0229 -0.4410
  152SAPE  H11A16830   4.873   6.512  10.509 -0.9094  0.0803 -0.6121
  152SAPE  H11B16831   4.762   6.436  10.631 -1.3495  2.3480 -0.0482
  152SAPE     P16832   5.120   6.466  10.646  0.1650 -0.3016 -0.0106
  152SAPE   O1316833   5.145   6.599  10.709  0.2459 -0.0818  1.1650
  152SAPE   O1416834   5.214   6.356  10.687  0.2585 -0.0445 -0.4677
  152SAPE   O1216835   4.970   6.427  10.676 -0.1401  0.3661 -0.3658
  152SAPE   O1116836   5.140   6.483  10.492 -0.2248 -0.3959 -0.6575
  152SAPE    C116837   5.090   6.392  10.397  0.2972  0.2062  0.3725
  152SAPE    HA16838   4.995   6.347  10.435  0.7789 -0.7242  0.4972
  152SAPE    HB16839   5.059   6.434  10.299 -0.2132 -1.3583 -0.1670
  152SAPE    C216840   5.195   6.284  10.362 -0.7177  0.7883 -0.0968
  152SAPE    HS16841   5.237   6.235  10.453  4.1804 -0.7463 -2.9915
  152SAPE   O2116842   5.303   6.341  10.287 -0.2956  0.3726  0.3220
  152SAPE   C2116843   5.395   6.252  10.251  0.5389 -0.1245 -0.3098
  152SAPE   O2216844   5.425   6.145  10.305  0.3047 -0.0439 -0.2817
  152SAPE   C2216845   5.463   6.314  10.123 -0.1808 -0.2668 -0.1511
  152SAPE   H2R16846   5.481   6.236  10.047  0.0209 -0.0235 -0.3537
  152SAPE   H2S16847   5.399   6.391  10.074  1.9166  1.3581 -0.3656
  152SAPE    C316848   5.115   6.174  10.276  0.4760 -0.8434 -0.5118
  152SAPE    HX16849   5.017   6.157  10.324 -0.4021  1.2160 -1.4812
  152SAPE    HY16850   5.172   6.080  10.284  0.7710 -0.6964 -0.8513
  152SAPE   O3116851   5.102   6.215  10.139  0.6757 -0.2959 -0.3605
  152SAPE   C3116852   5.148   6.129  10.045  0.3777  0.6682  0.2694
  152SAPE   O3216853   5.182   6.015  10.074  0.1290  0.3851 -0.6132
  152SAPE   C3216854   5.132   6.192   9.907  0.6331 -0.5160  0.1027
  152SAPE   H2X16855   5.210   6.271   9.907 -0.4713  0.6367  2.6304
  152SAPE   H2Y16856   5.037   6.249   9.905  1.3435  0.7536  1.4663
  152SAPE   C2316857   5.607   6.378  10.155  0.8328 -0.4646  0.5534
  152SAPE   H3R16858   5.677   6.307  10.204  1.7532 -0.1092 -0.2437
  152SAPE   H3S16859   5.587   6.465  10.221  0.3462  0.0235 -0.2277
  152SAPE   C2416860   5.685   6.426  10.027 -0.6849  0.5096  0.4526
  152SAPE   H4R16861   5.789   6.443  10.062  0.2102  0.5413 -2.1179
  152SAPE   H4S16862   5.645   6.519   9.983  1.5286  0.9964 -0.5806
  152SAPE   C2516863   5.694   6.315   9.927  0.6622  0.0711 -0.3120
  152SAPE   H5R16864   5.764   6.235   9.954  0.9497  0.4275  0.0107
  152SAPE   C2616865   5.623   6.308   9.810 -0.1498  0.2637 -0.4874
  152SAPE   H6R16866   5.636   6.215   9.752  0.4380 -0.6346  1.0554
  152SAPE   C2716867   5.520   6.400   9.750  0.5281 -0.3846 -0.9481
  152SAPE   H7R16868   5.527   6.494   9.809 -1.2430 -0.9885  0.2747
  152SAPE   H7S16869   5.423   6.359   9.785  1.0371 -1.0591 -0.3078
  152SAPE   C2816870   5.522   6.410   9.595  0.5893  0.6612 -0.4053
  152SAPE   H8R16871   5.622   6.414   9.548  0.6526 -0.2270 -0.3589
  152SAPE   C2916872   5.414   6.417   9.514 -0.3065  0.3655  0.3066
  152SAPE   H9R16873   5.421   6.423   9.405  0.1824 -0.6155  0.2805
  152SAPE  C21016874   5.273   6.422   9.556  0.1811 -0.6813  0.3389
  152SAPE  H10R16875   5.261   6.432   9.666  1.1797 -1.3167  0.5148
  152SAPE  H10S16876   5.240   6.320   9.526 -1.8869  0.4408 -1.2864
  152SAPE  C21116877   5.186   6.521   9.489 -0.0126 -1.0307 -0.3956
  152SAPE  H11R16878   5.231   6.569   9.401 -2.4519  1.1265 -0.5177
  152SAPE  C21216879   5.062   6.556   9.528 -0.1762 -0.0750 -0.1758
  152SAPE  H12R16880   5.014   6.639   9.474  2.1711  0.2701 -1.8549
  152SAPE  C21316881   4.991   6.498   9.649 -0.1350 -0.4410  0.0762
  152SAPE  H13R16882   5.065   6.469   9.727  0.5254 -0.5827 -0.5931
  152SAPE  H13S16883   4.943   6.404   9.614 -2.4734  1.0019 -0.7050
  152SAPE  C21416884   4.891   6.586   9.719 -0.1328  0.0762 -0.0793
  152SAPE  H14R16885   4.925   6.686   9.749  0.2108  0.0347 -0.3233
  152SAPE  C21516886   4.761   6.561   9.739  0.1195  0.4607  0.2259
  152SAPE  H15R16887   4.700   6.642   9.784 -0.3289  0.3213 -0.1267
  152SAPE  C21616888   4.679   6.440   9.694  0.1702  0.3009 -0.0267
  152SAPE  H16R16889   4.614   6.411   9.780 -0.5345  0.1828 -0.6038
  152SAPE  H16S16890   4.746   6.352   9.679  1.7533  1.4598  0.1700
  152SAPE  C21716891   4.583   6.456   9.571  0.0598 -0.6513  0.6435
  152SAPE  H17R16892   4.502   6.531   9.589  1.3034  0.6212  0.9879
  152SAPE  H17S16893   4.536   6.358   9.546 -0.6027 -0.7507  2.1911
  152SAPE  C21816894   4.665   6.500   9.441  0.7081  0.0063  0.2971
  152SAPE  H18R16895   4.756   6.436   9.434 -0.5971 -1.9289  0.4917
  152SAPE  H18S16896   4.695   6.605   9.459  0.1004  0.1373  0.5643
  152SAPE  C21916897   4.594   6.509   9.304 -0.2420  0.3073 -0.4587
  152SAPE  H19R16898   4.525   6.596   9.310  0.3507  0.7722 -0.3574
  152SAPE  H19S16899   4.528   6.421   9.287  0.2032 -0.0716 -0.2035
  152SAPE  C22016900   4.692   6.527   9.189  0.5923 -0.2648  0.3320
  152SAPE  H20R16901   4.752   6.434   9.197  0.0173 -0.5329  1.6740
  152SAPE  H20S16902   4.765   6.610   9.201  1.3509 -1.0414  1.0736
  152SAPE  H20T16903   4.642   6.545   9.091 -0.1901 -2.1174  0.3726
  152SAPE   C3316904   5.136   6.091   9.789  0.5051  0.0782 -0.3028
  152SAPE   H3X16905   5.115   6.153   9.699 -0.1457  0.0375 -0.1811
  152SAPE   H3Y16906   5.047   6.026   9.803  0.0770  0.7936  0.2718
  152SAPE   C3416907   5.270   6.028   9.763  0.2432 -0.1550  0.0573
  152SAPE   H4X16908   5.295   5.957   9.845  0.9542  0.3722  0.2999
  152SAPE   H4Y16909   5.347   6.107   9.750 -0.4969  0.4025 -1.0911
  152SAPE   C3516910   5.265   5.934   9.632 -0.3004  0.2545  0.0109
  152SAPE   H5X16911   5.234   5.989   9.541  0.4052 -1.5812 -1.3610
  152SAPE   H5Y16912   5.185   5.858   9.650  0.0968 -0.5304 -1.4718
  152SAPE   C3616913   5.401   5.857   9.617  0.7718  0.2181  0.0708
  152SAPE   H6X16914   5.401   5.782   9.699 -1.0836  1.1444  0.9555
  152SAPE   H6Y16915   5.486   5.928   9.621  0.5827  0.3658  1.7333
  152SAPE   C3716916   5.392   5.790   9.481 -0.3443 -0.2801  0.2630
  152SAPE   H7X16917   5.291   5.744   9.473 -0.5299  0.2844 -0.8896
  152SAPE   H7Y16918   5.467   5.709   9.485 -0.9099 -0.8633 -0.6496
  152SAPE   C3816919   5.423   5.876   9.355  0.0351  0.1471  0.1280
  152SAPE   H8X16920   5.524   5.922   9.360 -0.1773  0.5379  0.7542
  152SAPE   H8Y16921   5.356   5.964   9.344  1.5547  1.4799  1.1723
  152SAPE   C3916922   5.420   5.795   9.226  0.1953 -0.0857 -0.3412
  152SAPE   H9X16923   5.445   5.860   9.139  1.6767  1.8872  1.4944
  152SAPE   H9Y16924   5.321   5.750   9.204 -0.6585  0.5633  2.0182
  152SAPE  C31016925   5.524   5.677   9.232  0.6804 -1.5353 -0.0844
  152SAPE  H10X16926   5.481   5.581   9.266  1.0735 -1.1888  1.4388
  152SAPE  H10Y16927   5.584   5.704   9.322 -2.0227 -0.3260  1.3837
  152SAPE  C31116928   5.617   5.664   9.106 -0.9791  0.0216  0.1454
  152SAPE  H11X16929   5.694   5.587   9.128 -3.0926 -1.9660  0.8353
  152SAPE  H11Y16930   5.685   5.752   9.102 -2.3063  1.0504 -0.3685
  152SAPE  C31216931   5.541   5.640   8.980 -0.9031  0.1576  0.1926
  152SAPE  H12X16932   5.490   5.728   8.935  0.2598  0.3067 -0.8490
  152SAPE  H12Y16933   5.459   5.565   8.987  0.9872 -2.7283 -5.3406
  152SAPE  C31316934   5.646   5.599   8.871  0.1862  0.3303 -0.3622
  152SAPE  H13X16935   5.593   5.547   8.789  0.8201  3.1433 -2.6468
  152SAPE  H13Y16936   5.714   5.530   8.925 -1.0599 -0.4129  0.2766
  152SAPE  C31416937   5.730   5.711   8.825 -0.1571 -0.1807  0.3320
  152SAPE  H14X16938   5.799   5.744   8.906  1.9846 -0.2715 -1.4009
  152SAPE  H14Y16939   5.662   5.794   8.796  2.2415  2.5108  2.1326
  152SAPE  C31516940   5.832   5.687   8.708  0.3211  0.4479 -0.1566
  152SAPE  H15X16941   5.911   5.765   8.718  0.3600  0.3054  0.6635
  152SAPE  H15Y16942   5.769   5.681   8.617  0.0994 -0.1912  0.0400
  152SAPE  C31616943   5.896   5.552   8.730 -1.1614 -0.2327 -0.5174
  152SAPE  H16X16944   5.823   5.470   8.715 -0.6744 -0.7884  0.1326
  152SAPE  H16Y16945   5.922   5.543   8.838  2.1923  1.3608 -1.1272
  152SAPE  C31716946   6.026   5.530   8.645  0.0199 -0.2743  0.8091
  152SAPE  H17X16947   6.101   5.606   8.675  1.9590 -1.4643 -0.9034
  152SAPE  H17Y16948   6.007   5.550   8.537  0.5392  1.0484  0.9503
  152SAPE  C31816949   6.087   5.391   8.670 -0.9376  0.3319 -0.2938
  152SAPE  H18X16950   6.006   5.314   8.670 -0.8953  0.2871  0.0760
  152SAPE  H18Y16951   6.131   5.390   8.772  1.2298 -0.3711 -1.2052
  152SAPE  H18Z16952   6.162   5.363   8.593 -0.8617  1.7388 -0.7321
  153SAPE     N16953   4.791   0.557  10.562  0.3804 -0.5195 -0.2432
  153SAPE   HN116954   4.765   0.633  10.497 -0.6604 -0.3889  0.3180
  153SAPE   HN216955   4.858   0.599  10.630  0.1128  0.3731 -0.5307
  153SAPE   HN316956   4.838   0.481  10.508 -1.9572 -3.1967  1.3588
  153SAPE   C1216957   4.653   0.501  10.608  0.3209 -0.0297 -0.1727
  153SAPE  H12A16958   4.598   0.500  10.511 -1.4233  1.2949  0.7744
  153SAPE  H12B16959   4.610   0.583  10.670  0.8418  0.1281 -0.0189
  153SAPE   C1116960   4.659   0.363  10.679 -1.4289  0.1380 -0.8425
  153SAPE  H11A16961   4.562   0.332  10.723 -0.2303  0.8325  2.4128
  153SAPE  H11B16962   4.719   0.389  10.768 -0.0223 -3.2751 -0.7316
  153SAPE     P16963   4.622   0.174  10.504 -0.0786  0.2056  0.4103
  153SAPE   O1316964   4.549   0.084  10.599  0.0967 -0.2377  0.8845
  153SAPE   O1416965   4.539   0.256  10.418 -0.1564  0.8059 -0.2939
  153SAPE   O1216966   4.715   0.269  10.590 -0.6322  0.2009  0.4457
  153SAPE   O1116967   4.718   0.081  10.420  0.7956  0.4638  0.1180
  153SAPE    C116968   4.843   0.139  10.373  0.4176  0.1852  0.0690
  153SAPE    HA16969   4.823   0.243  10.340 -0.3315 -1.0595 -3.5869
  153SAPE    HB16970   4.909   0.133  10.462  0.7053 -2.3758 -0.2846
  153SAPE    C216971   4.898   0.081  10.245 -0.3534  0.1227 -0.3209
  153SAPE    HS16972   4.985   0.141  10.213  0.0346  1.2498  2.7433
  153SAPE   O2116973   4.804   0.067  10.137 -0.3921  0.6166 -0.1408
  153SAPE   C2116974   4.782   0.183  10.075  0.1517 -0.3342  0.9131
  153SAPE   O2216975   4.845   0.288  10.089  0.0792 -0.6489 -0.3539
  153SAPE   C2216976   4.673   0.158   9.975 -0.2790  0.3772  0.3461
  153SAPE   H2R16977   4.664   0.050   9.951 -0.8194  0.0888  1.7535
  153SAPE   H2S16978   4.578   0.188  10.024 -0.8662 -1.2242  0.2150
  153SAPE    C316979   4.948  -0.066  10.276  1.0112 -0.4576 -0.0218
  153SAPE    HX16980   4.853  -0.124  10.280  0.1347  0.8732 -0.8623
  153SAPE    HY16981   4.995  -0.080  10.376 -0.6041  1.8055  1.0964
  153SAPE   O3116982   5.033  -0.107  10.172  0.1003 -0.2692 -0.5682
  153SAPE   C3116983   5.161  -0.082  10.193  0.2931  0.3501 -0.5049
  153SAPE   O3216984   5.205  -0.036  10.299  0.5096  0.6090  0.2282
  153SAPE   C3216985   5.239  -0.120  10.073  0.6752 -0.1776 -0.1581
  153SAPE   H2X16986   5.202  -0.220  10.041 -0.6823  1.1302 -2.8085
  153SAPE   H2Y16987   5.347  -0.122  10.102  0.1903  0.1124  1.7573
  153SAPE   C2316988   4.691   0.240   9.847 -0.4825  0.6282  0.5102
  153SAPE   H3R16989   4.791   0.211   9.806 -1.0163 -3.1821  1.7377
  153SAPE   H3S16990   4.696   0.349   9.871  1.0579  0.4508  1.0871
  153SAPE   C2416991   4.579   0.206   9.744 -0.3203 -0.2525 -0.4381
  153SAPE   H4R16992   4.480   0.228   9.788 -0.8875  1.2856 -2.4032
  153SAPE   H4S16993   4.575   0.100   9.714  1.5267  0.0270 -1.8277
  153SAPE   C2516994   4.603   0.305   9.633  0.2253  0.4596 -0.5753
  153SAPE   H5R16995   4.600   0.411   9.662 -2.5816 -0.0205  1.0812
  153SAPE   C2616996   4.639   0.276   9.500  0.2632  0.5676  0.3609
  153SAPE   H6R16997   4.655   0.360   9.431 -0.6512 -0.0091 -0.5639
  153SAPE   C2716998   4.653   0.132   9.450  0.0051 -0.2531  0.1893
  153SAPE   H7R16999   4.578   0.110   9.371 -0.1722  1.7436 -0.2403
  153SAPE   H7S17000   4.644   0.055   9.529  2.3534  1.0825  1.8203
  153SAPE   C2817001   4.795   0.110   9.389 -0.0369 -0.0356 -0.2622
  153SAPE   H8R17002   4.870   0.069   9.458 -1.5059 -0.0954  1.3375
  153SAPE   C2917003   4.829   0.121   9.256  0.7950 -0.5155 -0.6910
  153SAPE   H9R17004   4.934   0.101   9.233  0.6400 -0.8618 -1.1216
  153SAPE  C21017005   4.730   0.170   9.152 -0.8063  0.1195 -0.2161
  153SAPE  H10R17006   4.788   0.235   9.083 -1.2324 -0.2668 -0.9441
  153SAPE  H10S17007   4.657   0.232   9.208 -0.5936  0.3009 -0.1414
  153SAPE  C21117008   4.647   0.061   9.081  0.7368 -0.4355 -0.6796
  153SAPE  H11R17009   4.600  -0.006   9.154  3.1472 -0.7464  0.6434
  153SAPE  C21217010   4.647   0.052   8.948  0.7830  0.0269 -0.6223
  153SAPE  H12R17011   4.587  -0.028   8.904  0.3696  0.0563 -0.1109
  153SAPE  C21317012   4.719   0.139   8.840 -0.2841 -0.2662  0.1410
  153SAPE  H13R17013   4.719   0.084   8.744 -1.1638  0.1837 -0.1154
  153SAPE  H13S17014   4.824   0.153   8.875  0.2369 -0.9926 -1.1131
  153SAPE  C21417015   4.650   0.266   8.809 -0.2230 -0.2547 -0.1591
  153SAPE  H14R17016   4.541   0.258   8.823  0.0022  0.5539  2.4302
  153SAPE  C21517017   4.698   0.378   8.757  0.3438 -0.2248 -0.9578
  153SAPE  H15R17018   4.622   0.456   8.739  0.4236  0.0816 -0.0135
  153SAPE  C21617019   4.837   0.417   8.713  0.3817 -0.3101  0.0537
  153SAPE  H16R17020   4.907   0.332   8.727 -1.0783 -1.6700 -0.9088
  153SAPE  H16S17021   4.877   0.500   8.776 -1.2690  0.4845  0.0595
  153SAPE  C21717022   4.849   0.462   8.571 -0.2850  0.4760 -0.1429
  153SAPE  H17R17023   4.775   0.544   8.555 -1.0948  0.0235  1.2080
  153SAPE  H17S17024   4.837   0.374   8.505 -1.5084 -0.1593  0.9169
  153SAPE  C21817025   4.994   0.512   8.550 -0.3537  0.1683  0.3985
  153SAPE  H18R17026   5.062   0.425   8.539 -1.6409 -0.5097 -2.5440
  153SAPE  H18S17027   5.035   0.576   8.631  2.9649 -1.6308  0.2368
  153SAPE  C21917028   5.004   0.591   8.421  0.7483  0.1843  0.0695
  153SAPE  H19R17029   4.950   0.687   8.434 -1.4170 -1.1177  0.9795
  153SAPE  H19S17030   4.954   0.543   8.334 -0.1760 -0.3240  0.8703
  153SAPE  C22017031   5.150   0.626   8.388  0.3315  0.4911 -0.4164
  153SAPE  H20R17032   5.160   0.683   8.293  1.9230  0.3165 -0.3665
  153SAPE  H20S17033   5.204   0.532   8.366  0.3502 -0.4501  3.2635
  153SAPE  H20T17034   5.207   0.665   8.475  0.1626  0.9644 -0.5186
  153SAPE   C3317035   5.217  -0.008   9.973  0.6145 -0.2966  0.2339
  153SAPE   H3X17036   5.263   0.087  10.008 -0.2366 -0.0506  0.6958
  153SAPE   H3Y17037   5.108   0.003   9.955  0.5659 -0.7215  0.2631
  153SAPE   C3417038   5.287  -0.045   9.831 -0.0513  0.1067 -0.1068
  153SAPE   H4X17039   5.240  -0.136   9.788  1.4407 -1.0653  0.6591
  153SAPE   H4Y17040   5.397  -0.064   9.831 -0.0456  0.1227 -0.6570
  153SAPE   C3517041   5.269   0.067   9.737  0.2721  0.2986  0.3095
  153SAPE   H5X17042   5.291   0.156   9.799 -0.4328  0.4015  0.4194
  153SAPE   H5Y17043   5.160   0.071   9.718  0.2871 -1.8663 -0.4445
  153SAPE   C3617044   5.365   0.048   9.625  0.0610  0.1207 -0.3717
  153SAPE   H6X17045   5.377  -0.056   9.589 -0.7731  0.3025 -1.1926
  153SAPE   H6Y17046   5.464   0.078   9.665 -0.1691 -0.8187  0.9227
  153SAPE   C3717047   5.316   0.124   9.507 -0.5119 -0.3665 -0.2409
  153SAPE   H7X17048   5.333   0.234   9.510 -0.5327 -0.3420 -0.8886
  153SAPE   H7Y17049   5.207   0.099   9.504  0.1894 -3.5766 -0.7682
  153SAPE   C3817050   5.384   0.085   9.374 -0.6751  0.2422 -0.4735
  153SAPE   H8X17051   5.350  -0.021   9.363 -0.0059 -0.1875  1.3440
  153SAPE   H8Y17052   5.495   0.092   9.369 -0.6958  1.1517  0.3423
  153SAPE   C3917053   5.328   0.171   9.252 -0.0423  0.3418 -0.2690
  153SAPE   H9X17054   5.402   0.251   9.233  0.8801 -1.0548 -2.7852
  153SAPE   H9Y17055   5.229   0.218   9.268 -0.6710 -0.5604 -1.3969
  153SAPE  C31017056   5.321   0.096   9.116 -0.1560 -0.3867 -0.7013
  153SAPE  H10X17057   5.405   0.023   9.117 -0.9475 -1.2995  1.2065
  153SAPE  H10Y17058   5.351   0.163   9.032  1.0365 -2.4792 -1.9903
  153SAPE  C31117059   5.188   0.033   9.085  0.2839  0.2446 -0.3744
  153SAPE  H11X17060   5.108   0.110   9.089 -1.0199 -1.1579  1.3057
  153SAPE  H11Y17061   5.162  -0.042   9.163 -0.3398 -1.1212 -1.8608
  153SAPE  C31217062   5.187  -0.015   8.942  0.4402  0.6795  0.3322
  153SAPE  H12X17063   5.263  -0.095   8.928 -1.8626 -1.2304 -1.6743
  153SAPE  H12Y17064   5.211   0.064   8.868  2.6922 -0.1063  0.1981
  153SAPE  C31317065   5.047  -0.072   8.892  0.2881  0.1491  0.6422
  153SAPE  H13X17066   4.977   0.013   8.881 -1.5580 -1.3569  0.4581
  153SAPE  H13Y17067   5.007  -0.144   8.967 -0.8081 -0.3352 -0.3933
  153SAPE  C31417068   5.061  -0.164   8.769  0.2223 -0.7350  0.2783
  153SAPE  H14X17069   5.135  -0.246   8.783 -0.8012 -1.6786  0.2633
  153SAPE  H14Y17070   5.108  -0.107   8.686  0.3229 -1.9107 -0.4842
  153SAPE  C31517071   4.922  -0.214   8.713  0.6123  0.5233  1.7218
  153SAPE  H15X17072   4.853  -0.127   8.716  1.3636  1.3201 -1.7094
  153SAPE  H15Y17073   4.883  -0.292   8.782 -1.9477  0.3474  0.1601
  153SAPE  C31617074   4.957  -0.280   8.578 -0.0895 -0.0213 -0.0065
  153SAPE  H16X17075   4.994  -0.206   8.503  0.1838 -0.4047 -0.2499
  153SAPE  H16Y17076   4.857  -0.309   8.539 -0.3571 -0.4604  0.9975
  153SAPE  C31717077   5.042  -0.408   8.590 -0.8286 -0.1671  0.5335
  153SAPE  H17X17078   5.006  -0.484   8.662  0.0389  0.0369  1.1967
  153SAPE  H17Y17079   5.138  -0.372   8.634 -0.2763  0.3686 -1.0802
  153SAPE  C31817080   5.075  -0.465   8.443 -0.1424 -0.5147  0.9050
  153SAPE  H18X17081   5.138  -0.557   8.438 -1.0970 -1.1061 -0.4957
  153SAPE  H18Y17082   5.132  -0.386   8.390 -0.5023 -0.7848  0.1182
  153SAPE  H18Z17083   4.983  -0.495   8.389  0.9590 -3.9863  0.7952
  154SAPE     N17084   5.397   0.709  10.849  0.2220 -0.4636 -0.0714
  154SAPE   HN117085   5.480   0.715  10.912  0.0591 -0.0865  0.1037
  154SAPE   HN217086   5.368   0.802  10.814  1.5611 -0.7180 -1.9593
  154SAPE   HN317087   5.325   0.672  10.914  1.8193 -2.7676  0.4806
  154SAPE   C1217088   5.429   0.621  10.734 -1.1454  0.4548 -0.5782
  154SAPE  H12A17089   5.330   0.607  10.686 -1.6856  0.2701  0.5740
  154SAPE  H12B17090   5.464   0.528  10.784 -1.2890  2.0333  2.6198
  154SAPE   C1117091   5.539   0.677  10.641 -0.1544  0.0048  0.5383
  154SAPE  H11A17092   5.495   0.760  10.582 -0.5202 -0.4159  0.2081
  154SAPE  H11B17093   5.559   0.591  10.573 -2.7750 -0.5239  0.3702
  154SAPE     P17094   5.787   0.750  10.624 -0.4454  0.0917  0.2810
  154SAPE   O1317095   5.796   0.894  10.594  0.1523  0.0379 -0.4607
  154SAPE   O1417096   5.905   0.697  10.696 -0.5334  0.1305  0.8422
  154SAPE   O1217097   5.660   0.712  10.709 -0.0810 -0.0405  0.1240
  154SAPE   O1117098   5.769   0.676  10.489 -0.1435  0.5450 -0.0713
  154SAPE    C117099   5.879   0.678  10.395  0.3627  0.2210 -0.2859
  154SAPE    HA17100   5.890   0.785  10.371 -1.1459  0.5042  0.2290
  154SAPE    HB17101   5.966   0.630  10.445 -1.6411 -2.3921  0.8341
  154SAPE    C217102   5.844   0.591  10.272 -0.4306  0.2225 -0.1982
  154SAPE    HS17103   5.825   0.486  10.302 -1.2360  0.4654  0.1451
  154SAPE   O2117104   5.969   0.602  10.187 -0.3440  0.1225 -1.1783
  154SAPE   C2117105   5.986   0.498  10.099 -0.2962 -0.0177 -0.7054
  154SAPE   O2217106   5.906   0.405  10.089 -0.3703 -0.1895 -0.4895
  154SAPE   C2217107   6.108   0.519  10.009  0.0087  0.2082  0.8678
  154SAPE   H2R17108   6.107   0.624   9.975  0.2185 -0.7187 -2.1829
  154SAPE   H2S17109   6.196   0.499  10.073  1.9917  0.8946 -1.5790
  154SAPE    C317110   5.717   0.653  10.202  0.5696 -0.4963  0.0603
  154SAPE    HX17111   5.721   0.762  10.224  3.4409 -0.7548  1.0226
  154SAPE    HY17112   5.625   0.622  10.255  0.6529  2.2641  1.9228
  154SAPE   O3117113   5.718   0.628  10.058 -0.0735 -0.1123 -0.3113
  154SAPE   C3117114   5.642   0.521  10.022  0.3365  0.0006  0.6284
  154SAPE   O3217115   5.575   0.450  10.095  0.2213  0.4041  0.6075
  154SAPE   C3217116   5.656   0.509   9.864 -0.0554 -0.2358 -0.6566
  154SAPE   H2X17117   5.760   0.477   9.841 -0.4091  0.0279 -2.7919
  154SAPE   H2Y17118   5.650   0.616   9.832  0.7038  0.9671  2.9843
  154SAPE   C2317119   6.094   0.417   9.887 -0.1753 -0.2139 -0.2009
  154SAPE   H3R17120   5.993   0.419   9.840 -0.1682  0.4499 -0.1872
  154SAPE   H3S17121   6.094   0.314   9.929 -2.3344 -0.6201 -1.0973
  154SAPE   C2417122   6.205   0.430   9.774 -0.5823  0.1806 -0.7334
  154SAPE   H4R17123   6.183   0.368   9.685  0.3969  0.4703 -1.1844
  154SAPE   H4S17124   6.304   0.395   9.811  0.1166  3.1041  0.3204
  154SAPE   C2517125   6.210   0.569   9.711  0.3019  0.7637 -0.3778
  154SAPE   H5R17126   6.267   0.648   9.762 -0.7127  1.5088 -0.3766
  154SAPE   C2617127   6.151   0.607   9.598  0.2485 -0.3018 -0.3755
  154SAPE   H6R17128   6.174   0.705   9.553 -3.4739 -0.2274 -2.3179
  154SAPE   C2717129   6.058   0.515   9.509 -0.1131  0.5213 -0.2383
  154SAPE   H7R17130   5.998   0.447   9.574  0.6190 -0.0363 -0.1402
  154SAPE   H7S17131   6.127   0.454   9.447  2.5072 -0.3967  3.3654
  154SAPE   C2817132   5.970   0.600   9.420  0.3354  0.7171 -0.2842
  154SAPE   H8R17133   5.875   0.622   9.470 -0.0778  1.2888 -1.3197
  154SAPE   C2917134   5.992   0.637   9.288  0.1525  0.5691 -0.7130
  154SAPE   H9R17135   5.909   0.681   9.232 -1.3089 -0.3822  0.6380
  154SAPE  C21017136   6.113   0.597   9.204  0.3620 -0.5097  0.3054
  154SAPE  H10R17137   6.205   0.580   9.264  0.6940 -2.0941 -0.6566
  154SAPE  H10S17138   6.139   0.690   9.149 -0.8038 -0.4599 -0.1793
  154SAPE  C21117139   6.088   0.480   9.111 -0.1327  0.8090 -0.0635
  154SAPE  H11R17140   6.016   0.406   9.148 -2.5746  2.9863 -0.2978
  154SAPE  C21217141   6.154   0.452   8.998  0.0236  0.1341 -0.2908
  154SAPE  H12R17142   6.119   0.379   8.924 -0.9756  1.0025 -0.6909
  154SAPE  C21317143   6.261   0.541   8.940 -0.2356 -0.7868 -0.4575
  154SAPE  H13R17144   6.332   0.475   8.886 -0.1597 -1.2022  0.1541
  154SAPE  H13S17145   6.317   0.598   9.017 -2.2208  1.4721 -0.6197
  154SAPE  C21417146   6.200   0.638   8.843  0.2511 -0.0665  0.0035
  154SAPE  H14R17147   6.107   0.679   8.885  0.7913 -0.2279  1.4058
  154SAPE  C21517148   6.238   0.665   8.720 -0.0263  0.4645  1.0437
  154SAPE  H15R17149   6.181   0.737   8.660 -0.3807 -0.5078  0.1922
  154SAPE  C21617150   6.361   0.606   8.647  0.6484  0.4764  0.9698
  154SAPE  H16R17151   6.446   0.585   8.715 -0.1218 -0.1397  1.7599
  154SAPE  H16S17152   6.392   0.665   8.558 -2.5995  0.4003 -0.3006
  154SAPE  C21717153   6.321   0.464   8.607  0.5160 -0.5239  0.0458
  154SAPE  H17R17154   6.258   0.416   8.684 -1.1800 -1.1717 -1.6905
  154SAPE  H17S17155   6.411   0.400   8.591  1.0535  0.0600  0.6977
  154SAPE  C21817156   6.246   0.460   8.472  0.5366  0.8015  0.4370
  154SAPE  H18R17157   6.326   0.452   8.394  2.3489  0.7176  2.2501
  154SAPE  H18S17158   6.189   0.555   8.460  0.6817  0.9463  0.8951
  154SAPE  C21917159   6.152   0.332   8.459 -0.3831 -0.2917 -0.3309
  154SAPE  H19R17160   6.077   0.331   8.541  1.2432 -0.1138  1.1981
  154SAPE  H19S17161   6.216   0.243   8.475  0.4547 -0.4412 -4.0863
  154SAPE  C22017162   6.085   0.336   8.321  0.2092 -0.0116 -0.3725
  154SAPE  H20R17163   6.040   0.435   8.297  0.0836 -0.4524 -2.0532
  154SAPE  H20S17164   5.995   0.272   8.335 -0.1341  0.3735 -0.7543
  154SAPE  H20T17165   6.149   0.304   8.236 -1.9821  0.0428 -2.1031
  154SAPE   C3317166   5.539   0.434   9.799 -0.5283 -0.1570 -0.0628
  154SAPE   H3X17167   5.443   0.485   9.823 -1.1663 -0.8054 -1.2191
  154SAPE   H3Y17168   5.530   0.335   9.849  1.8324  0.1341  1.0275
  154SAPE   C3417169   5.563   0.398   9.651  0.1985  0.4808  0.2039
  154SAPE   H4X17170   5.485   0.339   9.598  0.2989  1.5273 -1.1483
  154SAPE   H4Y17171   5.646   0.325   9.655  0.1336  0.3569 -0.5575
  154SAPE   C3517172   5.591   0.519   9.563  0.9651 -0.2373  0.1941
  154SAPE   H5X17173   5.686   0.563   9.602 -1.5093  3.4248  2.3674
  154SAPE   H5Y17174   5.511   0.595   9.568  0.1983 -0.9477 -1.1441
  154SAPE   C3617175   5.606   0.471   9.419 -0.4373  0.1825 -0.0599
  154SAPE   H6X17176   5.526   0.396   9.398  0.2928 -0.3684 -0.9504
  154SAPE   H6Y17177   5.694   0.405   9.402 -1.4824 -0.1729 -4.7303
  154SAPE   C3717178   5.605   0.581   9.312 -0.3010  0.1079  0.0112
  154SAPE   H7X17179   5.679   0.661   9.334 -1.1056  0.1683  2.6676
  154SAPE   H7Y17180   5.506   0.632   9.309  0.2539  1.1842  0.0248
  154SAPE   C3817181   5.646   0.519   9.175 -0.5293 -0.3841  0.5797
  154SAPE   H8X17182   5.562   0.459   9.134 -1.2673  1.2966 -0.4511
  154SAPE   H8Y17183   5.736   0.456   9.192  1.4071  2.5648  1.6213
  154SAPE   C3917184   5.671   0.632   9.074 -0.1835 -0.4005 -0.0364
  154SAPE   H9X17185   5.732   0.717   9.111  0.3657 -1.2140  0.9705
  154SAPE   H9Y17186   5.577   0.692   9.070  0.8021  1.1664  0.1077
  154SAPE  C31017187   5.711   0.589   8.932 -0.6624 -0.4516 -0.2200
  154SAPE  H10X17188   5.629   0.533   8.882  0.6105 -1.4779 -1.2050
  154SAPE  H10Y17189   5.799   0.522   8.940 -0.7984 -0.3498  2.5827
  154SAPE  C31117190   5.753   0.702   8.840  0.7351  0.1243 -0.0370
  154SAPE  H11X17191   5.833   0.765   8.885 -0.0914  0.9953  0.2091
  154SAPE  H11Y17192   5.668   0.765   8.807  1.8908  0.9279 -1.5586
  154SAPE  C31217193   5.820   0.653   8.707  0.3772  0.2627 -0.0690
  154SAPE  H12X17194   5.913   0.595   8.728 -1.4825 -1.4780  4.1109
  154SAPE  H12Y17195   5.850   0.740   8.646  0.9006  0.6090  0.6675
  154SAPE  C31317196   5.724   0.570   8.624  0.4987  0.3139  0.4466
  154SAPE  H13X17197   5.632   0.624   8.595  0.4386 -0.2140 -0.3825
  154SAPE  H13Y17198   5.694   0.473   8.670 -3.3015  1.1461 -0.1533
  154SAPE  C31417199   5.796   0.528   8.489  0.1873  0.3100 -0.1160
  154SAPE  H14X17200   5.847   0.433   8.516  1.3072  0.7236 -0.7410
  154SAPE  H14Y17201   5.880   0.600   8.474 -0.7612  1.4873  0.1436
  154SAPE  C31517202   5.703   0.514   8.370 -0.2437 -0.6986  0.2229
  154SAPE  H15X17203   5.768   0.466   8.295  0.0805 -0.5648  0.4188
  154SAPE  H15Y17204   5.656   0.614   8.356  2.5996  0.4561 -1.3136
  154SAPE  C31617205   5.602   0.398   8.398  0.4928 -0.5679 -0.0926
  154SAPE  H16X17206   5.570   0.398   8.505  1.5293 -0.0113  0.2226
  154SAPE  H16Y17207   5.675   0.316   8.384  0.6520 -0.3981 -0.2557
  154SAPE  C31717208   5.491   0.376   8.294  0.5988  0.9096 -0.6732
  154SAPE  H17X17209   5.428   0.467   8.299 -0.3141  0.2142  0.9965
  154SAPE  H17Y17210   5.427   0.288   8.314  2.1899  0.2582  1.7274
  154SAPE  C31817211   5.543   0.371   8.147 -0.0112  0.0467 -0.2130
  154SAPE  H18X17212   5.613   0.285   8.148  0.1773  0.1605 -2.2354
  154SAPE  H18Y17213   5.601   0.460   8.113 -1.7084  2.2362  2.4272
  154SAPE  H18Z17214   5.464   0.355   8.071 -1.6317 -0.4934  1.5673
  155SAPE     N17215   6.620   1.620  11.000 -0.3996 -0.6400 -0.1552
  155SAPE   HN117216   6.572   1.529  11.016 -2.5978  0.6811  1.0771
  155SAPE   HN217217   6.556   1.692  10.961 -0.8544 -1.4034 -0.8342
  155SAPE   HN317218   6.688   1.603  10.923  0.8611  0.7241  0.6367
  155SAPE   C1217219   6.668   1.681  11.127  0.1083 -0.5105  0.7025
  155SAPE  H12A17220   6.750   1.632  11.182 -0.3081  0.3667  2.1389
  155SAPE  H12B17221   6.590   1.701  11.204  1.2159  0.9304  1.4857
  155SAPE   C1117222   6.727   1.814  11.086  0.4225  0.5102 -0.8465
  155SAPE  H11A17223   6.814   1.808  11.018  0.2067 -2.8498 -0.9395
  155SAPE  H11B17224   6.763   1.868  11.176  1.2444  1.0155 -1.4747
  155SAPE     P17225   6.644   2.045  10.989  0.2537 -0.4524  0.1693
  155SAPE   O1317226   6.608   2.133  11.108 -0.0108  0.0933 -0.5918
  155SAPE   O1417227   6.780   2.063  10.934 -0.1446  0.0217 -0.6753
  155SAPE   O1217228   6.620   1.896  11.022  0.1083 -0.8995 -0.1070
  155SAPE   O1117229   6.537   2.075  10.874  0.5094 -0.3233  0.1950
  155SAPE    C117230   6.511   1.974  10.772  0.0705  0.2766 -0.0824
  155SAPE    HA17231   6.489   1.872  10.811  1.2640 -0.1857 -0.5659
  155SAPE    HB17232   6.423   2.020  10.724  0.6574  2.1940  0.6378
  155SAPE    C217233   6.616   1.973  10.663  0.8696 -0.9310 -0.6698
  155SAPE    HS17234   6.718   1.993  10.702 -0.2749 -0.1509  2.0288
  155SAPE   O2117235   6.572   2.078  10.570 -0.0392  0.2106 -0.1233
  155SAPE   C2117236   6.666   2.136  10.492 -1.0010 -0.5091  0.4248
  155SAPE   O2217237   6.784   2.126  10.509 -0.1084  0.2181 -0.8059
  155SAPE   C2217238   6.592   2.225  10.395  0.4657  0.6632 -0.0487
  155SAPE   H2R17239   6.496   2.171  10.375  0.0855  1.1284  0.5083
  155SAPE   H2S17240   6.571   2.329  10.428  3.6764  1.2481  0.2394
  155SAPE    C317241   6.612   1.839  10.588  0.0874  0.3746  0.2073
  155SAPE    HX17242   6.504   1.831  10.560 -0.0545 -0.9476  1.1239
  155SAPE    HY17243   6.646   1.760  10.658  0.1313  0.2316  0.0215
  155SAPE   O3117244   6.686   1.841  10.461 -0.3765  0.7348 -0.1839
  155SAPE   C3117245   6.722   1.725  10.417 -0.4472 -0.7244  0.4417
  155SAPE   O3217246   6.667   1.621  10.446 -0.3584  0.1549  0.4208
  155SAPE   C3217247   6.843   1.745  10.324  0.5847  0.0379  0.0171
  155SAPE   H2X17248   6.928   1.743  10.396 -1.2911  3.1457  2.4912
  155SAPE   H2Y17249   6.841   1.843  10.273 -1.3759  1.2430  2.2779
  155SAPE   C2317250   6.680   2.241  10.268  0.1190  0.2737  0.3419
  155SAPE   H3R17251   6.776   2.291  10.293 -0.2522 -0.3799  3.2034
  155SAPE   H3S17252   6.629   2.313  10.200 -1.0874  0.2283  1.1947
  155SAPE   C2417253   6.719   2.103  10.197  0.3805  0.0691 -0.1293
  155SAPE   H4R17254   6.764   2.046  10.282  2.3290  1.3965 -0.2258
  155SAPE   H4S17255   6.801   2.131  10.127  1.0453 -0.7982  0.2845
  155SAPE   C2517256   6.596   2.032  10.147  0.7375  0.0645 -0.2858
  155SAPE   H5R17257   6.502   2.066  10.194  1.2572  1.1369  0.0059
  155SAPE   C2617258   6.604   1.952  10.038  0.6920 -0.2139  0.1592
  155SAPE   H6R17259   6.509   1.911  10.000  1.0577 -1.9957  1.0986
  155SAPE   C2717260   6.725   1.909   9.964 -0.0163 -0.2089  0.0279
  155SAPE   H7R17261   6.721   1.805   9.926  1.7572 -1.7351  3.7163
  155SAPE   H7S17262   6.805   1.900  10.041  0.2453  1.6087 -0.0048
  155SAPE   C2817263   6.765   2.016   9.855  0.1764 -0.8378 -0.6522
  155SAPE   H8R17264   6.744   2.123   9.864 -5.7199 -1.9108  0.4297
  155SAPE   C2917265   6.808   1.983   9.733 -0.0321 -0.4693 -0.1678
  155SAPE   H9R17266   6.849   2.055   9.660  0.1303  0.5106  0.8902
  155SAPE  C21017267   6.822   1.837   9.686  0.3067  0.0260 -0.2724
  155SAPE  H10R17268   6.805   1.756   9.760 -2.5119 -0.4703 -1.4335
  155SAPE  H10S17269   6.933   1.835   9.674  0.4441 -1.0715  1.0422
  155SAPE  C21117270   6.735   1.792   9.578 -0.0760 -1.1995  0.4646
  155SAPE  H11R17271   6.631   1.824   9.592  0.0502 -1.6638  2.7367
  155SAPE  C21217272   6.777   1.738   9.460  0.4448  0.5519  0.0190
  155SAPE  H12R17273   6.703   1.746   9.379  0.0218  1.3066  0.4642
  155SAPE  C21317274   6.921   1.709   9.425  0.5117  0.1452 -0.3850
  155SAPE  H13R17275   6.925   1.625   9.352  0.0238  0.6123 -0.9592
  155SAPE  H13S17276   6.977   1.676   9.515  0.5225 -0.2016 -0.5195
  155SAPE  C21417277   6.989   1.831   9.372 -0.3234 -0.3580 -0.2385
  155SAPE  H14R17278   6.926   1.920   9.359 -0.7085 -0.5776  0.1008
  155SAPE  C21517279   7.121   1.844   9.334 -0.7071  0.0385  0.1132
  155SAPE  H15R17280   7.153   1.942   9.297 -0.5930  1.6789  4.2502
  155SAPE  C21617281   7.219   1.724   9.335 -0.0783  0.0517  0.8235
  155SAPE  H16R17282   7.172   1.627   9.361  2.8626 -0.8597  3.0343
  155SAPE  H16S17283   7.303   1.734   9.408  0.9353  1.1297 -0.4608
  155SAPE  C21717284   7.291   1.704   9.198 -0.4729  0.0734 -0.3810
  155SAPE  H17R17285   7.349   1.796   9.173  2.4112 -1.0094  1.9521
  155SAPE  H17S17286   7.223   1.686   9.112  2.6864 -4.2597 -2.1643
  155SAPE  C21817287   7.390   1.584   9.199  0.3851  0.0750 -0.2892
  155SAPE  H18R17288   7.336   1.491   9.225  0.0632  0.4333  0.3493
  155SAPE  H18S17289   7.470   1.594   9.277 -0.5287 -1.1045  0.8326
  155SAPE  C21917290   7.456   1.551   9.065  0.4922  0.0538  0.2176
  155SAPE  H19R17291   7.555   1.601   9.055 -1.1535  3.0885 -2.1006
  155SAPE  H19S17292   7.396   1.576   8.975  0.4045 -1.7443 -0.2246
  155SAPE  C22017293   7.481   1.401   9.056 -0.3270 -0.0554  0.1976
  155SAPE  H20R17294   7.542   1.382   8.964  1.9587 -0.1510  1.7005
  155SAPE  H20S17295   7.386   1.349   9.031  0.8127 -1.7159 -0.8028
  155SAPE  H20T17296   7.534   1.352   9.140  0.1192 -3.5304 -2.0088
  155SAPE   C3317297   6.851   1.628  10.220 -0.1243  0.1311 -0.0797
  155SAPE   H3X17298   6.784   1.664  10.138  0.0333 -0.0478 -0.2869
  155SAPE   H3Y17299   6.821   1.536  10.275  1.3457 -0.1532  0.2720
  155SAPE   C3417300   6.993   1.618  10.159  0.2173  0.5295  0.3352
  155SAPE   H4X17301   7.066   1.630  10.242 -1.0899  2.1237  1.2722
  155SAPE   H4Y17302   7.000   1.707  10.093 -0.6392 -0.2936 -0.8799
  155SAPE   C3517303   7.021   1.499  10.070 -0.4458  0.4205  0.2106
  155SAPE   H5X17304   6.998   1.409  10.132  1.6753  1.2070  2.2037
  155SAPE   H5Y17305   7.127   1.506  10.040 -0.7004  4.9395  0.0220
  155SAPE   C3617306   6.923   1.492   9.950 -0.0037  0.0112 -0.4123
  155SAPE   H6X17307   6.933   1.592   9.901  2.7192 -0.4121 -0.7907
  155SAPE   H6Y17308   6.821   1.461   9.980 -1.2438  2.4084 -1.9160
  155SAPE   C3717309   6.978   1.381   9.854 -0.5559  0.2882 -0.3713
  155SAPE   H7X17310   6.974   1.284   9.907  1.1518  0.3079 -0.1704
  155SAPE   H7Y17311   7.086   1.403   9.840 -0.5685  0.1708 -0.6744
  155SAPE   C3817312   6.906   1.379   9.724 -0.1104  0.7861 -0.2657
  155SAPE   H8X17313   6.922   1.477   9.673 -0.9892  0.1158 -1.8637
  155SAPE   H8Y17314   6.796   1.367   9.732  0.0088  1.1535  2.3855
  155SAPE   C3917315   6.956   1.263   9.634 -0.3026  0.4458 -0.4580
  155SAPE   H9X17316   6.944   1.173   9.698  1.3053 -1.6398 -2.9998
  155SAPE   H9Y17317   7.065   1.275   9.615  0.1264 -1.9515  0.2814
  155SAPE  C31017318   6.892   1.242   9.491 -0.0181  0.2740  0.0220
  155SAPE  H10X17319   6.782   1.233   9.507 -0.1233  0.6221 -0.4765
  155SAPE  H10Y17320   6.923   1.143   9.451  0.1914  0.9967 -1.6553
  155SAPE  C31117321   6.924   1.355   9.392 -0.1391 -0.1232 -0.1918
  155SAPE  H11X17322   7.021   1.406   9.413 -0.4424 -0.0392  1.0925
  155SAPE  H11Y17323   6.845   1.430   9.412 -0.4072 -0.9808  2.1677
  155SAPE  C31217324   6.922   1.315   9.246  0.3912 -0.1454  0.6456
  155SAPE  H12X17325   7.028   1.307   9.214 -0.2479 -0.2541 -1.4785
  155SAPE  H12Y17326   6.898   1.408   9.190  3.0925  0.7310  0.8595
  155SAPE  C31317327   6.841   1.186   9.210 -0.3105 -0.0638 -0.0310
  155SAPE  H13X17328   6.737   1.214   9.236  0.0616 -0.1587  1.6269
  155SAPE  H13Y17329   6.873   1.096   9.267 -0.9504  0.0898  0.5727
  155SAPE  C31417330   6.861   1.144   9.065 -0.0634 -0.2383  0.3113
  155SAPE  H14X17331   6.845   1.232   8.999  0.5794 -0.8153 -0.6232
  155SAPE  H14Y17332   6.777   1.077   9.037  0.3930  0.5918 -3.3822
  155SAPE  C31517333   6.996   1.084   9.027  0.4484  0.1461  0.3896
  155SAPE  H15X17334   6.989   0.977   9.057 -0.7698  0.7028  2.1102
  155SAPE  H15Y17335   7.078   1.133   9.083  1.6832 -1.0772 -0.2943
  155SAPE  C31617336   7.034   1.100   8.876  0.1960  0.1908  0.0201
  155SAPE  H16X17337   7.043   1.210   8.860 -1.9592  0.3695 -0.0745
  155SAPE  H16Y17338   6.965   1.060   8.799 -0.1176  1.1386 -0.1926
  155SAPE  C31717339   7.167   1.030   8.843  0.4845 -0.6578 -0.1429
  155SAPE  H17X17340   7.149   0.920   8.849  0.1163 -0.5046  1.8284
  155SAPE  H17Y17341   7.235   1.051   8.929 -1.1095 -1.2003  1.2803
  155SAPE  C31817342   7.236   1.084   8.715  0.6132 -0.0786 -0.7842
  155SAPE  H18X17343   7.166   1.087   8.629  0.9831  2.3357 -1.0182
  155SAPE  H18Y17344   7.324   1.027   8.677 -0.8994 -0.3928 -3.9377
  155SAPE  H18Z17345   7.260   1.190   8.738  2.5468 -0.6104 -0.2231
  156SAPE     N17346   3.849   5.964  10.769  0.6585 -0.0513 -0.1902
  156SAPE   HN117347   3.748   5.977  10.746  1.0927  3.2565 -0.4672
  156SAPE   HN217348   3.880   5.875  10.724  1.3675  0.9587 -1.7421
  156SAPE   HN317349   3.873   5.947  10.869  1.8756  2.4697 -0.0318
  156SAPE   C1217350   3.942   6.081  10.731 -0.6089  0.6996  0.1481
  156SAPE  H12A17351   4.043   6.049  10.763 -1.0217  0.6880  1.4667
  156SAPE  H12B17352   3.900   6.160  10.798 -0.7701  1.1739 -0.5014
  156SAPE   C1117353   3.923   6.118  10.579 -0.6200  0.3944  0.2324
  156SAPE  H11A17354   3.814   6.111  10.557 -0.7661  2.4901  0.1929
  156SAPE  H11B17355   3.962   6.033  10.520  0.2942 -0.2067  1.6797
  156SAPE     P17356   4.127   6.272  10.527 -0.3002 -0.2896 -0.1478
  156SAPE   O1317357   4.160   6.392  10.444 -0.0494  0.5025  0.3870
  156SAPE   O1417358   4.182   6.279  10.664  0.0275 -0.0783  0.1688
  156SAPE   O1217359   3.969   6.246  10.532  0.2018 -0.0393  0.3359
  156SAPE   O1117360   4.176   6.143  10.455 -0.2518  0.0149  0.2292
  156SAPE    C117361   4.151   6.124  10.314 -0.1741 -0.0606  0.3007
  156SAPE    HA17362   4.044   6.102  10.294 -0.6893  2.0375  0.6640
  156SAPE    HB17363   4.188   6.207  10.251 -0.3678 -0.4138 -0.2737
  156SAPE    C217364   4.213   5.991  10.249  0.0809  0.0737  0.3045
  156SAPE    HS17365   4.324   5.988  10.254  0.2443 -0.2526 -2.5072
  156SAPE   O2117366   4.187   5.978  10.110  0.0987 -0.0907 -0.1716
  156SAPE   C2117367   4.247   6.061  10.027  0.9032  0.3547  0.1123
  156SAPE   O2217368   4.323   6.150  10.062 -0.0274 -0.0156  0.3340
  156SAPE   C2217369   4.209   6.017   9.889  0.3440 -0.0436 -0.0341
  156SAPE   H2R17370   4.244   5.912   9.885  1.9178  0.4750 -0.3650
  156SAPE   H2S17371   4.098   6.023   9.882  0.5529  3.5273 -1.2692
  156SAPE    C317372   4.164   5.869  10.318 -0.0448  0.6788  0.1782
  156SAPE    HX17373   4.062   5.881  10.360  1.0153  4.9013  1.7632
  156SAPE    HY17374   4.222   5.856  10.412  0.9670 -0.0873 -0.5419
  156SAPE   O3117375   4.174   5.756  10.230 -0.5739  0.6966 -1.1037
  156SAPE   C3117376   4.278   5.682  10.228 -0.6901  0.3450 -0.6469
  156SAPE   O3217377   4.377   5.693  10.296 -0.3278 -0.2073 -0.6045
  156SAPE   C3217378   4.265   5.581  10.108 -0.5008 -0.0265 -0.2973
  156SAPE   H2X17379   4.163   5.538  10.110 -0.5438  0.0739  2.7442
  156SAPE   H2Y17380   4.326   5.493  10.140  0.7148  0.8312 -0.2275
  156SAPE   C2317381   4.283   6.093   9.781 -0.4069  0.3919 -1.2459
  156SAPE   H3R17382   4.390   6.091   9.811  0.1200 -2.8354 -3.1761
  156SAPE   H3S17383   4.247   6.198   9.775  0.0818  0.6485  0.0257
  156SAPE   C2417384   4.289   6.030   9.637 -0.5837 -0.7325  0.3696
  156SAPE   H4R17385   4.347   5.935   9.642  1.2178  0.2975 -0.4667
  156SAPE   H4S17386   4.335   6.104   9.568  0.8459 -1.3266  0.6689
  156SAPE   C2517387   4.143   6.002   9.587  0.3276 -1.2747  1.1031
  156SAPE   H5R17388   4.135   5.907   9.532  1.1982 -1.0147  0.5194
  156SAPE   C2617389   4.037   6.083   9.578  0.0570  0.4224 -0.2789
  156SAPE   H6R17390   3.954   6.039   9.522  0.9167 -0.3910 -0.9297
  156SAPE   C2717391   4.022   6.226   9.611  0.0582 -0.1854 -1.1597
  156SAPE   H7R17392   4.121   6.274   9.622 -0.5402  1.5955 -3.2583
  156SAPE   H7S17393   3.969   6.235   9.709 -1.8492  1.3430 -2.3002
  156SAPE   C2817394   3.929   6.287   9.509 -0.5259  0.1153  0.4736
  156SAPE   H8R17395   3.825   6.299   9.542 -1.2129  0.6788 -1.8063
  156SAPE   C2917396   3.960   6.300   9.380  0.0839 -0.6292 -0.4698
  156SAPE   H9R17397   3.886   6.355   9.320  0.7668 -0.9505 -1.6289
  156SAPE  C21017398   4.088   6.285   9.310  0.3935  0.4618  0.6238
  156SAPE  H10R17399   4.170   6.263   9.383  1.6958 -0.2397 -1.0115
  156SAPE  H10S17400   4.115   6.371   9.245 -0.2426 -0.7081 -1.2229
  156SAPE  C21117401   4.092   6.158   9.220  0.3861  0.7701  0.1003
  156SAPE  H11R17402   4.069   6.063   9.270  3.1602 -0.7788 -1.4916
  156SAPE  C21217403   4.109   6.153   9.091 -0.3492 -0.2241  0.3657
  156SAPE  H12R17404   4.103   6.052   9.047 -0.2441  0.6071 -1.6113
  156SAPE  C21317405   4.144   6.263   8.991  0.5790 -0.0072 -0.4149
  156SAPE  H13R17406   4.233   6.216   8.943 -1.7798 -2.6832 -2.3119
  156SAPE  H13S17407   4.172   6.351   9.053 -3.5436  1.3438 -0.3612
  156SAPE  C21417408   4.038   6.311   8.897  0.1681  0.6444 -0.1144
  156SAPE  H14R17409   3.943   6.325   8.950  0.4669 -0.3113  0.6838
  156SAPE  C21517410   4.046   6.317   8.762  0.0904  0.6417  0.0584
  156SAPE  H15R17411   3.964   6.352   8.697 -1.0801  0.6365  1.5118
  156SAPE  C21617412   4.172   6.285   8.687 -0.3840  0.7065 -0.4598
  156SAPE  H16R17413   4.186   6.176   8.698 -1.5641  0.5263 -0.6330
  156SAPE  H16S17414   4.263   6.339   8.721 -0.9446  1.0595  0.4966
  156SAPE  C21717415   4.162   6.319   8.536  0.1730  0.2341  1.3522
  156SAPE  H17R17416   4.060   6.310   8.491  0.1741  2.5997  0.7774
  156SAPE  H17S17417   4.230   6.252   8.479 -0.5583 -0.3215  1.1265
  156SAPE  C21817418   4.194   6.471   8.503  0.4541 -0.2842  0.1332
  156SAPE  H18R17419   4.264   6.508   8.581  0.4805 -1.8361  0.8868
  156SAPE  H18S17420   4.100   6.531   8.505  0.3317 -0.4063 -1.3407
  156SAPE  C21917421   4.265   6.500   8.366  0.0670  0.2434 -0.2792
  156SAPE  H19R17422   4.345   6.423   8.364  1.0323  1.2611 -2.7274
  156SAPE  H19S17423   4.317   6.595   8.393 -0.1752  0.0035  1.0552
  156SAPE  C22017424   4.175   6.504   8.246  0.3702 -0.1863 -0.6257
  156SAPE  H20R17425   4.237   6.537   8.160 -0.3791  0.4408 -0.9266
  156SAPE  H20S17426   4.094   6.578   8.260 -0.4256 -1.5072  2.0644
  156SAPE  H20T17427   4.136   6.404   8.214  0.8868 -1.0775  1.4697
  156SAPE   C3317428   4.314   5.635   9.971  0.1059  1.0927  0.9012
  156SAPE   H3X17429   4.380   5.720   9.999  0.1900  1.2212  0.3235
  156SAPE   H3Y17430   4.227   5.668   9.912 -0.1778 -2.6645 -0.9627
  156SAPE   C3417431   4.391   5.525   9.892 -0.2056 -0.3196  0.7885
  156SAPE   H4X17432   4.325   5.457   9.833 -0.7845  1.8324 -1.0916
  156SAPE   H4Y17433   4.445   5.455   9.959  1.6472  0.9913  0.7123
  156SAPE   C3517434   4.496   5.595   9.800 -0.7073 -0.9829  0.1691
  156SAPE   H5X17435   4.552   5.502   9.774  3.6021  0.9477  2.1144
  156SAPE   H5Y17436   4.560   5.654   9.868 -1.8225  0.3767  0.0718
  156SAPE   C3617437   4.434   5.670   9.686 -0.3368 -0.3024  0.0885
  156SAPE   H6X17438   4.505   5.751   9.657  0.2761 -0.9320 -0.1641
  156SAPE   H6Y17439   4.343   5.722   9.723 -2.3261 -3.7001  0.1660
  156SAPE   C3717440   4.400   5.577   9.566  0.2986 -0.6028 -0.0966
  156SAPE   H7X17441   4.324   5.504   9.603  0.6724 -1.0645 -0.2298
  156SAPE   H7Y17442   4.489   5.514   9.546  2.0698  1.6410  0.4799
  156SAPE   C3817443   4.338   5.649   9.447  0.3430  0.5568  0.0158
  156SAPE   H8X17444   4.275   5.725   9.498  0.9267 -0.4194  2.2091
  156SAPE   H8Y17445   4.263   5.586   9.395 -0.2706 -2.1995  4.0502
  156SAPE   C3917446   4.440   5.696   9.338 -0.0206 -0.9491  0.2944
  156SAPE   H9X17447   4.477   5.616   9.271 -0.1237 -0.5263 -0.2730
  156SAPE   H9Y17448   4.521   5.747   9.395 -0.7622  0.3050  0.2368
  156SAPE  C31017449   4.390   5.807   9.243 -0.4118  0.5733 -0.9761
  156SAPE  H10X17450   4.362   5.900   9.296  0.3356  0.8775 -1.1097
  156SAPE  H10Y17451   4.298   5.769   9.193 -1.4506 -1.9703  2.6837
  156SAPE  C31117452   4.493   5.831   9.138 -0.3956  0.3123  0.0847
  156SAPE  H11X17453   4.487   5.749   9.064 -0.2441 -0.7877  1.2819
  156SAPE  H11Y17454   4.597   5.834   9.176 -0.9354 -0.0737  1.6495
  156SAPE  C31217455   4.470   5.950   9.051  0.1204 -0.5687  0.2562
  156SAPE  H12X17456   4.466   6.042   9.112  2.4503  0.1546 -0.6101
  156SAPE  H12Y17457   4.369   5.942   9.006 -0.2092 -3.9438  1.4548
  156SAPE  C31317458   4.574   5.962   8.942 -0.2503  0.4757  0.2238
  156SAPE  H13X17459   4.573   5.880   8.868 -0.5378  0.7502 -0.0771
  156SAPE  H13Y17460   4.677   5.952   8.982 -0.1104  1.5549  0.1422
  156SAPE  C31417461   4.554   6.094   8.862 -0.2291  0.3169  0.5889
  156SAPE  H14X17462   4.446   6.103   8.842  0.0433 -1.8757 -2.0206
  156SAPE  H14Y17463   4.617   6.093   8.770 -0.2245  1.9496  0.5520
  156SAPE  C31517464   4.618   6.220   8.929 -0.8959 -0.0678 -1.0734
  156SAPE  H15X17465   4.708   6.183   8.982 -0.9315 -1.2299 -1.8019
  156SAPE  H15Y17466   4.551   6.253   9.011 -0.3242 -0.2570 -0.5358
  156SAPE  C31617467   4.652   6.337   8.838  0.0404 -0.1605  0.2061
  156SAPE  H16X17468   4.740   6.313   8.775 -1.3120 -0.8909 -1.4380
  156SAPE  H16Y17469   4.686   6.421   8.903  1.5193 -1.1563  0.7173
  156SAPE  C31717470   4.528   6.375   8.754  0.2417 -0.3656  0.6413
  156SAPE  H17X17471   4.455   6.417   8.827 -0.4320  0.6796 -0.6159
  156SAPE  H17Y17472   4.487   6.283   8.707 -0.5284 -0.3401  1.2450
  156SAPE  C31817473   4.560   6.471   8.646 -0.6496 -0.4016  0.4467
  156SAPE  H18X17474   4.473   6.512   8.590 -1.4762 -0.7590  1.4600
  156SAPE  H18Y17475   4.636   6.436   8.573  0.1547 -0.5488  1.3440
  156SAPE  H18Z17476   4.597   6.565   8.692  2.1382 -1.4456  0.4323
  157SAPE     N17477   3.917   6.564  10.269 -0.5640  0.1099 -0.2226
  157SAPE   HN117478   3.878   6.635  10.204  1.9691  0.0799 -1.8390
  157SAPE   HN217479   4.017   6.589  10.286 -0.2365 -1.6853  0.7073
  157SAPE   HN317480   3.913   6.471  10.222  0.5445 -0.1710  0.2120
  157SAPE   C1217481   3.835   6.574  10.400 -0.1407 -0.1426  0.2538
  157SAPE  H12A17482   3.836   6.679  10.434 -2.0761 -0.0683  0.1065
  157SAPE  H12B17483   3.893   6.515  10.475  2.4693  2.4073  0.3114
  157SAPE   C1117484   3.697   6.515  10.388 -0.5892 -0.4710  0.3276
  157SAPE  H11A17485   3.703   6.411  10.349  1.5332  0.3028 -1.5013
  157SAPE  H11B17486   3.638   6.578  10.319  1.2608  0.4535 -0.4530
  157SAPE     P17487   3.467   6.526  10.533 -0.4079  0.0029 -0.2389
  157SAPE   O1317488   3.424   6.465  10.662  0.6864  0.4946 -0.2745
  157SAPE   O1417489   3.432   6.667  10.503 -0.3515  0.2762 -0.0911
  157SAPE   O1217490   3.626   6.508  10.516  0.9034  0.3110 -0.8267
  157SAPE   O1117491   3.402   6.434  10.425 -0.3196  0.0989 -0.0354
  157SAPE    C117492   3.443   6.297  10.418  0.3741 -0.4393 -0.2674
  157SAPE    HA17493   3.540   6.277  10.468  0.2954 -1.4597 -0.5148
  157SAPE    HB17494   3.373   6.237  10.479  1.0833  0.0933  1.0809
  157SAPE    C217495   3.453   6.233  10.274  0.2847  0.6933  0.0360
  157SAPE    HS17496   3.529   6.294  10.219 -0.9562  2.0173 -0.2386
  157SAPE   O2117497   3.326   6.243  10.209  0.1609 -0.1680 -0.5800
  157SAPE   C2117498   3.294   6.352  10.148 -0.2372 -0.0156 -0.9768
  157SAPE   O2217499   3.362   6.450  10.134  0.0415  0.1947  0.5128
  157SAPE   C2217500   3.150   6.354  10.117 -0.0724 -0.0034  0.1088
  157SAPE   H2R17501   3.137   6.256  10.065 -0.5130  0.2196 -0.2092
  157SAPE   H2S17502   3.087   6.349  10.208 -0.3789  0.2483 -0.0922
  157SAPE    C317503   3.515   6.088  10.277  0.1048  0.2106  0.5207
  157SAPE    HX17504   3.474   6.025  10.359  1.8888 -0.0905  1.2168
  157SAPE    HY17505   3.622   6.087  10.310  0.2289  2.4474  0.3192
  157SAPE   O3117506   3.494   6.027  10.149  1.1683  0.6881  0.5269
  157SAPE   C3117507   3.574   6.077  10.054 -0.6800 -0.8034 -0.6770
  157SAPE   O3217508   3.682   6.126  10.082  0.1503  0.1715  0.3163
  157SAPE   C3217509   3.515   6.068   9.914 -0.1094 -1.0030 -0.1073
  157SAPE   H2X17510   3.410   6.092   9.937  0.1231 -0.9663  0.9112
  157SAPE   H2Y17511   3.532   5.962   9.883  1.2008 -0.8083 -0.1124
  157SAPE   C2317512   3.124   6.460  10.012  0.3010  0.2858 -0.0638
  157SAPE   H3R17513   3.202   6.454   9.933 -2.0894 -1.8529 -2.3818
  157SAPE   H3S17514   3.119   6.563  10.053 -2.3385 -0.0150  0.4419
  157SAPE   C2417515   2.993   6.455   9.935 -0.6809  0.4687 -0.3113
  157SAPE   H4R17516   2.983   6.369   9.865 -0.6090  1.5836 -1.7046
  157SAPE   H4S17517   2.996   6.545   9.870 -0.2495  1.5330  1.1451
  157SAPE   C2517518   2.869   6.458  10.029  0.3160 -0.3091  0.0267
  157SAPE   H5R17519   2.858   6.369  10.093 -4.3460  1.4883  2.0111
  157SAPE   C2617520   2.774   6.550  10.035 -0.0064 -0.3918  0.1731
  157SAPE   H6R17521   2.685   6.534  10.098  0.9236  0.8235  1.8366
  157SAPE   C2717522   2.762   6.682   9.963  0.0395  0.1624 -0.1764
  157SAPE   H7R17523   2.660   6.689   9.919 -0.2610 -0.2747  0.4446
  157SAPE   H7S17524   2.826   6.674   9.872 -2.3574  0.7728 -1.9715
  157SAPE   C2817525   2.790   6.814  10.040 -0.7928 -0.0050 -0.4596
  157SAPE   H8R17526   2.847   6.795  10.132 -1.2595 -1.8004 -0.5213
  157SAPE   C2917527   2.748   6.935  10.006 -1.0644 -0.5530  0.0779
  157SAPE   H9R17528   2.764   7.026  10.066  0.5447 -0.0195 -1.1243
  157SAPE  C21017529   2.660   6.964   9.885  0.5177 -0.3192 -0.0454
  157SAPE  H10R17530   2.619   7.067   9.891  1.7260  0.0747  1.7881
  157SAPE  H10S17531   2.580   6.887   9.894 -1.8215  2.2285  1.6423
  157SAPE  C21117532   2.724   6.941   9.752  0.1556 -0.2658  0.6859
  157SAPE  H11R17533   2.832   6.937   9.771  0.1650  1.2449  0.9872
  157SAPE  C21217534   2.671   6.928   9.627  0.8232  0.0522 -0.0718
  157SAPE  H12R17535   2.735   6.947   9.539  0.3609 -1.9472 -0.8583
  157SAPE  C21317536   2.524   6.932   9.586 -0.3094  0.6844 -0.9106
  157SAPE  H13R17537   2.521   6.996   9.495 -1.2004  0.5952 -0.9450
  157SAPE  H13S17538   2.457   6.975   9.663  1.0905 -1.0146  1.3358
  157SAPE  C21417539   2.476   6.788   9.554  0.6193 -0.0308 -0.3051
  157SAPE  H14R17540   2.479   6.721   9.641  1.1499  1.6264  0.9851
  157SAPE  C21517541   2.461   6.732   9.426  1.0867 -0.0113  0.4021
  157SAPE  H15R17542   2.426   6.628   9.413 -0.1353  0.4588 -0.0529
  157SAPE  C21617543   2.472   6.801   9.290  0.5687  0.3084 -0.4860
  157SAPE  H16R17544   2.581   6.811   9.269  0.8616  0.2617  0.9989
  157SAPE  H16S17545   2.434   6.905   9.300  0.1715  0.0709  0.4561
  157SAPE  C21717546   2.405   6.749   9.153  0.2202  0.0820 -0.0725
  157SAPE  H17R17547   2.473   6.670   9.115 -0.7848 -0.8922  0.1080
  157SAPE  H17S17548   2.409   6.827   9.075  2.7953 -1.4472 -1.5313
  157SAPE  C21817549   2.257   6.710   9.165 -0.3731  0.1225 -0.2261
  157SAPE  H18R17550   2.199   6.789   9.217  0.7889  0.3512  0.7556
  157SAPE  H18S17551   2.253   6.624   9.235  1.1203  0.4442  0.2785
  157SAPE  C21917552   2.185   6.682   9.032  0.0805  1.0895 -0.2526
  157SAPE  H19R17553   2.164   6.775   8.975  1.5624  0.3716 -2.0404
  157SAPE  H19S17554   2.082   6.645   9.055  0.6088 -1.4265 -1.6841
  157SAPE  C22017555   2.262   6.587   8.941  0.0183 -0.9172  0.0321
  157SAPE  H20R17556   2.210   6.565   8.845 -1.2885  0.7143  0.3598
  157SAPE  H20S17557   2.282   6.487   8.985 -0.3740 -0.7320  0.6280
  157SAPE  H20T17558   2.355   6.628   8.896 -0.5881  0.7236  0.2399
  157SAPE   C3317559   3.567   6.177   9.816  0.3997  0.1787 -0.1228
  157SAPE   H3X17560   3.678   6.173   9.815  0.4703  1.6785 -0.9361
  157SAPE   H3Y17561   3.531   6.277   9.849 -0.5467  0.1285 -0.9743
  157SAPE   C3417562   3.512   6.162   9.675 -0.1271 -0.5730 -0.4808
  157SAPE   H4X17563   3.547   6.254   9.622  2.3755 -1.2849 -0.1055
  157SAPE   H4Y17564   3.401   6.165   9.670 -0.2106  0.8648  1.5319
  157SAPE   C3517565   3.566   6.035   9.604 -0.5295  0.3144  0.0980
  157SAPE   H5X17566   3.530   5.946   9.659 -0.4803 -1.6829 -2.9819
  157SAPE   H5Y17567   3.674   6.037   9.628 -0.0707  0.3333 -1.8538
  157SAPE   C3617568   3.535   6.017   9.454  0.4322 -0.3521  0.4973
  157SAPE   H6X17569   3.425   6.034   9.449  0.4775 -0.4152 -0.9831
  157SAPE   H6Y17570   3.553   5.910   9.432  0.4969 -0.3247  0.4205
  157SAPE   C3717571   3.599   6.102   9.350 -0.6020  0.0922 -0.4259
  157SAPE   H7X17572   3.705   6.071   9.362 -0.5260  0.1159 -1.0091
  157SAPE   H7Y17573   3.570   6.208   9.366 -2.2225 -0.1774 -1.5269
  157SAPE   C3817574   3.559   6.064   9.207 -0.2783  0.3456 -0.3188
  157SAPE   H8X17575   3.451   6.081   9.190 -0.5809 -1.8250 -0.7464
  157SAPE   H8Y17576   3.580   5.955   9.195  0.4346  0.5506 -0.9969
  157SAPE   C3917577   3.645   6.141   9.108 -0.3148  0.6042  0.5427
  157SAPE   H9X17578   3.753   6.121   9.120 -0.8613 -3.4271 -0.3378
  157SAPE   H9Y17579   3.630   6.248   9.133 -1.9800  0.4130  0.4695
  157SAPE  C31017580   3.613   6.121   8.957  0.1688  0.1045  0.0812
  157SAPE  H10X17581   3.517   6.171   8.932  1.2835  2.4443  0.3067
  157SAPE  H10Y17582   3.595   6.015   8.928  0.8509 -0.0463  0.2076
  157SAPE  C31117583   3.724   6.153   8.853 -0.3655 -0.1853 -0.3075
  157SAPE  H11X17584   3.819   6.117   8.898 -0.3191  3.0087  2.3171
  157SAPE  H11Y17585   3.735   6.263   8.843 -0.6088 -0.1028  0.3020
  157SAPE  C31217586   3.710   6.081   8.714  0.2035 -0.1277 -0.5546
  157SAPE  H12X17587   3.703   5.971   8.730 -1.2738  0.1322  0.6796
  157SAPE  H12Y17588   3.811   6.098   8.670  0.0038  2.2057 -0.1315
  157SAPE  C31317589   3.593   6.119   8.621  0.4238 -0.0322  0.4547
  157SAPE  H13X17590   3.638   6.125   8.520  1.4166 -1.8496  0.7647
  157SAPE  H13Y17591   3.561   6.218   8.659  2.1801  0.1145  1.5813
  157SAPE  C31417592   3.469   6.025   8.634  0.5890  0.1607  0.0968
  157SAPE  H14X17593   3.460   6.024   8.745 -1.5046 -0.9056 -0.0609
  157SAPE  H14Y17594   3.501   5.925   8.596 -1.4810 -0.6519  0.4061
  157SAPE  C31517595   3.343   6.073   8.562  0.3055 -0.3917 -0.2995
  157SAPE  H15X17596   3.360   6.104   8.457  0.1666 -2.0821 -0.8203
  157SAPE  H15Y17597   3.322   6.164   8.623 -1.8235  0.1477 -1.7689
  157SAPE  C31617598   3.220   5.985   8.588  0.4920  0.4875 -0.2926
  157SAPE  H16X17599   3.138   6.058   8.574 -0.2956 -0.1864  0.7958
  157SAPE  H16Y17600   3.220   5.939   8.689 -0.7709  1.3262  0.0900
  157SAPE  C31717601   3.199   5.876   8.483 -0.0703 -0.1760  0.2669
  157SAPE  H17X17602   3.290   5.818   8.458 -1.2190 -1.0251 -2.1300
  157SAPE  H17Y17603   3.169   5.924   8.387  0.4815 -2.5265 -1.1003
  157SAPE  C31817604   3.089   5.781   8.517  0.3668 -0.1613  0.7518
  157SAPE  H18X17605   3.011   5.829   8.580 -0.5911 -1.9707  0.9807
  157SAPE  H18Y17606   3.125   5.692   8.573  0.5349  0.5232  1.7383
  157SAPE  H18Z17607   3.041   5.739   8.426  1.2551  1.1891 -0.3563
  158SAPE     N17608   4.330   6.131  10.867  0.0549 -0.4204 -0.3118
  158SAPE   HN117609   4.251   6.160  10.807 -1.8973  0.6520  2.6899
  158SAPE   HN217610   4.388   6.056  10.823  1.1208  1.0337 -1.4507
  158SAPE   HN317611   4.289   6.097  10.957 -0.5318  0.5538 -0.2111
  158SAPE   C1217612   4.427   6.239  10.903 -0.1253  0.6098  0.0008
  158SAPE  H12A17613   4.492   6.202  10.985 -0.7108  0.4291  0.3851
  158SAPE  H12B17614   4.368   6.328  10.933 -0.2302  0.3093  0.6913
  158SAPE   C1117615   4.516   6.262  10.775  0.0663 -0.2739  0.7904
  158SAPE  H11A17616   4.592   6.340  10.796 -0.0263 -0.0621  0.3497
  158SAPE  H11B17617   4.453   6.306  10.695  0.1645 -0.4419  0.6173
  158SAPE     P17618   4.699   6.070  10.781 -0.5658  0.2334  0.1285
  158SAPE   O1317619   4.772   6.167  10.870  0.1946 -0.1801  0.0391
  158SAPE   O1417620   4.660   5.947  10.850 -0.2449 -0.3068 -0.4016
  158SAPE   O1217621   4.566   6.133  10.734 -0.2835 -0.2526  0.0184
  158SAPE   O1117622   4.790   6.033  10.659  0.1401  0.8243  0.2058
  158SAPE    C117623   4.740   5.949  10.555  0.0094 -0.3831  0.6659
  158SAPE    HA17624   4.797   5.854  10.552  0.5960 -0.0502  1.1366
  158SAPE    HB17625   4.635   5.919  10.571 -0.8186  3.0530  2.2281
  158SAPE    C217626   4.755   6.016  10.414 -0.0667  0.3317 -0.1852
  158SAPE    HS17627   4.860   6.049  10.400  0.4729 -1.0085  0.6001
  158SAPE   O2117628   4.660   6.119  10.402  0.4566  0.0852 -0.2491
  158SAPE   C2117629   4.678   6.214  10.310  0.8577  0.6694 -0.8136
  158SAPE   O2217630   4.778   6.234  10.250 -0.6453  0.4547 -0.2446
  158SAPE   C2217631   4.556   6.312  10.300  0.1928 -0.2262  0.1845
  158SAPE   H2R17632   4.463   6.264  10.335 -0.2346  0.3597 -0.1438
  158SAPE   H2S17633   4.583   6.390  10.374  3.0236  1.6674 -2.6574
  158SAPE    C317634   4.739   5.913  10.291  0.5475 -0.5172  0.6341
  158SAPE    HX17635   4.631   5.886  10.296  1.0343 -2.9637 -1.3556
  158SAPE    HY17636   4.799   5.828  10.329  2.0278  0.7030  1.0665
  158SAPE   O3117637   4.786   5.966  10.162  0.0191 -0.1335 -0.5550
  158SAPE   C3117638   4.699   5.958  10.061 -0.1281  0.6687 -0.0724
  158SAPE   O3217639   4.586   5.915  10.070  0.2799 -0.0987 -0.0687
  158SAPE   C3217640   4.773   6.001   9.935  0.1274 -0.7113 -0.3548
  158SAPE   H2X17641   4.846   5.921   9.913  1.7045 -0.4252  3.4177
  158SAPE   H2Y17642   4.816   6.100   9.959 -0.8021 -0.5109  0.5157
  158SAPE   C2317643   4.538   6.382  10.164 -0.5354 -0.3340 -0.1490
  158SAPE   H3R17644   4.435   6.361  10.126 -1.3928  0.6454  1.5610
  158SAPE   H3S17645   4.608   6.336  10.091  0.8166  1.3337  0.0790
  158SAPE   C2417646   4.587   6.530  10.163 -0.2686 -0.1444 -0.1937
  158SAPE   H4R17647   4.601   6.556  10.056 -0.6180 -0.1972 -0.2537
  158SAPE   H4S17648   4.688   6.530  10.209  0.7059  0.1980 -2.2707
  158SAPE   C2517649   4.492   6.619  10.231 -0.1095  0.4141 -0.3519
  158SAPE   H5R17650   4.480   6.614  10.340 -0.1488 -1.2808 -0.4263
  158SAPE   C2617651   4.401   6.697  10.169  0.3284  0.5342 -0.8305
  158SAPE   H6R17652   4.342   6.766  10.232  0.0418 -0.3865 -0.0812
  158SAPE   C2717653   4.380   6.718  10.019 -0.6075 -0.6544 -0.2947
  158SAPE   H7R17654   4.427   6.636   9.960  2.7741  0.2761  0.9912
  158SAPE   H7S17655   4.437   6.809   9.990  2.3873 -2.7277 -1.2362
  158SAPE   C2817656   4.230   6.725   9.991  0.1611  0.0347  0.2274
  158SAPE   H8R17657   4.171   6.739  10.083 -1.2182 -0.8240 -0.4997
  158SAPE   C2917658   4.165   6.709   9.878  0.5600  0.0736 -0.2196
  158SAPE   H9R17659   4.056   6.720   9.871  0.5642  1.0400  0.9731
  158SAPE  C21017660   4.233   6.681   9.748 -0.4687 -0.3549 -0.7251
  158SAPE  H10R17661   4.329   6.630   9.771 -1.1428 -1.5297 -0.4787
  158SAPE  H10S17662   4.251   6.779   9.699 -0.4278  2.0784  3.9693
  158SAPE  C21117663   4.144   6.600   9.657  0.5355 -0.3569  0.4012
  158SAPE  H11R17664   4.060   6.542   9.698 -0.4021  1.8052  1.6323
  158SAPE  C21217665   4.160   6.604   9.523  0.1080  0.0801  0.3885
  158SAPE  H12R17666   4.092   6.539   9.466  1.3045 -0.6442 -0.2201
  158SAPE  C21317667   4.264   6.671   9.435  0.2012  0.5468  0.0947
  158SAPE  H13R17668   4.305   6.597   9.362 -0.3216  0.3148  0.0389
  158SAPE  H13S17669   4.363   6.690   9.482  2.1319 -1.4351 -2.9817
  158SAPE  C21417670   4.216   6.800   9.373  0.1546 -0.4827  0.4045
  158SAPE  H14R17671   4.214   6.893   9.431 -3.3654 -0.4209  0.3416
  158SAPE  C21517672   4.172   6.814   9.250 -0.3345  0.7688 -0.1983
  158SAPE  H15R17673   4.136   6.911   9.213  0.8911  0.8767 -1.1403
  158SAPE  C21617674   4.160   6.697   9.156 -0.1878 -0.3942  0.1714
  158SAPE  H16R17675   4.062   6.646   9.146  1.5080 -3.5890 -0.7516
  158SAPE  H16S17676   4.231   6.614   9.173  1.1090  1.0452  2.0109
  158SAPE  C21717677   4.202   6.746   9.017 -0.5751  0.8802 -0.1456
  158SAPE  H17R17678   4.312   6.760   9.030 -0.4715  0.6293 -0.7277
  158SAPE  H17S17679   4.162   6.847   8.993  0.7687  1.1164 -1.5066
  158SAPE  C21817680   4.153   6.649   8.908 -0.4177 -0.0205 -0.6460
  158SAPE  H18R17681   4.049   6.621   8.934  0.2731 -1.6989  0.3994
  158SAPE  H18S17682   4.215   6.557   8.897 -0.4597 -0.2702  1.0430
  158SAPE  C21917683   4.162   6.709   8.771 -0.0469 -0.0636 -0.1492
  158SAPE  H19R17684   4.105   6.804   8.768  0.1342  0.0152 -2.6161
  158SAPE  H19S17685   4.107   6.643   8.700 -1.8505  1.1017  0.1429
  158SAPE  C22017686   4.302   6.737   8.721  0.2366 -0.0288  0.3431
  158SAPE  H20R17687   4.357   6.641   8.736 -2.7024 -1.8646 -0.2739
  158SAPE  H20S17688   4.350   6.820   8.777 -0.8998  1.1722 -0.4447
  158SAPE  H20T17689   4.294   6.769   8.615 -2.1594 -1.3169  0.0975
  158SAPE   C3317690   4.678   6.021   9.813 -0.0999 -0.1888  0.7691
  158SAPE   H3X17691   4.625   6.116   9.835  0.3120 -0.3101  2.3205
  158SAPE   H3Y17692   4.607   5.935   9.813 -2.3514  1.6286  0.5594
  158SAPE   C3417693   4.745   6.039   9.673 -0.7548 -0.1942  0.0586
  158SAPE   H4X17694   4.803   5.947   9.650 -1.7279 -0.7869 -0.0565
  158SAPE   H4Y17695   4.807   6.131   9.686 -0.2008 -0.2865 -1.8154
  158SAPE   C3517696   4.649   6.050   9.559 -0.8002  0.5098 -0.5348
  158SAPE   H5X17697   4.610   6.153   9.543 -1.0331  0.5101  0.0374
  158SAPE   H5Y17698   4.563   5.993   9.597  0.5194  0.6166  2.7536
  158SAPE   C3617699   4.706   5.994   9.426 -0.0250 -0.3671 -0.8114
  158SAPE   H6X17700   4.631   5.941   9.363 -2.3992  0.9263  0.8545
  158SAPE   H6Y17701   4.771   5.913   9.465 -1.8109 -0.0774  2.9902
  158SAPE   C3717702   4.784   6.093   9.344  0.5197  0.3294 -0.0965
  158SAPE   H7X17703   4.725   6.186   9.336  0.9733  0.6993  0.7747
  158SAPE   H7Y17704   4.799   6.063   9.238  0.7507 -1.2041  0.3454
  158SAPE   C3817705   4.928   6.117   9.405 -0.5475  0.0615  0.1899
  158SAPE   H8X17706   4.983   6.021   9.405 -3.8762 -1.9727  1.8875
  158SAPE   H8Y17707   4.910   6.150   9.510  1.0610 -1.0678  0.8306
  158SAPE   C3917708   5.002   6.229   9.331 -0.6995  0.1898  0.9954
  158SAPE   H9X17709   5.086   6.275   9.388 -0.4981  0.0407  0.8171
  158SAPE   H9Y17710   4.939   6.318   9.308 -0.7656  0.1848  1.1495
  158SAPE  C31017711   5.053   6.174   9.192  0.1886  0.3541 -0.4857
  158SAPE  H10X17712   4.978   6.142   9.117  1.3799 -2.6846 -0.4349
  158SAPE  H10Y17713   5.108   6.079   9.207  1.5294  1.2510  0.4946
  158SAPE  C31117714   5.160   6.268   9.127 -0.5142 -0.0100 -0.0382
  158SAPE  H11X17715   5.245   6.282   9.197 -1.3716  0.6418  0.8790
  158SAPE  H11Y17716   5.126   6.371   9.101 -0.4934 -0.5037 -2.1484
  158SAPE  C31217717   5.223   6.215   8.996 -0.9019 -0.7704  0.2030
  158SAPE  H12X17718   5.152   6.224   8.911  2.3163 -0.1111 -2.4972
  158SAPE  H12Y17719   5.246   6.107   9.009  0.5169 -0.8545 -2.6563
  158SAPE  C31317720   5.348   6.309   8.972  0.1645  0.2719  0.1267
  158SAPE  H13X17721   5.433   6.294   9.041  0.8620 -1.0901 -0.9876
  158SAPE  H13Y17722   5.322   6.417   8.978 -0.2316  0.1624  0.3731
  158SAPE  C31417723   5.402   6.278   8.830 -0.5594  0.6674  0.4704
  158SAPE  H14X17724   5.309   6.272   8.769 -1.6105 -0.6881  2.1375
  158SAPE  H14Y17725   5.453   6.179   8.831  0.0805  0.9904  2.8512
  158SAPE  C31517726   5.497   6.387   8.793  0.0849  0.6682  0.0447
  158SAPE  H15X17727   5.579   6.394   8.868 -0.0794  0.6402  0.2274
  158SAPE  H15Y17728   5.442   6.483   8.787 -2.6726 -0.9773 -2.7042
  158SAPE  C31617729   5.563   6.353   8.655 -0.1935  0.0305 -0.3034
  158SAPE  H16X17730   5.485   6.326   8.580  0.2558 -1.0140 -0.4024
  158SAPE  H16Y17731   5.634   6.269   8.670  1.2199  1.3507  0.5475
  158SAPE  C31717732   5.641   6.475   8.598  0.3884  0.1931  0.8838
  158SAPE  H17X17733   5.736   6.480   8.655  0.8374 -4.0199  0.6940
  158SAPE  H17Y17734   5.578   6.559   8.634 -2.4294 -1.0593 -0.9840
  158SAPE  C31817735   5.677   6.493   8.450  0.2166 -0.2361  0.2593
  158SAPE  H18X17736   5.584   6.484   8.388 -0.9571 -0.6102  2.0416
  158SAPE  H18Y17737   5.742   6.407   8.423 -1.8335 -1.1783 -1.8872
  158SAPE  H18Z17738   5.730   6.590   8.449 -0.4204  0.1215  0.7872
  159SAPE     N17739   4.080   5.041   6.423  0.0147 -0.5658  0.8998
  159SAPE   HN117740   4.142   5.071   6.345 -0.9135 -0.2248  0.2822
  159SAPE   HN217741   4.145   5.019   6.501 -0.6915  1.3898  2.0826
  159SAPE   HN317742   4.036   4.953   6.391  1.2841 -0.6124 -0.7313
  159SAPE   C1217743   3.971   5.137   6.465 -0.3184 -0.0397  0.0092
  159SAPE  H12A17744   3.927   5.167   6.367 -0.5899  2.2893  0.8114
  159SAPE  H12B17745   4.009   5.230   6.513 -2.3379  1.2418 -0.7613
  159SAPE   C1117746   3.866   5.062   6.547  0.6885 -0.1017 -0.4353
  159SAPE  H11A17747   3.794   5.138   6.584  0.3619 -1.1399  1.1189
  159SAPE  H11B17748   3.906   5.025   6.643 -1.5315  1.6968  1.2430
  159SAPE     P17749   3.817   4.826   6.462  0.1207  0.4113  0.4810
  159SAPE   O1317750   3.689   4.755   6.424 -0.3024 -0.0387 -0.0047
  159SAPE   O1417751   3.932   4.803   6.374  0.3727 -0.2429 -0.1486
  159SAPE   O1217752   3.789   4.978   6.462 -0.0063 -0.5200 -0.3229
  159SAPE   O1117753   3.865   4.786   6.609  1.0411  0.4986 -0.7046
  159SAPE    C117754   3.844   4.656   6.659 -0.4609  0.0411  0.6913
  159SAPE    HA17755   3.739   4.618   6.653  0.0916 -1.3968 -0.1314
  159SAPE    HB17756   3.906   4.588   6.597 -0.2454  0.2528  0.6760
  159SAPE    C217757   3.877   4.645   6.814 -0.6989 -0.1585 -0.0005
  159SAPE    HS17758   3.887   4.536   6.835 -0.0791 -0.4065 -1.5381
  159SAPE   O2117759   3.785   4.700   6.911 -0.0113 -0.0047  0.7013
  159SAPE   C2117760   3.670   4.643   6.921  0.2059  0.9370 -0.2567
  159SAPE   O2217761   3.624   4.560   6.847  0.2211  0.4823 -0.2406
  159SAPE   C2217762   3.589   4.693   7.036 -0.1321 -0.0274 -0.4629
  159SAPE   H2R17763   3.637   4.780   7.085  1.7101 -2.5387  2.4149
  159SAPE   H2S17764   3.508   4.755   6.994  1.0352  1.2021 -0.9309
  159SAPE    C317765   4.018   4.708   6.830  0.1009  0.2639 -0.3762
  159SAPE    HX17766   4.010   4.816   6.807 -0.8007  0.5080  1.0415
  159SAPE    HY17767   4.084   4.669   6.750 -0.6657  1.3034 -1.5314
  159SAPE   O3117768   4.077   4.681   6.959  0.6277 -0.2997 -0.2961
  159SAPE   C3117769   4.184   4.746   6.983 -0.5580 -0.2607 -0.0047
  159SAPE   O3217770   4.225   4.849   6.925 -0.0333 -0.4114  0.1680
  159SAPE   C3217771   4.253   4.690   7.105  1.3503  0.0471 -0.6432
  159SAPE   H2X17772   4.287   4.587   7.079  0.4792 -0.6657  0.9724
  159SAPE   H2Y17773   4.178   4.691   7.187 -1.0931 -0.4701 -2.8097
  159SAPE   C2317774   3.550   4.582   7.135  0.2256  0.9498 -0.0010
  159SAPE   H3R17775   3.636   4.520   7.170 -1.4099 -2.4339 -1.7508
  159SAPE   H3S17776   3.481   4.518   7.076  1.9898 -0.5339 -0.5087
  159SAPE   C2417777   3.468   4.638   7.254  0.6345  0.2414 -0.2248
  159SAPE   H4R17778   3.391   4.711   7.221 -0.8123 -1.7855 -1.4475
  159SAPE   H4S17779   3.523   4.694   7.333  1.4212  2.2312 -2.1455
  159SAPE   C2517780   3.399   4.527   7.330  0.6327 -0.2781 -0.5472
  159SAPE   H5R17781   3.317   4.489   7.268 -0.7869  3.3011 -1.0077
  159SAPE   C2617782   3.424   4.473   7.453 -0.2370 -0.2303  0.7470
  159SAPE   H6R17783   3.367   4.387   7.494 -0.2628 -0.8652 -0.5929
  159SAPE   C2717784   3.546   4.500   7.544 -0.1782 -0.0324 -0.6430
  159SAPE   H7R17785   3.591   4.601   7.527  1.4309 -0.7072 -0.4644
  159SAPE   H7S17786   3.628   4.427   7.529 -0.3316 -1.2871  3.9084
  159SAPE   C2817787   3.507   4.489   7.692  0.7295 -0.5217  0.6073
  159SAPE   H8R17788   3.413   4.435   7.710  0.7564 -0.3782  1.2072
  159SAPE   C2917789   3.566   4.534   7.800 -0.0330 -0.3924 -0.1583
  159SAPE   H9R17790   3.514   4.533   7.897  0.0715 -1.0526 -0.1057
  159SAPE  C21017791   3.693   4.610   7.812  0.8899  0.0838  0.0808
  159SAPE  H10R17792   3.678   4.692   7.885  0.2175 -0.2431  0.3170
  159SAPE  H10S17793   3.728   4.653   7.716  2.6271  1.5813  1.3620
  159SAPE  C21117794   3.805   4.523   7.868  0.1095 -0.2067 -0.5685
  159SAPE  H11R17795   3.823   4.433   7.809  0.2224 -1.9317  2.0118
  159SAPE  C21217796   3.866   4.546   7.985  0.0057 -0.3930 -0.3990
  159SAPE  H12R17797   3.949   4.479   8.011 -0.6768 -0.5994  1.3366
  159SAPE  C21317798   3.845   4.645   8.097 -0.2948  0.2021  0.1652
  159SAPE  H13R17799   3.840   4.745   8.049  0.6699  1.2482  2.1827
  159SAPE  H13S17800   3.941   4.647   8.153 -0.4492 -1.5867  0.5121
  159SAPE  C21417801   3.723   4.613   8.181  0.0603 -0.1579 -0.3010
  159SAPE  H14R17802   3.622   4.631   8.141 -0.1955 -0.6660  0.1171
  159SAPE  C21517803   3.720   4.573   8.309  0.6517  0.2402 -0.0506
  159SAPE  H15R17804   3.624   4.561   8.361  0.0007 -1.6032 -1.6081
  159SAPE  C21617805   3.838   4.550   8.409 -0.5142  0.6032  0.0892
  159SAPE  H16R17806   3.937   4.567   8.360  0.4699 -2.8871  0.6890
  159SAPE  H16S17807   3.845   4.444   8.441  2.3429  0.5441 -0.5739
  159SAPE  C21717808   3.819   4.627   8.540  0.0443 -0.1305 -0.0498
  159SAPE  H17R17809   3.736   4.583   8.598 -1.0798  0.2932 -1.3108
  159SAPE  H17S17810   3.797   4.735   8.527  0.3338  0.0645  1.0128
  159SAPE  C21817811   3.939   4.613   8.638 -0.0585 -0.3651  0.0147
  159SAPE  H18R17812   4.040   4.629   8.595 -0.2383  0.8022  0.0039
  159SAPE  H18S17813   3.950   4.518   8.693 -0.8349 -0.0389  0.7463
  159SAPE  C21917814   3.924   4.715   8.755  0.3984 -0.5604 -0.1803
  159SAPE  H19R17815   4.003   4.686   8.828  1.3411  0.5519 -0.7468
  159SAPE  H19S17816   3.825   4.703   8.804 -0.3304  0.1617 -1.4456
  159SAPE  C22017817   3.941   4.859   8.714  0.4874 -0.6276 -0.2348
  159SAPE  H20R17818   3.944   4.922   8.806 -0.9494  1.2311 -1.4212
  159SAPE  H20S17819   3.849   4.888   8.659  1.5086  1.6132 -0.8148
  159SAPE  H20T17820   4.038   4.870   8.661  0.6376  1.1892  0.3789
  159SAPE   C3317821   4.365   4.776   7.148  0.3779 -0.2979 -0.1949
  159SAPE   H3X17822   4.323   4.877   7.168  0.4586 -0.5675  1.4765
  159SAPE   H3Y17823   4.446   4.772   7.073  1.1228  0.0378  0.5849
  159SAPE   C3417824   4.430   4.741   7.281  0.6110  0.3939 -0.3247
  159SAPE   H4X17825   4.509   4.667   7.254  0.0934 -0.1856 -0.2696
  159SAPE   H4Y17826   4.353   4.697   7.349  0.3505  1.3684  0.0137
  159SAPE   C3517827   4.521   4.851   7.339 -0.3252  0.3621 -0.3978
  159SAPE   H5X17828   4.469   4.937   7.386  0.9729 -0.4757  2.6333
  159SAPE   H5Y17829   4.581   4.902   7.261  1.1866 -1.2384 -0.3150
  159SAPE   C3617830   4.613   4.799   7.449  0.2598  0.0719  0.5395
  159SAPE   H6X17831   4.691   4.874   7.475 -2.7926  3.0013  1.6296
  159SAPE   H6Y17832   4.656   4.702   7.415  0.5188  0.6097 -0.7138
  159SAPE   C3717833   4.534   4.781   7.580  0.0835 -0.2072  0.3777
  159SAPE   H7X17834   4.446   4.719   7.550  0.3061  0.2520 -1.2853
  159SAPE   H7Y17835   4.494   4.880   7.610 -0.2165  0.7033 -2.8481
  159SAPE   C3817836   4.621   4.723   7.690  0.1329 -0.3858  0.6994
  159SAPE   H8X17837   4.716   4.780   7.692  0.4217 -0.6805 -2.3970
  159SAPE   H8Y17838   4.645   4.618   7.662 -1.1316 -0.1667 -1.2842
  159SAPE   C3917839   4.540   4.722   7.823 -0.2761  0.8732 -0.2252
  159SAPE   H9X17840   4.441   4.677   7.802 -0.3961  0.2527  1.5427
  159SAPE   H9Y17841   4.537   4.828   7.857 -2.8300  0.6131  0.4400
  159SAPE  C31017842   4.613   4.638   7.935 -0.1080  0.5224  0.0318
  159SAPE  H10X17843   4.715   4.681   7.947 -0.1867  1.4928 -2.5353
  159SAPE  H10Y17844   4.617   4.535   7.894  0.1687  0.2451  0.7480
  159SAPE  C31117845   4.535   4.626   8.066 -0.7344 -0.3222  0.5845
  159SAPE  H11X17846   4.429   4.594   8.055 -1.9908  4.0563 -1.0002
  159SAPE  H11Y17847   4.531   4.728   8.108 -0.3637  0.4520 -1.2228
  159SAPE  C31217848   4.606   4.525   8.160  0.1780 -0.6943  0.2588
  159SAPE  H12X17849   4.715   4.545   8.172  0.0198 -0.1091  0.7628
  159SAPE  H12Y17850   4.585   4.421   8.130 -2.5237  0.4485 -2.0856
  159SAPE  C31317851   4.555   4.542   8.300 -0.5548 -0.3975 -0.0185
  159SAPE  H13X17852   4.445   4.528   8.299 -0.6614 -0.1575  3.1366
  159SAPE  H13Y17853   4.580   4.646   8.328  2.8542 -0.9421 -0.7698
  159SAPE  C31417854   4.625   4.439   8.389 -0.1370  0.0850 -0.4635
  159SAPE  H14X17855   4.621   4.344   8.330  2.0180  0.0927 -0.6562
  159SAPE  H14Y17856   4.553   4.431   8.473  2.5834  1.2296  2.0660
  159SAPE  C31517857   4.764   4.470   8.445 -0.1652 -0.3815  1.3112
  159SAPE  H15X17858   4.774   4.577   8.474 -0.0298 -0.1111  0.2764
  159SAPE  H15Y17859   4.829   4.472   8.354 -0.6521 -0.3116  0.9656
  159SAPE  C31617860   4.811   4.400   8.573 -0.8323  0.1849 -0.4961
  159SAPE  H16X17861   4.771   4.297   8.580  0.3518 -0.2643 -0.1145
  159SAPE  H16Y17862   4.784   4.452   8.668  1.1727 -0.4886  0.4676
  159SAPE  C31717863   4.963   4.379   8.575 -0.1800  0.0644 -0.5908
  159SAPE  H17X17864   5.002   4.324   8.487  0.2316 -1.3783  0.4796
  159SAPE  H17Y17865   4.985   4.308   8.657  0.2670 -0.9019 -1.5441
  159SAPE  C31817866   5.033   4.516   8.597 -0.0472  0.3500  0.2256
  159SAPE  H18X17867   5.011   4.581   8.510 -1.5493 -1.4617 -0.7879
  159SAPE  H18Y17868   5.142   4.506   8.614 -0.3194 -0.5098  1.5546
  159SAPE  H18Z17869   4.990   4.563   8.688  2.1842  0.0355  1.4715
  160SAPE     N17870   2.841   5.275   6.708 -0.6085  0.4492 -0.5475
  160SAPE   HN117871   2.866   5.368   6.747  0.0830  0.6310 -1.4230
  160SAPE   HN217872   2.738   5.277   6.692 -0.8256 -2.4105  0.2830
  160SAPE   HN317873   2.854   5.190   6.766 -1.7125 -0.1121 -1.1077
  160SAPE   C1217874   2.899   5.275   6.572  1.0602  0.1439 -0.7778
  160SAPE  H12A17875   2.837   5.195   6.525 -0.7392  0.8945  0.2577
  160SAPE  H12B17876   3.003   5.235   6.578  1.9214  2.0620 -2.3465
  160SAPE   C1117877   2.893   5.408   6.497  0.4759 -0.1907 -0.0988
  160SAPE  H11A17878   2.786   5.429   6.475  0.0249  0.7004  2.7433
  160SAPE  H11B17879   2.942   5.387   6.400 -0.0927  0.0982 -0.4512
  160SAPE     P17880   2.980   5.663   6.518  0.3424  0.1921  0.0651
  160SAPE   O1317881   3.120   5.704   6.501  0.0972 -0.5165 -0.3655
  160SAPE   O1417882   2.878   5.684   6.412 -0.4277  0.5612 -0.0467
  160SAPE   O1217883   2.967   5.510   6.571  0.0777  0.7775  0.0978
  160SAPE   O1117884   2.923   5.735   6.647 -0.3142 -0.0282  0.1729
  160SAPE    C117885   3.003   5.720   6.763 -0.8087 -0.0702 -0.0117
  160SAPE    HA17886   3.034   5.614   6.778 -0.6753 -0.1398 -0.7850
  160SAPE    HB17887   3.095   5.782   6.757  1.3167 -3.2551 -2.0358
  160SAPE    C217888   2.934   5.732   6.900 -0.0285 -0.7086  0.2805
  160SAPE    HS17889   2.984   5.658   6.966  0.6274  0.5350  1.1942
  160SAPE   O2117890   2.789   5.716   6.897 -0.0488 -0.5100 -0.0869
  160SAPE   C2117891   2.758   5.587   6.857 -0.0281 -0.4516  0.3401
  160SAPE   O2217892   2.827   5.491   6.855  0.5491  0.1274 -0.3931
  160SAPE   C2217893   2.610   5.596   6.812  0.3032 -0.1327 -0.2553
  160SAPE   H2R17894   2.574   5.701   6.819 -0.2221 -0.4709  3.1615
  160SAPE   H2S17895   2.616   5.564   6.706  2.0799 -1.4790  0.2268
  160SAPE    C317896   2.961   5.874   6.963  0.6347  0.7880 -0.4082
  160SAPE    HX17897   2.875   5.901   7.028 -0.4637  1.5395 -2.1442
  160SAPE    HY17898   2.966   5.942   6.876 -1.5669 -0.4846 -1.5745
  160SAPE   O3117899   3.077   5.873   7.044 -0.5558 -0.3684 -0.0470
  160SAPE   C3117900   3.085   5.990   7.109  0.6109  0.1167 -0.9749
  160SAPE   O3217901   3.006   6.082   7.092  0.2865 -0.5175  0.0189
  160SAPE   C3217902   3.191   5.988   7.207  0.9564 -0.2270  0.2124
  160SAPE   H2X17903   3.272   6.059   7.180 -1.8439  2.2395 -2.1099
  160SAPE   H2Y17904   3.233   5.885   7.203  0.5086 -0.4180  0.3891
  160SAPE   C2317905   2.501   5.506   6.871  0.2206 -0.1654  1.1703
  160SAPE   H3R17906   2.539   5.403   6.855  0.7081  0.3169 -1.0460
  160SAPE   H3S17907   2.411   5.516   6.806  0.3387 -0.0883  1.0163
  160SAPE   C2417908   2.440   5.541   7.011 -0.1889  0.2293 -0.1206
  160SAPE   H4R17909   2.338   5.497   7.014 -1.1090  2.3866  1.4010
  160SAPE   H4S17910   2.419   5.650   7.016  0.6730  0.3196  2.4239
  160SAPE   C2517911   2.514   5.493   7.130 -0.2974  0.2955 -1.5324
  160SAPE   H5R17912   2.536   5.385   7.133 -0.4075  0.2872 -0.8217
  160SAPE   C2617913   2.567   5.579   7.219  0.5498  0.1335 -0.5976
  160SAPE   H6R17914   2.625   5.523   7.295  1.5135 -0.1770 -1.5442
  160SAPE   C2717915   2.581   5.729   7.239  0.1832 -0.0847  0.2026
  160SAPE   H7R17916   2.518   5.755   7.328  1.0915  1.5237  0.3924
  160SAPE   H7S17917   2.544   5.779   7.148  0.3241 -0.5311 -0.1012
  160SAPE   C2817918   2.726   5.773   7.256  0.1288 -0.2439  0.6785
  160SAPE   H8R17919   2.794   5.727   7.183 -0.6667 -0.5025  0.1013
  160SAPE   C2917920   2.779   5.854   7.352 -0.2152 -0.3869  0.2729
  160SAPE   H9R17921   2.889   5.861   7.357 -0.3607  2.1224  0.4049
  160SAPE  C21017922   2.706   5.931   7.460 -0.4559 -0.2368  0.3384
  160SAPE  H10R17923   2.674   5.869   7.547  0.0843  1.1528  1.5540
  160SAPE  H10S17924   2.612   5.965   7.410 -0.2118  0.7026  0.5061
  160SAPE  C21117925   2.809   6.043   7.490  0.4176  0.3152  0.0309
  160SAPE  H11R17926   2.844   6.096   7.400 -0.8348  1.3427  0.1365
  160SAPE  C21217927   2.866   6.067   7.606  0.0035  0.6492 -0.5266
  160SAPE  H12R17928   2.949   6.139   7.597  1.4010 -0.9492 -0.8072
  160SAPE  C21317929   2.851   6.007   7.743 -0.6385 -1.2223  0.5790
  160SAPE  H13R17930   2.774   5.927   7.744 -0.6468 -1.2169  0.3071
  160SAPE  H13S17931   2.814   6.079   7.819 -0.6655 -0.4908 -0.1182
  160SAPE  C21417932   2.990   5.953   7.789 -0.3875 -0.0375  0.4166
  160SAPE  H14R17933   3.019   5.861   7.737 -1.8619 -0.4789  0.3626
  160SAPE  C21517934   3.064   6.001   7.891 -0.3766  0.8161 -0.3601
  160SAPE  H15R17935   3.161   5.954   7.912  0.0136  1.6109 -0.3688
  160SAPE  C21617936   3.023   6.117   7.978 -0.1414  0.6081 -0.4429
  160SAPE  H16R17937   2.955   6.187   7.926 -1.1885  0.4883  0.7605
  160SAPE  H16S17938   3.111   6.167   8.023  0.2957 -0.5024 -0.0433
  160SAPE  C21717939   2.937   6.081   8.095 -0.8052  0.7815  0.8031
  160SAPE  H17R17940   2.981   6.001   8.158  2.3832  2.9318  1.4534
  160SAPE  H17S17941   2.838   6.041   8.066  0.2156 -1.2182 -0.0739
  160SAPE  C21817942   2.904   6.199   8.186  0.3061 -0.0557  0.4288
  160SAPE  H18R17943   2.889   6.290   8.126 -2.8647 -0.7795  0.0321
  160SAPE  H18S17944   2.991   6.218   8.253  0.7957  1.4820 -0.6172
  160SAPE  C21917945   2.788   6.169   8.283 -0.1034  0.4819 -0.5783
  160SAPE  H19R17946   2.831   6.113   8.369 -1.6309  0.6124  0.2964
  160SAPE  H19S17947   2.703   6.121   8.229 -0.2544  1.3432 -1.1150
  160SAPE  C22017948   2.732   6.294   8.342  1.2925 -0.0119 -0.2912
  160SAPE  H20R17949   2.700   6.363   8.261  0.3820  2.3623  2.0271
  160SAPE  H20S17950   2.802   6.353   8.406  0.2041  2.2359 -1.1242
  160SAPE  H20T17951   2.646   6.273   8.409  2.2631  1.5341  1.5117
  160SAPE   C3317952   3.138   6.039   7.346  0.2447 -0.3731  0.0540
  160SAPE   H3X17953   3.055   5.970   7.371  0.1119 -0.5862 -0.9594
  160SAPE   H3Y17954   3.091   6.140   7.341  0.7883 -0.1303 -0.1434
  160SAPE   C3417955   3.258   6.033   7.437 -0.2642  0.6212  0.0074
  160SAPE   H4X17956   3.326   5.947   7.421 -1.9083 -0.8585  0.7484
  160SAPE   H4Y17957   3.229   6.020   7.543  1.6652 -0.5585  0.4183
  160SAPE   C3517958   3.333   6.168   7.447 -0.0697  0.2269 -0.2748
  160SAPE   H5X17959   3.385   6.203   7.355  1.0542  2.3419  1.1293
  160SAPE   H5Y17960   3.413   6.170   7.523  0.2574  1.6723 -0.6469
  160SAPE   C3617961   3.244   6.285   7.496  0.1271 -0.4640 -0.2226
  160SAPE   H6X17962   3.169   6.250   7.570 -1.0366 -2.0740 -2.1255
  160SAPE   H6Y17963   3.187   6.324   7.409  0.5367 -0.0366 -0.3048
  160SAPE   C3717964   3.321   6.411   7.551  0.4069 -0.3186  0.7028
  160SAPE   H7X17965   3.366   6.475   7.472 -1.4698  0.3897  0.1818
  160SAPE   H7Y17966   3.409   6.378   7.611  1.9968  0.8645 -0.9298
  160SAPE   C3817967   3.235   6.505   7.638 -0.1320  0.0943  0.7201
  160SAPE   H8X17968   3.184   6.442   7.714 -3.3317 -0.1241 -1.5294
  160SAPE   H8Y17969   3.155   6.553   7.577  0.4736 -1.5732 -1.4392
  160SAPE   C3917970   3.317   6.619   7.692 -0.0605 -0.0509 -0.1241
  160SAPE   H9X17971   3.253   6.699   7.736  1.5074 -1.1818  4.5057
  160SAPE   H9Y17972   3.380   6.659   7.610  0.0481  0.7930  0.3630
  160SAPE  C31017973   3.416   6.572   7.809  0.0444 -0.4295  0.0409
  160SAPE  H10X17974   3.477   6.663   7.831 -1.3865  0.7734 -0.8514
  160SAPE  H10Y17975   3.482   6.487   7.785  0.6448  0.0237  0.0568
  160SAPE  C31117976   3.349   6.532   7.946  0.4242 -0.2674  0.1853
  160SAPE  H11X17977   3.287   6.441   7.934 -1.8261  0.7878  3.0997
  160SAPE  H11Y17978   3.277   6.614   7.970  0.7809  0.6117 -1.6424
  160SAPE  C31217979   3.456   6.516   8.058 -0.4376  0.1614 -0.5383
  160SAPE  H12X17980   3.400   6.532   8.153  0.3550  2.9557 -0.5096
  160SAPE  H12Y17981   3.523   6.604   8.046 -0.5044  0.2568 -0.2173
  160SAPE  C31317982   3.536   6.388   8.053 -0.1006 -0.8648 -0.4706
  160SAPE  H13X17983   3.615   6.386   8.131 -0.3012  0.9426 -0.1904
  160SAPE  H13Y17984   3.589   6.394   7.955 -1.0973  1.1227 -0.9177
  160SAPE  C31417985   3.452   6.259   8.055 -0.2286  0.5210 -0.1238
  160SAPE  H14X17986   3.379   6.252   7.972 -2.0441 -1.8110  1.6123
  160SAPE  H14Y17987   3.402   6.256   8.154  2.0992  0.4383  1.0815
  160SAPE  C31517988   3.544   6.129   8.045 -0.3144 -0.8320  0.0374
  160SAPE  H15X17989   3.481   6.039   8.059 -0.1207 -1.0618 -0.5154
  160SAPE  H15Y17990   3.603   6.125   8.139  0.2191 -1.3498 -0.3172
  160SAPE  C31617991   3.635   6.127   7.920  0.0274  0.1127  0.2364
  160SAPE  H16X17992   3.675   6.024   7.918  3.1376  1.2478  0.8786
  160SAPE  H16Y17993   3.724   6.193   7.930 -1.7386  2.3832  1.4376
  160SAPE  C31717994   3.571   6.144   7.782  0.0179 -0.7488 -0.1017
  160SAPE  H17X17995   3.536   6.249   7.772 -2.1914 -1.3358  1.1690
  160SAPE  H17Y17996   3.476   6.088   7.765 -2.0104  2.3612  0.5216
  160SAPE  C31817997   3.659   6.119   7.655  0.4556 -0.1053 -0.5114
  160SAPE  H18X17998   3.716   6.027   7.682  0.4153 -0.0713 -0.3139
  160SAPE  H18Y17999   3.724   6.209   7.645  1.6233 -0.8458  0.1933
  160SAPE  H18Z18000   3.617   6.105   7.553  2.9283 -1.1315 -1.4525
  161SAPE     N18001   5.154   4.531   6.349  0.9078  0.5593 -1.0999
  161SAPE   HN118002   5.227   4.459   6.334  0.1479 -0.8900  1.7735
  161SAPE   HN218003   5.195   4.626   6.355  0.8245  0.5471 -0.3222
  161SAPE   HN318004   5.120   4.509   6.444  1.2835  0.1804 -1.0531
  161SAPE   C1218005   5.031   4.512   6.258 -0.6639 -0.3556 -0.0738
  161SAPE  H12A18006   5.061   4.508   6.151 -0.5812 -3.5673 -0.0036
  161SAPE  H12B18007   4.967   4.593   6.298  3.1095  2.3137  0.8136
  161SAPE   C1118008   4.979   4.367   6.282 -0.3980 -0.1482 -0.0436
  161SAPE  H11A18009   5.060   4.295   6.260 -0.2954 -0.2127  0.5331
  161SAPE  H11B18010   4.897   4.339   6.213 -1.4807  0.5223  0.9535
  161SAPE     P18011   4.794   4.338   6.479 -0.2874 -0.2971 -0.1140
  161SAPE   O1318012   4.746   4.479   6.502 -1.0970 -0.2233  0.5065
  161SAPE   O1418013   4.711   4.245   6.398 -0.1258  0.3785  0.5042
  161SAPE   O1218014   4.945   4.347   6.420  0.1176 -0.2103  0.9300
  161SAPE   O1118015   4.828   4.282   6.620  0.2069  0.5902  0.3015
  161SAPE    C118016   4.903   4.355   6.711 -0.2325  0.1869 -0.7030
  161SAPE    HA18017   5.006   4.363   6.669  0.6409 -0.5939  1.2546
  161SAPE    HB18018   4.865   4.457   6.734 -1.7514 -1.1357  2.9687
  161SAPE    C218019   4.900   4.286   6.853  0.0942  1.2511 -0.1332
  161SAPE    HS18020   4.920   4.179   6.831  0.8248  1.3182  0.1906
  161SAPE   O2118021   4.780   4.305   6.920 -0.0384 -0.6480  0.0449
  161SAPE   C2118022   4.758   4.218   7.020  0.4861 -1.0087 -0.1849
  161SAPE   O2218023   4.832   4.127   7.048  1.0216 -0.0504 -0.1870
  161SAPE   C2218024   4.623   4.246   7.090 -0.1827  0.0120 -0.2755
  161SAPE   H2R18025   4.548   4.263   7.009 -1.4270 -1.4577  0.5469
  161SAPE   H2S18026   4.597   4.156   7.150 -1.2923  0.1438 -0.5453
  161SAPE    C318027   5.027   4.352   6.920  0.7925 -0.1827 -0.3366
  161SAPE    HX18028   5.022   4.460   6.896  1.6281 -0.1579 -0.4193
  161SAPE    HY18029   5.122   4.310   6.880  0.4626  0.3568 -1.7218
  161SAPE   O3118030   5.030   4.343   7.065  0.2552 -0.0221 -0.2317
  161SAPE   C3118031   5.113   4.259   7.133 -0.3017  0.1882  0.0364
  161SAPE   O3218032   5.194   4.181   7.084 -0.3854  0.5950  0.3055
  161SAPE   C3218033   5.084   4.253   7.282 -0.1517  0.0050  0.1790
  161SAPE   H2X18034   4.974   4.234   7.287  0.0983 -2.3036 -1.7683
  161SAPE   H2Y18035   5.106   4.350   7.330  0.5858 -0.3560  0.5814
  161SAPE   C2318036   4.647   4.364   7.198 -0.4703  1.0102  0.6317
  161SAPE   H3R18037   4.684   4.455   7.146  4.4963 -1.3247 -0.2446
  161SAPE   H3S18038   4.728   4.335   7.268  0.2195 -1.5759 -1.1440
  161SAPE   C2418039   4.525   4.404   7.288  0.0730  0.4937 -0.4017
  161SAPE   H4R18040   4.460   4.446   7.208  0.5040 -0.8044 -1.4541
  161SAPE   H4S18041   4.562   4.490   7.348  1.6195  0.4631 -1.2921
  161SAPE   C2518042   4.457   4.289   7.362 -0.6572  0.4959 -0.3510
  161SAPE   H5R18043   4.361   4.252   7.323 -0.9879 -0.0090  0.8876
  161SAPE   C2618044   4.511   4.215   7.468 -0.6287 -0.5250 -0.2902
  161SAPE   H6R18045   4.447   4.131   7.497 -2.4132  0.1660 -2.0517
  161SAPE   C2718046   4.644   4.239   7.530 -0.1054 -0.4411  0.0800
  161SAPE   H7R18047   4.709   4.305   7.469 -0.7929 -0.6996 -0.9374
  161SAPE   H7S18048   4.705   4.146   7.517 -1.5431 -1.5105  0.8435
  161SAPE   C2818049   4.643   4.285   7.673  0.9991 -0.1644 -0.0677
  161SAPE   H8R18050   4.545   4.275   7.722 -0.3552  0.3885 -2.6126
  161SAPE   C2918051   4.743   4.341   7.738  0.0260  1.2769  0.1520
  161SAPE   H9R18052   4.725   4.371   7.842  0.2062  0.7506  0.3376
  161SAPE  C21018053   4.879   4.382   7.687 -0.6139 -0.2314  0.1116
  161SAPE  H10R18054   4.886   4.365   7.578 -3.3776 -2.5595  0.2365
  161SAPE  H10S18055   4.953   4.311   7.730 -0.0434 -0.3474 -1.0584
  161SAPE  C21118056   4.920   4.517   7.731 -0.2584 -0.3754 -0.0175
  161SAPE  H11R18057   4.917   4.525   7.840 -0.1766 -2.8088  0.1860
  161SAPE  C21218058   4.956   4.624   7.656  0.6205  0.6018  0.6336
  161SAPE  H12R18059   4.977   4.725   7.695  2.2387  0.5285 -0.0067
  161SAPE  C21318060   4.965   4.628   7.505 -0.5119  0.1828 -0.1445
  161SAPE  H13R18061   4.877   4.572   7.466 -1.7689  1.7116  0.4084
  161SAPE  H13S18062   5.061   4.583   7.473 -0.6226 -1.2800  1.5558
  161SAPE  C21418063   4.962   4.770   7.441 -0.3136  0.0097  0.0061
  161SAPE  H14R18064   5.004   4.854   7.500  0.9562 -1.4431  1.2396
  161SAPE  C21518065   4.920   4.794   7.315 -0.1864  0.3825 -0.0666
  161SAPE  H15R18066   4.913   4.897   7.276  3.6097  0.4646 -0.6989
  161SAPE  C21618067   4.877   4.684   7.217 -0.5822 -0.2337  0.2319
  161SAPE  H16R18068   4.772   4.651   7.233 -0.1091 -1.4260  0.9396
  161SAPE  H16S18069   4.941   4.596   7.238  0.5159  1.0365  2.3482
  161SAPE  C21718070   4.878   4.734   7.073  0.1099  1.1517 -0.3647
  161SAPE  H17R18071   4.820   4.829   7.071 -1.6251  0.0968 -1.3820
  161SAPE  H17S18072   4.832   4.658   7.007 -0.2264  0.3716  0.7410
  161SAPE  C21818073   5.018   4.756   7.019 -0.5628 -0.4447  0.5430
  161SAPE  H18R18074   5.072   4.660   7.034  0.9391  0.4014  0.6372
  161SAPE  H18S18075   5.080   4.837   7.064  0.1852 -0.5621 -0.2407
  161SAPE  C21918076   5.023   4.798   6.870 -0.4307  0.2947  0.2218
  161SAPE  H19R18077   4.969   4.719   6.814  1.8070 -2.8219  2.2732
  161SAPE  H19S18078   5.131   4.783   6.847 -0.4510 -1.0590  0.9204
  161SAPE  C22018079   4.972   4.939   6.849 -0.5478  0.8686  0.7712
  161SAPE  H20R18080   4.957   4.952   6.740  0.7736  2.0162  0.7223
  161SAPE  H20S18081   5.039   5.019   6.887  1.4051  0.0197 -0.7979
  161SAPE  H20T18082   4.883   4.947   6.915  0.2663  0.6334  1.9071
  161SAPE   C3318083   5.166   4.143   7.352 -0.1363 -0.0673 -0.4864
  161SAPE   H3X18084   5.274   4.151   7.327 -0.4311  0.4489 -1.6479
  161SAPE   H3Y18085   5.132   4.046   7.311  0.1381  0.1525 -1.2515
  161SAPE   C3418086   5.135   4.134   7.509 -0.3693 -0.7610  0.0415
  161SAPE   H4X18087   5.043   4.074   7.523 -2.1014  1.3426 -1.8573
  161SAPE   H4Y18088   5.112   4.238   7.542 -0.1772 -0.7339  0.0929
  161SAPE   C3518089   5.246   4.058   7.587  0.1230 -0.4026 -0.5260
  161SAPE   H5X18090   5.342   4.098   7.549 -0.2190  1.4916  0.4934
  161SAPE   H5Y18091   5.254   3.949   7.567 -1.0378 -0.5075 -0.4632
  161SAPE   C3618092   5.229   4.092   7.743  0.3748  0.7991 -0.4829
  161SAPE   H6X18093   5.232   4.200   7.770 -1.1318  1.0496 -1.2393
  161SAPE   H6Y18094   5.319   4.039   7.781  0.2199  1.8127  1.3645
  161SAPE   C3718095   5.096   4.040   7.787 -0.3548 -0.7950 -0.5756
  161SAPE   H7X18096   5.088   3.934   7.755  4.0312 -2.4250  3.1460
  161SAPE   H7Y18097   5.009   4.096   7.747 -0.3815 -1.4510 -1.4416
  161SAPE   C3818098   5.084   4.022   7.945 -0.5851 -0.2395 -0.9700
  161SAPE   H8X18099   5.125   4.115   7.989 -1.9686 -0.9393  1.9076
  161SAPE   H8Y18100   5.138   3.933   7.984 -1.2563  0.0632  0.6945
  161SAPE   C3918101   4.941   4.006   7.979 -0.1156  0.0193 -0.8727
  161SAPE   H9X18102   4.900   3.922   7.920 -0.1393 -0.2337 -0.4967
  161SAPE   H9Y18103   4.876   4.087   7.940  1.9625  2.0311 -0.2714
  161SAPE  C31018104   4.924   3.978   8.129  0.4233  0.4969  0.2591
  161SAPE  H10X18105   4.990   4.049   8.182 -0.8356  2.7431 -1.1137
  161SAPE  H10Y18106   4.963   3.877   8.152  1.2747  0.7481 -0.0754
  161SAPE  C31118107   4.779   3.975   8.176 -0.7259 -0.1560 -0.6791
  161SAPE  H11X18108   4.724   3.889   8.134 -1.1722 -0.1258 -0.1611
  161SAPE  H11Y18109   4.738   4.073   8.144 -0.8971  0.5531  1.5808
  161SAPE  C31218110   4.765   3.974   8.334 -0.2013 -0.4791  1.1423
  161SAPE  H12X18111   4.812   4.067   8.374  0.1056  1.8339 -4.2410
  161SAPE  H12Y18112   4.824   3.885   8.367  0.8638 -1.1980 -2.4774
  161SAPE  C31318113   4.615   3.971   8.372  0.3243  0.3657 -0.7131
  161SAPE  H13X18114   4.567   3.884   8.323 -0.2930  0.8363 -0.9604
  161SAPE  H13Y18115   4.575   4.067   8.331  0.9581  1.3570  0.9652
  161SAPE  C31418116   4.593   3.960   8.526  0.4176 -0.4550  0.3952
  161SAPE  H14X18117   4.666   4.038   8.558 -0.8417  1.2104 -0.6626
  161SAPE  H14Y18118   4.623   3.857   8.555 -0.2011 -1.1977 -1.5255
  161SAPE  C31518119   4.454   4.002   8.581 -0.1889  0.7561 -0.8750
  161SAPE  H15X18120   4.384   3.922   8.548  0.8345 -1.6061  2.4066
  161SAPE  H15Y18121   4.414   4.101   8.547 -1.1707  0.5587 -0.3408
  161SAPE  C31618122   4.446   3.990   8.737  0.2672  0.0730 -0.0388
  161SAPE  H16X18123   4.537   4.044   8.772 -0.7295  1.5829  0.2879
  161SAPE  H16Y18124   4.469   3.888   8.773 -1.6633 -0.9379 -1.5838
  161SAPE  C31718125   4.324   4.049   8.808 -0.0587  0.1410 -0.3195
  161SAPE  H17X18126   4.309   4.159   8.802 -0.4551  0.1994  1.3514
  161SAPE  H17Y18127   4.344   4.025   8.915 -1.1543 -0.6392 -0.2839
  161SAPE  C31818128   4.190   3.989   8.768 -0.1050  0.3991  0.1650
  161SAPE  H18X18129   4.113   4.009   8.846 -1.1359  1.8516 -1.1752
  161SAPE  H18Y18130   4.202   3.879   8.771  1.2174  0.5672  1.6708
  161SAPE  H18Z18131   4.169   4.031   8.667 -0.3410 -0.1978 -0.0315
  162SAPE     N18132   4.253   0.040   5.738 -0.1167  0.1268  0.1795
  162SAPE   HN118133   4.190   0.032   5.655  0.4984  1.8919 -0.4804
  162SAPE   HN218134   4.238   0.138   5.770 -0.6082  0.3775 -0.8049
  162SAPE   HN318135   4.349   0.027   5.702 -0.1676 -1.5874  0.6328
  162SAPE   C1218136   4.224  -0.068   5.842  0.6369  0.2866 -0.2547
  162SAPE  H12A18137   4.243  -0.163   5.787 -1.7790  0.6734 -1.8425
  162SAPE  H12B18138   4.117  -0.058   5.872  0.1937 -1.2947 -1.2340
  162SAPE   C1118139   4.314  -0.047   5.964  0.0693 -0.0933 -0.1620
  162SAPE  H11A18140   4.423  -0.056   5.944 -0.0267 -2.6311  0.2223
  162SAPE  H11B18141   4.309  -0.132   6.036  1.1062  0.5142  0.6527
  162SAPE     P18142   4.187   0.111   6.130  0.2365  0.0065  0.3354
  162SAPE   O1318143   4.200   0.256   6.166 -0.2164  0.4268 -0.0150
  162SAPE   O1418144   4.061   0.064   6.083 -0.2842  0.1240 -0.0613
  162SAPE   O1218145   4.294   0.082   6.027 -0.5304 -0.8257 -0.1048
  162SAPE   O1118146   4.232   0.015   6.243  0.2412  0.0041 -0.5439
  162SAPE    C118147   4.329   0.033   6.344 -0.6506  0.1909  0.7653
  162SAPE    HA18148   4.346  -0.065   6.394  2.3174 -0.0116 -0.5312
  162SAPE    HB18149   4.428   0.056   6.298 -0.6570  0.4437  0.8793
  162SAPE    C218150   4.289   0.130   6.462  0.1082  0.0244  0.4103
  162SAPE    HS18151   4.245   0.226   6.427 -0.1032 -1.3267 -3.2207
  162SAPE   O2118152   4.398   0.144   6.552 -0.3742  0.3593 -1.1262
  162SAPE   C2118153   4.492   0.230   6.519 -0.0301 -0.1835  0.2844
  162SAPE   O2218154   4.512   0.267   6.405  0.1650 -0.5574  0.0082
  162SAPE   C2218155   4.561   0.271   6.659  0.2284  0.2928 -0.6209
  162SAPE   H2R18156   4.508   0.219   6.741 -0.3941  1.2270 -0.4304
  162SAPE   H2S18157   4.662   0.225   6.657  0.7082  1.3024  0.2132
  162SAPE    C318158   4.164   0.059   6.519 -1.1701  0.0886  0.0885
  162SAPE    HX18159   4.196  -0.029   6.579  0.2783  1.7028  1.7385
  162SAPE    HY18160   4.110   0.034   6.425 -0.2075 -0.2514 -0.3849
  162SAPE   O3118161   4.085   0.153   6.592 -0.3907 -0.3169  0.6548
  162SAPE   C3118162   4.081   0.123   6.721  0.4772  0.0301 -0.1729
  162SAPE   O3218163   4.158   0.047   6.780 -0.2591 -0.2551 -0.2534
  162SAPE   C3218164   3.967   0.192   6.797  0.2696  0.0884  1.3087
  162SAPE   H2X18165   3.883   0.161   6.730  2.8069  0.9675 -2.4577
  162SAPE   H2Y18166   3.989   0.301   6.793  1.4571 -0.2105 -1.2397
  162SAPE   C2318167   4.563   0.422   6.690 -0.0876  0.5023 -0.2916
  162SAPE   H3R18168   4.621   0.484   6.618 -0.4018 -0.2575 -1.2234
  162SAPE   H3S18169   4.604   0.435   6.792  0.2803  0.5945 -0.4474
  162SAPE   C2418170   4.426   0.494   6.698 -0.1791 -0.0129 -0.0618
  162SAPE   H4R18171   4.388   0.510   6.595  2.2829 -0.5857 -1.1126
  162SAPE   H4S18172   4.438   0.599   6.731 -0.6567 -0.0917  0.3611
  162SAPE   C2518173   4.313   0.433   6.782  0.1344 -0.7221 -0.0384
  162SAPE   H5R18174   4.237   0.377   6.726 -1.7619  0.6709  1.1007
  162SAPE   C2618175   4.305   0.437   6.915  0.1910 -0.5621 -0.2128
  162SAPE   H6R18176   4.221   0.379   6.957  0.8961 -0.5627  1.2174
  162SAPE   C2718177   4.397   0.507   7.015  0.6092  0.4552 -0.0117
  162SAPE   H7R18178   4.352   0.593   7.069  1.2243  0.1276  1.0300
  162SAPE   H7S18179   4.476   0.555   6.954  0.1669  1.2289  0.0059
  162SAPE   C2818180   4.443   0.390   7.099  0.6261  0.0614 -0.2016
  162SAPE   H8R18181   4.498   0.307   7.050 -0.0434  0.1949 -1.1861
  162SAPE   C2918182   4.435   0.386   7.231 -0.2595 -0.1709  0.2342
  162SAPE   H9R18183   4.470   0.296   7.284  2.9159  0.8213 -0.0672
  162SAPE  C21018184   4.387   0.501   7.322 -0.2290 -0.0991  0.2175
  162SAPE  H10R18185   4.297   0.470   7.379  0.4858 -2.5591  0.0695
  162SAPE  H10S18186   4.370   0.597   7.269  2.7910 -1.2849 -3.1106
  162SAPE  C21118187   4.499   0.530   7.424  0.9034 -0.1672 -0.3650
  162SAPE  H11R18188   4.583   0.589   7.385  0.4018  1.1355  0.4982
  162SAPE  C21218189   4.488   0.506   7.556 -0.3851 -0.7532  0.0151
  162SAPE  H12R18190   4.568   0.536   7.626 -0.2664 -0.2811 -0.3172
  162SAPE  C21318191   4.378   0.432   7.633  0.8026 -0.4599  0.7780
  162SAPE  H13R18192   4.281   0.413   7.582  0.3333  0.3697  1.3430
  162SAPE  H13S18193   4.347   0.507   7.708 -0.4351  2.0238 -2.0928
  162SAPE  C21418194   4.430   0.303   7.684  0.0606  0.3014 -0.2699
  162SAPE  H14R18195   4.430   0.215   7.617  0.4737 -0.0835  0.2347
  162SAPE  C21518196   4.473   0.290   7.810  0.0474 -0.1940  0.4901
  162SAPE  H15R18197   4.504   0.189   7.843  3.5570  1.1451  1.5474
  162SAPE  C21618198   4.485   0.395   7.917  0.1113  0.0629 -0.0329
  162SAPE  H16R18199   4.395   0.383   7.981 -0.8897  1.1199 -1.2261
  162SAPE  H16S18200   4.482   0.498   7.877  1.8765  0.5037  0.9100
  162SAPE  C21718201   4.619   0.385   7.988 -0.1583 -0.7221 -0.1797
  162SAPE  H17R18202   4.702   0.339   7.931  1.0861 -0.9792  1.7633
  162SAPE  H17S18203   4.611   0.310   8.070  0.1588  0.4691  0.9743
  162SAPE  C21818204   4.672   0.522   8.044 -0.6953 -0.9859  0.0511
  162SAPE  H18R18205   4.611   0.545   8.133 -0.8082  0.0735 -0.2933
  162SAPE  H18S18206   4.650   0.601   7.968  0.6745  0.1846  0.8366
  162SAPE  C21918207   4.821   0.524   8.081 -0.9537 -0.2842 -0.3219
  162SAPE  H19R18208   4.850   0.442   8.150 -1.5629  1.7257  2.3950
  162SAPE  H19S18209   4.840   0.620   8.135 -0.8838 -0.3988 -0.1441
  162SAPE  C22018210   4.915   0.519   7.949  0.1358  0.0929  0.5537
  162SAPE  H20R18211   4.895   0.428   7.890  0.2097 -0.3899  1.2629
  162SAPE  H20S18212   5.024   0.521   7.968  0.1212  1.3700  0.5932
  162SAPE  H20T18213   4.892   0.607   7.885 -0.9504 -0.9132 -0.4555
  162SAPE   C3318214   3.931   0.140   6.940 -0.1336 -0.1753  0.1227
  162SAPE   H3X18215   3.890   0.037   6.941 -1.0908  0.1860 -0.8502
  162SAPE   H3Y18216   3.848   0.211   6.964 -0.5897 -0.2528 -1.2191
  162SAPE   C3418217   4.044   0.159   7.047 -0.0107  0.4075  0.1102
  162SAPE   H4X18218   4.082   0.263   7.044 -1.4312  0.9118 -1.0432
  162SAPE   H4Y18219   4.128   0.090   7.024  0.4608  0.8531  0.4747
  162SAPE   C3518220   3.975   0.135   7.179 -0.1918 -0.6181 -0.5685
  162SAPE   H5X18221   3.961   0.025   7.186 -0.3416 -0.4620  2.4103
  162SAPE   H5Y18222   3.871   0.176   7.183  0.5237  1.0481  3.0325
  162SAPE   C3618223   4.058   0.196   7.290  0.2269  0.1177  0.1457
  162SAPE   H6X18224   4.059   0.307   7.300 -0.7082  0.2071 -0.7137
  162SAPE   H6Y18225   4.165   0.169   7.279 -0.1819 -0.3899 -3.3295
  162SAPE   C3718226   4.000   0.137   7.427 -0.4407 -0.1494 -0.1550
  162SAPE   H7X18227   4.017   0.027   7.432  0.9141  0.0482 -0.2027
  162SAPE   H7Y18228   3.891   0.157   7.422 -0.1349  2.6572  2.6967
  162SAPE   C3818229   4.055   0.200   7.551 -0.1592 -0.7439 -0.5427
  162SAPE   H8X18230   4.061   0.311   7.541  1.8732 -0.6603  1.4607
  162SAPE   H8Y18231   4.160   0.171   7.570 -0.3254 -1.5385 -0.8031
  162SAPE   C3918232   3.971   0.163   7.674  0.0430  0.1756  0.6364
  162SAPE   H9X18233   3.958   0.053   7.677 -0.2304  0.0847 -2.3980
  162SAPE   H9Y18234   3.871   0.209   7.668 -0.8342 -1.8164 -0.5375
  162SAPE  C31018235   4.034   0.211   7.807  0.1305  0.0685  0.6909
  162SAPE  H10X18236   4.049   0.320   7.789 -2.3912  0.0628 -1.7478
  162SAPE  H10Y18237   4.122   0.145   7.821  0.5955 -0.6106 -4.2617
  162SAPE  C31118238   3.935   0.188   7.920 -0.3441  0.0929 -0.1692
  162SAPE  H11X18239   3.930   0.082   7.953 -0.2962  0.4521  1.0114
  162SAPE  H11Y18240   3.832   0.215   7.889 -0.8928 -0.4496  1.1538
  162SAPE  C31218241   3.976   0.255   8.053  0.1254  0.0394 -0.0405
  162SAPE  H12X18242   3.888   0.256   8.121 -0.5299  3.9490 -0.8237
  162SAPE  H12Y18243   4.013   0.358   8.032 -0.9915  0.1308 -1.7099
  162SAPE  C31318244   4.082   0.176   8.142  0.4421 -0.0069  0.6906
  162SAPE  H13X18245   4.160   0.158   8.065  0.4477 -0.2151  0.7436
  162SAPE  H13Y18246   4.044   0.076   8.172 -0.8062 -0.2842 -1.6678
  162SAPE  C31418247   4.144   0.249   8.262 -0.1512  0.3810  0.1129
  162SAPE  H14X18248   4.072   0.269   8.344  0.6101 -1.0773  1.1758
  162SAPE  H14Y18249   4.181   0.350   8.235  0.4999  0.4724  1.2966
  162SAPE  C31518250   4.247   0.158   8.324 -0.3822 -0.6172 -0.0309
  162SAPE  H15X18251   4.243   0.058   8.275  0.2516  0.6076 -2.7062
  162SAPE  H15Y18252   4.233   0.129   8.430  2.6035  1.3077  0.9507
  162SAPE  C31618253   4.401   0.209   8.321 -0.1577 -0.2673 -0.3314
  162SAPE  H16X18254   4.434   0.222   8.216  1.5095  0.7484  0.2993
  162SAPE  H16Y18255   4.460   0.135   8.380  2.4260  2.0731  0.1141
  162SAPE  C31718256   4.417   0.340   8.397 -0.2681 -0.2765  0.0286
  162SAPE  H17X18257   4.369   0.331   8.497 -0.4326 -0.2955 -0.0519
  162SAPE  H17Y18258   4.366   0.421   8.342  2.4035  0.6188 -1.1935
  162SAPE  C31818259   4.555   0.380   8.417 -0.7420  0.2699 -0.3120
  162SAPE  H18X18260   4.559   0.474   8.476 -0.1074  0.1449 -0.1644
  162SAPE  H18Y18261   4.591   0.400   8.314  2.7513 -1.1464  0.5955
  162SAPE  H18Z18262   4.621   0.309   8.470 -1.3809  0.9533  1.4114
  163SAPE     N18263   3.053   4.543   6.797  0.0586  0.4392 -0.1555
  163SAPE   HN118264   3.041   4.502   6.892 -0.4876  0.0342 -0.3984
  163SAPE   HN218265   3.109   4.472   6.747 -0.0475 -0.1764  0.5988
  163SAPE   HN318266   3.107   4.632   6.803 -0.0097  0.5059 -0.5161
  163SAPE   C1218267   2.922   4.560   6.726 -0.2870  0.1818  0.7634
  163SAPE  H12A18268   2.875   4.460   6.735  1.2041 -0.5518  0.5067
  163SAPE  H12B18269   2.938   4.587   6.619  0.8978  1.1589  1.1694
  163SAPE   C1118270   2.816   4.652   6.794 -0.3262  0.2139  0.1973
  163SAPE  H11A18271   2.793   4.623   6.899 -2.1775 -0.7915 -0.4694
  163SAPE  H11B18272   2.718   4.640   6.743 -0.6124  0.2072  0.7472
  163SAPE     P18273   2.781   4.903   6.733  0.0388  0.3963 -0.1777
  163SAPE   O1318274   2.817   5.032   6.792 -0.2807  0.4403  0.3098
  163SAPE   O1418275   2.789   4.878   6.582 -0.4912 -0.3046 -0.5955
  163SAPE   O1218276   2.866   4.785   6.794  0.1732  0.1189 -0.3899
  163SAPE   O1118277   2.628   4.865   6.771 -0.1079 -0.3093  0.0187
  163SAPE    C118278   2.548   4.962   6.849 -0.2688 -0.4595  0.0667
  163SAPE    HA18279   2.580   5.068   6.840  1.2006 -0.7203  1.9005
  163SAPE    HB18280   2.441   4.964   6.817 -1.0137  2.1103  2.5336
  163SAPE    C218281   2.543   4.911   7.001  0.6540 -0.0412 -0.8628
  163SAPE    HS18282   2.457   4.963   7.048  2.2527  1.2171  0.6944
  163SAPE   O2118283   2.673   4.949   7.062 -0.3433 -0.1950  1.1720
  163SAPE   C2118284   2.688   5.084   7.072 -0.1322 -1.0299  0.0845
  163SAPE   O2218285   2.608   5.169   7.052  0.2253  0.3979 -0.1983
  163SAPE   C2218286   2.825   5.108   7.132 -0.2918  0.0526 -0.2626
  163SAPE   H2R18287   2.881   5.013   7.136 -0.5283 -0.0211  1.6129
  163SAPE   H2S18288   2.886   5.175   7.067  1.0365 -1.1723 -0.2895
  163SAPE    C318289   2.525   4.762   7.012 -0.5633  0.3734  0.2808
  163SAPE    HX18290   2.605   4.720   6.948 -0.6631 -1.1853  1.1460
  163SAPE    HY18291   2.425   4.742   6.969  0.4759 -1.6952 -1.2487
  163SAPE   O3118292   2.527   4.719   7.151  0.5937  0.2780  0.6815
  163SAPE   C3118293   2.428   4.754   7.229  0.2639  0.2245  0.0973
  163SAPE   O3218294   2.333   4.827   7.200 -0.2463  0.1231  0.6792
  163SAPE   C3218295   2.432   4.691   7.367  0.8069  0.2136  0.6482
  163SAPE   H2X18296   2.424   4.584   7.337  0.2548  0.3453  0.3284
  163SAPE   H2Y18297   2.345   4.738   7.416 -0.0082 -1.1109  0.4786
  163SAPE   C2318298   2.815   5.171   7.275 -0.4008 -0.8856  0.0440
  163SAPE   H3R18299   2.741   5.254   7.270  0.1148 -0.3752  0.7987
  163SAPE   H3S18300   2.910   5.223   7.302 -0.8038 -0.3180  0.3942
  163SAPE   C2418301   2.764   5.062   7.367  0.2926  0.5811  0.3544
  163SAPE   H4R18302   2.850   4.993   7.382 -0.7757 -0.4904  1.5951
  163SAPE   H4S18303   2.685   4.998   7.323  0.6797 -0.1273  0.6936
  163SAPE   C2518304   2.720   5.125   7.496 -0.7407 -0.1121  0.1899
  163SAPE   H5R18305   2.630   5.188   7.481 -1.6987 -1.5704 -0.3067
  163SAPE   C2618306   2.791   5.137   7.611 -0.0789 -0.3440 -0.0880
  163SAPE   H6R18307   2.743   5.193   7.693 -1.0353 -0.8747 -0.2867
  163SAPE   C2718308   2.930   5.076   7.645 -0.0645 -0.6827  0.1791
  163SAPE   H7R18309   3.004   5.112   7.571 -0.7465  1.3975  0.4768
  163SAPE   H7S18310   2.930   4.966   7.632 -1.6112 -0.7699  0.8549
  163SAPE   C2818311   2.992   5.122   7.772 -0.4376 -0.0420 -0.3979
  163SAPE   H8R18312   3.045   5.217   7.757  0.5855 -0.3468  1.1735
  163SAPE   C2918313   2.976   5.080   7.897  0.8507 -0.0700 -0.5385
  163SAPE   H9R18314   3.024   5.137   7.979  0.9292  0.5199 -0.9968
  163SAPE  C21018315   2.882   4.968   7.951  0.4722 -0.3864  0.4356
  163SAPE  H10R18316   2.937   4.893   8.012  0.5216  0.6063  1.6212
  163SAPE  H10S18317   2.841   4.905   7.868  1.8814 -0.7132 -0.0195
  163SAPE  C21118318   2.769   5.048   8.014 -0.5851 -0.4359 -0.1869
  163SAPE  H11R18319   2.697   5.102   7.951  0.1347 -0.9243 -1.4408
  163SAPE  C21218320   2.748   5.043   8.142 -0.1740  0.1277 -0.2193
  163SAPE  H12R18321   2.651   5.081   8.178  0.2179  0.2691  0.7127
  163SAPE  C21318322   2.830   4.972   8.241 -0.6652 -0.4373  0.1055
  163SAPE  H13R18323   2.937   4.998   8.222 -1.0810  1.2791 -0.0015
  163SAPE  H13S18324   2.815   4.865   8.216  1.6569 -0.6667 -0.4323
  163SAPE  C21418325   2.807   4.999   8.386 -0.1510 -0.6040 -0.2736
  163SAPE  H14R18326   2.877   5.073   8.428  0.1465  0.2832 -2.2706
  163SAPE  C21518327   2.706   4.945   8.461 -0.1644 -0.0423 -0.0279
  163SAPE  H15R18328   2.696   4.988   8.562  1.4879 -0.4453  0.3326
  163SAPE  C21618329   2.595   4.851   8.420  0.1988  0.1653  0.0792
  163SAPE  H16R18330   2.633   4.746   8.424 -2.5558 -0.8388  1.1536
  163SAPE  H16S18331   2.558   4.878   8.319 -1.3082 -1.7219  0.0928
  163SAPE  C21718332   2.475   4.855   8.509  0.2241 -0.2286  0.0963
  163SAPE  H17R18333   2.393   4.796   8.462 -0.0019  1.6658 -1.9401
  163SAPE  H17S18334   2.444   4.961   8.509  3.3134  0.7116  0.3224
  163SAPE  C21818335   2.506   4.827   8.655 -0.3056  0.1255  0.2964
  163SAPE  H18R18336   2.580   4.896   8.701  1.9285 -0.4867 -2.2440
  163SAPE  H18S18337   2.541   4.722   8.658 -2.2015 -0.5251  0.8519
  163SAPE  C21918338   2.371   4.823   8.727  0.1487  0.2376  0.0931
  163SAPE  H19R18339   2.294   4.756   8.682  1.8854 -2.5041  1.0837
  163SAPE  H19S18340   2.330   4.926   8.736 -1.9136 -0.4080 -1.4030
  163SAPE  C22018341   2.390   4.753   8.858  0.0935  0.3952  0.2537
  163SAPE  H20R18342   2.432   4.826   8.930  2.5665 -1.1989  0.4801
  163SAPE  H20S18343   2.459   4.668   8.837  0.3270  0.6105  0.1584
  163SAPE  H20T18344   2.290   4.709   8.883 -0.2598  0.3243 -1.2727
  163SAPE   C3318345   2.554   4.716   7.446 -0.1253  0.2893  0.4714
  163SAPE   H3X18346   2.579   4.824   7.440  1.5618 -0.0684  0.7388
  163SAPE   H3Y18347   2.635   4.661   7.393  0.1109  1.5372 -0.4848
  163SAPE   C3418348   2.539   4.670   7.595 -0.0331 -0.3542  0.3153
  163SAPE   H4X18349   2.533   4.559   7.601 -2.7041 -0.2511  0.1372
  163SAPE   H4Y18350   2.436   4.700   7.621  0.4497  0.5227  1.2343
  163SAPE   C3518351   2.645   4.723   7.690  0.0249 -0.2459  1.0167
  163SAPE   H5X18352   2.637   4.833   7.700 -0.4445 -0.4547  3.3001
  163SAPE   H5Y18353   2.746   4.707   7.647 -1.1600 -2.5173 -1.0354
  163SAPE   C3618354   2.630   4.667   7.831  0.8363  0.1881 -0.3116
  163SAPE   H6X18355   2.710   4.711   7.893  0.6581  0.0768 -0.0010
  163SAPE   H6Y18356   2.652   4.559   7.814  0.0358 -0.2911  1.5307
  163SAPE   C3718357   2.486   4.661   7.894  0.4052  0.0631 -0.2134
  163SAPE   H7X18358   2.402   4.635   7.827 -0.3394  1.4918  0.1623
  163SAPE   H7Y18359   2.457   4.763   7.928 -0.6558  0.3638 -1.9591
  163SAPE   C3818360   2.481   4.574   8.024  0.0536 -0.5399  0.0472
  163SAPE   H8X18361   2.572   4.601   8.082  0.9699 -2.1054 -0.5983
  163SAPE   H8Y18362   2.482   4.465   8.000 -0.2505 -0.9555  1.8477
  163SAPE   C3918363   2.360   4.602   8.115 -0.0454 -0.8366  0.0149
  163SAPE   H9X18364   2.273   4.614   8.047 -0.8193 -0.2203  1.0911
  163SAPE   H9Y18365   2.374   4.702   8.161  0.6966  0.8535 -3.7172
  163SAPE  C31018366   2.351   4.496   8.221 -1.2740  0.6418  0.0138
  163SAPE  H10X18367   2.319   4.401   8.173  1.3866 -0.6496  0.6956
  163SAPE  H10Y18368   2.263   4.514   8.286 -0.0336 -1.9184  2.4759
  163SAPE  C31118369   2.470   4.465   8.311 -0.9237 -0.0049  0.3796
  163SAPE  H11X18370   2.502   4.565   8.346 -0.7996  0.5292 -1.2240
  163SAPE  H11Y18371   2.552   4.408   8.263  0.0481  4.8605 -4.1284
  163SAPE  C31218372   2.440   4.376   8.431 -0.2077  0.1558  0.5334
  163SAPE  H12X18373   2.536   4.363   8.485 -0.1345  0.4472  0.4742
  163SAPE  H12Y18374   2.400   4.275   8.408  1.9000 -0.7465  0.6920
  163SAPE  C31318375   2.340   4.447   8.531 -0.3228  0.0211 -0.4676
  163SAPE  H13X18376   2.239   4.472   8.491 -2.0348 -2.4520  2.1256
  163SAPE  H13Y18377   2.392   4.537   8.569 -1.4573 -0.1550  1.5534
  163SAPE  C31418378   2.313   4.359   8.659 -0.0693 -0.2690  1.3185
  163SAPE  H14X18379   2.409   4.335   8.709  1.7356 -0.0720 -1.8765
  163SAPE  H14Y18380   2.266   4.266   8.622 -2.8294  1.8063 -0.5508
  163SAPE  C31518381   2.225   4.424   8.759 -0.0335 -0.0091  0.2306
  163SAPE  H15X18382   2.262   4.521   8.798 -0.1605  0.4160 -0.7085
  163SAPE  H15Y18383   2.229   4.360   8.851 -1.2490  0.6970  0.7858
  163SAPE  C31618384   2.088   4.447   8.703  0.3497 -0.2547  0.0799
  163SAPE  H16X18385   2.041   4.363   8.648 -0.7560 -0.8482  1.8918
  163SAPE  H16Y18386   2.098   4.534   8.634  1.0372  0.8086  1.4880
  163SAPE  C31718387   1.981   4.489   8.803  0.3554  0.7219 -0.1896
  163SAPE  H17X18388   2.041   4.557   8.867  0.7438  2.1470 -2.0152
  163SAPE  H17Y18389   1.954   4.405   8.869 -0.5842  0.5853 -0.7379
  163SAPE  C31818390   1.861   4.567   8.757 -0.6426  0.4398 -0.6779
  163SAPE  H18X18391   1.822   4.634   8.837  0.2606 -0.0641  0.1987
  163SAPE  H18Y18392   1.780   4.496   8.728 -0.2115 -1.0284  1.6043
  163SAPE  H18Z18393   1.883   4.625   8.665 -0.3656  0.9636 -0.2851
  164SAPE     N18394   5.978   2.293   5.684 -0.7210  0.1537 -0.3695
  164SAPE   HN118395   5.918   2.376   5.666  0.6486  1.6341  1.6148
  164SAPE   HN218396   6.064   2.307   5.626 -0.7519 -1.2721 -0.7621
  164SAPE   HN318397   5.938   2.201   5.656  4.5785 -2.1293 -1.0927
  164SAPE   C1218398   6.023   2.310   5.828  0.1308  0.1563  0.7780
  164SAPE  H12A18399   6.079   2.405   5.842 -0.5887  0.8741 -1.1381
  164SAPE  H12B18400   6.101   2.231   5.834  2.0845  1.9714 -0.0907
  164SAPE   C1118401   5.908   2.289   5.930  0.7502 -0.4862  0.1679
  164SAPE  H11A18402   5.958   2.277   6.029 -1.9226 -0.3349  1.5945
  164SAPE  H11B18403   5.858   2.193   5.904  2.6943 -1.6767  0.7208
  164SAPE     P18404   5.683   2.390   5.998 -0.1282  0.1827 -0.2633
  164SAPE   O1318405   5.593   2.504   5.963  0.1046  0.5381 -0.5899
  164SAPE   O1418406   5.627   2.252   5.995 -0.7782 -0.1370 -0.4905
  164SAPE   O1218407   5.816   2.392   5.920  0.5530 -0.2294 -0.3458
  164SAPE   O1118408   5.739   2.413   6.145  0.1477  0.5090 -0.5822
  164SAPE    C118409   5.810   2.535   6.171 -0.7343 -0.4494 -0.6091
  164SAPE    HA18410   5.890   2.561   6.099  1.6026 -0.9508  1.7483
  164SAPE    HB18411   5.733   2.615   6.171  0.5084  0.7527  0.0608
  164SAPE    C218412   5.866   2.535   6.316 -0.3838  0.1597 -0.0449
  164SAPE    HS18413   5.929   2.625   6.330 -0.5508  0.1596  0.7641
  164SAPE   O2118414   5.932   2.408   6.337 -0.2848  0.1125  0.2677
  164SAPE   C2118415   6.062   2.393   6.290  0.0549 -0.2794 -0.1248
  164SAPE   O2218416   6.132   2.483   6.247 -1.1678 -0.1797 -0.0474
  164SAPE   C2218417   6.098   2.250   6.293  0.3056 -0.0883  0.4613
  164SAPE   H2R18418   6.020   2.200   6.231 -1.1347  0.2804  1.9235
  164SAPE   H2S18419   6.197   2.226   6.250  2.4069  1.5662  4.1840
  164SAPE    C318420   5.754   2.538   6.423 -0.4371  0.4483  0.0300
  164SAPE    HX18421   5.677   2.464   6.392  1.9974 -1.8174 -0.7920
  164SAPE    HY18422   5.706   2.637   6.410  2.1021  1.5062 -1.5764
  164SAPE   O3118423   5.801   2.522   6.558 -0.3883 -0.1752 -0.1258
  164SAPE   C3118424   5.803   2.403   6.614 -0.3979 -0.3711 -0.1071
  164SAPE   O3218425   5.766   2.298   6.560  0.1547  0.0268  0.1558
  164SAPE   C3218426   5.839   2.424   6.760 -0.5132  0.0777 -0.4495
  164SAPE   H2X18427   5.913   2.505   6.775 -1.9629  1.1616  1.0641
  164SAPE   H2Y18428   5.882   2.332   6.803 -0.3580  1.2940  2.0841
  164SAPE   C2318429   6.086   2.188   6.434  0.4625 -0.0778 -0.2725
  164SAPE   H3R18430   5.984   2.197   6.477  1.0269  1.8455  0.7192
  164SAPE   H3S18431   6.157   2.246   6.498 -0.6261 -0.2058  1.0810
  164SAPE   C2418432   6.122   2.042   6.439  0.6268 -0.5220 -0.1842
  164SAPE   H4R18433   6.227   2.049   6.406  1.5971  1.0997  3.0500
  164SAPE   H4S18434   6.060   1.976   6.375 -1.3399 -1.0393  2.1652
  164SAPE   C2518435   6.118   1.985   6.574  0.2934 -0.1924  0.1099
  164SAPE   H5R18436   6.019   1.945   6.602  2.0977 -1.4570  5.3460
  164SAPE   C2618437   6.210   1.976   6.671  0.4016  0.4603 -0.6300
  164SAPE   H6R18438   6.173   1.925   6.762 -0.2305 -1.2973 -1.8531
  164SAPE   C2718439   6.355   2.024   6.678  0.4047  0.4373  0.1045
  164SAPE   H7R18440   6.374   2.096   6.761  0.7866  0.5632 -0.0922
  164SAPE   H7S18441   6.371   2.074   6.580 -0.9817 -0.3910 -0.5665
  164SAPE   C2818442   6.445   1.896   6.681 -0.3550  0.1533 -0.3459
  164SAPE   H8R18443   6.450   1.845   6.583  0.7478 -2.3386  0.9804
  164SAPE   C2918444   6.533   1.879   6.787  0.0849  0.1959  0.5959
  164SAPE   H9R18445   6.593   1.787   6.788  1.6334  1.0964 -2.5114
  164SAPE  C21018446   6.559   1.967   6.910  0.2256 -0.7910 -0.1564
  164SAPE  H10R18447   6.558   1.894   6.994  0.0165 -0.8172 -0.1815
  164SAPE  H10S18448   6.469   2.030   6.929  1.0853  0.4420 -0.1235
  164SAPE  C21118449   6.677   2.055   6.886 -1.3860  0.1448  0.6993
  164SAPE  H11R18450   6.738   2.023   6.801 -2.0438 -2.2134  1.0748
  164SAPE  C21218451   6.713   2.163   6.960  0.8592  0.3203 -0.1095
  164SAPE  H12R18452   6.812   2.206   6.941  1.1535  0.2975  1.3269
  164SAPE  C21318453   6.633   2.217   7.081 -0.1876 -0.0391  0.0291
  164SAPE  H13R18454   6.692   2.206   7.175 -1.3911 -0.4209  0.7464
  164SAPE  H13S18455   6.544   2.151   7.092  0.2382 -0.5292  0.6021
  164SAPE  C21418456   6.573   2.356   7.080  0.6042 -0.2962 -0.0254
  164SAPE  H14R18457   6.565   2.399   6.979  3.1759 -1.8459 -0.9406
  164SAPE  C21518458   6.537   2.425   7.185  0.7283 -0.5703  0.9436
  164SAPE  H15R18459   6.477   2.516   7.173  2.0982 -0.1679 -3.8732
  164SAPE  C21618460   6.562   2.381   7.327  0.6343 -0.3592 -0.3546
  164SAPE  H16R18461   6.657   2.324   7.332  1.9134  1.9574  3.1948
  164SAPE  H16S18462   6.479   2.311   7.352  0.0459  0.0407 -1.1691
  164SAPE  C21718463   6.563   2.499   7.420 -0.6566  0.1626 -0.3036
  164SAPE  H17R18464   6.463   2.548   7.423  0.5777  2.9210 -1.8885
  164SAPE  H17S18465   6.633   2.581   7.389 -0.9358  1.0119  1.2280
  164SAPE  C21818466   6.606   2.452   7.560 -0.1783  0.5864  0.0200
  164SAPE  H18R18467   6.697   2.389   7.561 -0.0101  0.8174 -1.0293
  164SAPE  H18S18468   6.536   2.371   7.592  0.2625 -0.6683 -2.0798
  164SAPE  C21918469   6.614   2.565   7.659 -0.6332  0.5393 -0.1698
  164SAPE  H19R18470   6.507   2.593   7.672 -0.5090 -0.3962  3.0450
  164SAPE  H19S18471   6.670   2.659   7.634  0.4451  0.1741  0.8504
  164SAPE  C22018472   6.662   2.502   7.790 -0.5542  0.5781 -0.0453
  164SAPE  H20R18473   6.643   2.575   7.872  1.6315 -0.1408  1.1521
  164SAPE  H20S18474   6.772   2.493   7.776 -0.9071 -0.4434 -2.1724
  164SAPE  H20T18475   6.621   2.401   7.811  0.8945 -0.1329 -0.6001
  164SAPE   C3318476   5.720   2.465   6.853 -0.8860 -0.6012  0.8145
  164SAPE   H3X18477   5.639   2.388   6.848 -1.1584 -0.1767 -2.0233
  164SAPE   H3Y18478   5.669   2.555   6.812  0.6361  0.7651  1.8833
  164SAPE   C3418479   5.769   2.481   6.994  0.1220 -0.2984  0.2763
  164SAPE   H4X18480   5.847   2.560   7.003  0.6765 -0.7445 -0.5926
  164SAPE   H4Y18481   5.815   2.389   7.034  0.4930  0.3459  1.3656
  164SAPE   C3518482   5.655   2.513   7.088  0.1568 -0.0978 -0.4324
  164SAPE   H5X18483   5.580   2.431   7.078 -0.7141  0.5477  0.6362
  164SAPE   H5Y18484   5.600   2.601   7.048 -0.9783 -0.1350  0.9823
  164SAPE   C3618485   5.697   2.533   7.236  0.1842 -0.1975 -1.0087
  164SAPE   H6X18486   5.780   2.606   7.225 -0.3472  0.9627  2.0842
  164SAPE   H6Y18487   5.741   2.442   7.282  3.6953  2.0590  0.2619
  164SAPE   C3718488   5.598   2.591   7.341 -0.7949  0.0025 -0.2851
  164SAPE   H7X18489   5.545   2.502   7.381 -0.4296 -0.7406 -1.4256
  164SAPE   H7Y18490   5.540   2.675   7.297 -0.0777  0.9460  0.5487
  164SAPE   C3818491   5.672   2.650   7.463  0.2658  0.4003  0.5482
  164SAPE   H8X18492   5.700   2.755   7.442  1.8090 -0.2797 -0.9135
  164SAPE   H8Y18493   5.763   2.588   7.480  0.6979  1.5219  2.3841
  164SAPE   C3918494   5.583   2.649   7.586  0.1717 -0.4797 -0.4650
  164SAPE   H9X18495   5.523   2.556   7.588 -0.4914 -0.0545 -0.3838
  164SAPE   H9Y18496   5.513   2.735   7.583 -0.4047 -0.9952 -1.9056
  164SAPE  C31018497   5.671   2.641   7.719  1.5279 -0.2349  0.6989
  164SAPE  H10X18498   5.729   2.733   7.742  1.1788 -0.8057  3.9722
  164SAPE  H10Y18499   5.750   2.564   7.703  0.3673 -1.1527 -0.7592
  164SAPE  C31118500   5.602   2.601   7.850  0.1148  0.3290 -0.6369
  164SAPE  H11X18501   5.560   2.500   7.834 -0.4030  0.7506 -2.0408
  164SAPE  H11Y18502   5.518   2.665   7.883 -0.2815 -1.0969  1.1755
  164SAPE  C31218503   5.705   2.589   7.967 -0.3528 -0.2444  0.1069
  164SAPE  H12X18504   5.748   2.691   7.983  0.5970 -0.9349  2.0483
  164SAPE  H12Y18505   5.792   2.526   7.941 -1.8226 -1.9937 -0.7162
  164SAPE  C31318506   5.644   2.531   8.098  0.8252  0.1388 -0.4066
  164SAPE  H13X18507   5.635   2.421   8.083  0.5255  0.1614 -0.3924
  164SAPE  H13Y18508   5.541   2.570   8.112  1.3341  0.8267  1.6793
  164SAPE  C31418509   5.731   2.569   8.223 -0.3208 -0.3072 -0.1889
  164SAPE  H14X18510   5.775   2.670   8.216  0.6735 -0.6234  1.3665
  164SAPE  H14Y18511   5.825   2.511   8.222  0.9547  1.7246 -0.0286
  164SAPE  C31518512   5.654   2.549   8.347  0.0554  0.7298 -0.4120
  164SAPE  H15X18513   5.568   2.619   8.340 -0.3836  0.2343 -0.0130
  164SAPE  H15Y18514   5.720   2.566   8.434  0.9607  0.2938 -1.0054
  164SAPE  C31618515   5.586   2.410   8.356  0.8525  0.0808 -0.5481
  164SAPE  H16X18516   5.661   2.336   8.323  1.2882  0.7485 -1.0685
  164SAPE  H16Y18517   5.499   2.409   8.285  1.0195  4.4218 -0.9368
  164SAPE  C31718518   5.539   2.363   8.501  0.0591  0.0263 -0.1908
  164SAPE  H17X18519   5.467   2.440   8.538  0.4408 -0.5288  1.7427
  164SAPE  H17Y18520   5.628   2.372   8.567 -1.8557  2.1515  2.2337
  164SAPE  C31818521   5.470   2.231   8.489  0.3372  0.4380  0.3727
  164SAPE  H18X18522   5.530   2.160   8.427 -0.2565  0.8238 -0.6532
  164SAPE  H18Y18523   5.377   2.243   8.429 -1.4039  0.6603  3.0319
  164SAPE  H18Z18524   5.456   2.184   8.589 -0.3339 -3.3413 -1.4043
  165SAPE     N18525   5.797   4.828   6.330  0.0104 -0.0572  0.3875
  165SAPE   HN118526   5.827   4.813   6.232 -1.0913  0.5814 -0.0567
  165SAPE   HN218527   5.770   4.926   6.352  0.9579  0.3997 -0.4591
  165SAPE   HN318528   5.882   4.811   6.388 -0.1935 -0.9249  0.4377
  165SAPE   C1218529   5.691   4.726   6.362 -0.2467  0.0721 -0.5367
  165SAPE  H12A18530   5.743   4.636   6.400 -1.2261 -1.5326 -2.9056
  165SAPE  H12B18531   5.644   4.697   6.266 -0.5750  0.0625 -0.3726
  165SAPE   C1118532   5.605   4.757   6.480 -0.4561 -0.3618 -0.4046
  165SAPE  H11A18533   5.661   4.794   6.569 -0.9509 -1.0672  0.2093
  165SAPE  H11B18534   5.551   4.667   6.516 -2.8561  0.9019 -0.7389
  165SAPE     P18535   5.366   4.860   6.485 -0.4012  0.0295 -0.1884
  165SAPE   O1318536   5.300   4.988   6.475  0.6121  0.8035  0.0344
  165SAPE   O1418537   5.312   4.746   6.412 -0.3318  0.1122  0.0822
  165SAPE   O1218538   5.519   4.867   6.455  0.4278  0.1679  0.0304
  165SAPE   O1118539   5.372   4.820   6.634 -0.3224  0.1485 -0.0762
  165SAPE    C118540   5.376   4.926   6.739  0.2437  0.6326 -0.4346
  165SAPE    HA18541   5.296   5.004   6.730  0.3740  1.0234  1.5585
  165SAPE    HB18542   5.354   4.877   6.836  1.6377 -2.1116 -1.4533
  165SAPE    C218543   5.510   4.999   6.755 -0.7751  0.0102 -0.5287
  165SAPE    HS18544   5.547   5.041   6.659  2.1405  0.7416  0.8588
  165SAPE   O2118545   5.611   4.912   6.802 -0.5813 -0.7102 -0.6883
  165SAPE   C2118546   5.738   4.949   6.781 -0.0469  0.1117  0.9039
  165SAPE   O2218547   5.777   5.024   6.691 -0.6117  0.2800 -0.1150
  165SAPE   C2218548   5.835   4.878   6.882  0.4380  0.2910  0.1685
  165SAPE   H2R18549   5.913   4.838   6.813  0.1118  2.4660 -1.5254
  165SAPE   H2S18550   5.888   4.955   6.943 -0.2903  0.7837  0.1764
  165SAPE    C318551   5.502   5.121   6.847  0.0795  0.4962  0.5833
  165SAPE    HX18552   5.423   5.185   6.800 -1.5594 -2.1824 -0.3997
  165SAPE    HY18553   5.595   5.181   6.841 -0.4352  1.1870 -0.8355
  165SAPE   O3118554   5.456   5.088   6.985  0.4487  0.1208  0.5353
  165SAPE   C3118555   5.567   5.082   7.062 -0.0431  0.6034 -0.4783
  165SAPE   O3218556   5.680   5.112   7.035  0.3433  0.5027 -0.1873
  165SAPE   C3218557   5.520   5.028   7.203  0.3245 -0.1850  0.6110
  165SAPE   H2X18558   5.520   4.920   7.177  1.5394  0.2203 -1.1538
  165SAPE   H2Y18559   5.419   5.068   7.226  0.6441  2.0555 -1.7041
  165SAPE   C2318560   5.772   4.766   6.969  0.0663 -0.0691  0.7120
  165SAPE   H3R18561   5.715   4.686   6.917  1.7081  0.5553 -2.1044
  165SAPE   H3S18562   5.705   4.811   7.046  0.1535  1.4500 -0.0895
  165SAPE   C2418563   5.884   4.688   7.049 -0.2730  0.0456  0.1446
  165SAPE   H4R18564   5.945   4.755   7.114 -1.5811  2.3217 -0.9284
  165SAPE   H4S18565   5.951   4.646   6.971 -0.5277  1.1786 -0.6830
  165SAPE   C2518566   5.817   4.588   7.140  0.2459  0.2662  0.4323
  165SAPE   H5R18567   5.745   4.522   7.090 -2.0209  2.3833  0.8131
  165SAPE   C2618568   5.833   4.565   7.273 -0.2077  0.1209  0.2745
  165SAPE   H6R18569   5.763   4.495   7.321 -1.3534  0.2753 -1.1432
  165SAPE   C2718570   5.934   4.630   7.365  0.3109  0.0903  0.0634
  165SAPE   H7R18571   5.897   4.720   7.418 -0.5154 -0.6653  0.8058
  165SAPE   H7S18572   6.028   4.652   7.310  0.6594 -0.3236  0.4876
  165SAPE   C2818573   5.981   4.527   7.464 -0.1141 -0.0658  0.2953
  165SAPE   H8R18574   6.024   4.439   7.413 -3.2169 -1.9714  0.8402
  165SAPE   C2918575   5.960   4.535   7.596  0.0421  0.3718 -0.7255
  165SAPE   H9R18576   6.010   4.458   7.656 -0.4613  0.2739 -0.4285
  165SAPE  C21018577   5.898   4.651   7.669  0.4457 -0.6861 -0.2956
  165SAPE  H10R18578   5.903   4.748   7.616  0.4205 -1.0369 -0.9408
  165SAPE  H10S18579   5.962   4.680   7.755 -0.5435 -2.0266  0.9277
  165SAPE  C21118580   5.755   4.618   7.723 -0.1242  0.9350  0.1357
  165SAPE  H11R18581   5.670   4.620   7.653  0.6425  0.6072 -0.8188
  165SAPE  C21218582   5.714   4.585   7.847 -0.4479 -0.5511 -0.0243
  165SAPE  H12R18583   5.607   4.579   7.869 -0.5289 -2.8335 -0.8950
  165SAPE  C21318584   5.799   4.566   7.974  0.1005 -0.4800 -0.5950
  165SAPE  H13R18585   5.906   4.547   7.951 -0.0237 -1.1192 -0.6487
  165SAPE  H13S18586   5.760   4.481   8.034  1.6732 -1.0659 -0.4005
  165SAPE  C21418587   5.789   4.697   8.045 -0.3123 -0.6071 -0.7968
  165SAPE  H14R18588   5.763   4.787   7.987 -2.0797  0.2438  1.2431
  165SAPE  C21518589   5.801   4.715   8.176  0.6210  0.4025  0.3344
  165SAPE  H15R18590   5.791   4.819   8.212  0.1387  0.5755 -0.2741
  165SAPE  C21618591   5.836   4.614   8.274  0.1518  0.1692 -0.8505
  165SAPE  H16R18592   5.838   4.513   8.228  0.5005 -0.5896  0.8381
  165SAPE  H16S18593   5.767   4.611   8.361  1.3621  0.6768  0.1466
  165SAPE  C21718594   5.971   4.659   8.333  1.0500 -0.0285  0.3843
  165SAPE  H17R18595   5.960   4.754   8.390  1.3341  0.3438 -0.1813
  165SAPE  H17S18596   6.054   4.689   8.266  0.6616  0.4878  0.1391
  165SAPE  C21818597   6.035   4.567   8.434 -0.3151 -0.2812  1.2134
  165SAPE  H18R18598   5.971   4.523   8.513  3.6044  0.6291  5.0973
  165SAPE  H18S18599   6.118   4.617   8.488 -0.9035 -0.0681  1.9420
  165SAPE  C21918600   6.095   4.436   8.373 -0.2513 -0.1110 -0.9437
  165SAPE  H19R18601   6.177   4.468   8.305  0.0927 -1.3857 -1.1425
  165SAPE  H19S18602   6.024   4.376   8.313  0.5053 -1.0030 -0.9643
  165SAPE  C22018603   6.164   4.346   8.479  0.2189 -0.0971 -0.2655
  165SAPE  H20R18604   6.202   4.255   8.428  0.3437 -0.6401  0.7760
  165SAPE  H20S18605   6.088   4.307   8.550  0.6800  1.0267  0.8828
  165SAPE  H20T18606   6.245   4.399   8.534  1.0787 -0.8292 -0.8171
  165SAPE   C3318607   5.628   5.054   7.309  0.1767 -0.2632 -0.6062
  165SAPE   H3X18608   5.664   5.159   7.298 -0.2364 -0.3909 -3.5927
  165SAPE   H3Y18609   5.711   4.983   7.290  1.8351  1.0221  1.5276
  165SAPE   C3418610   5.577   5.041   7.448  0.6792  0.2107  0.1689
  165SAPE   H4X18611   5.486   4.980   7.465  0.2540  0.5161 -1.0106
  165SAPE   H4Y18612   5.560   5.140   7.496  2.3189 -0.4505  2.2332
  165SAPE   C3518613   5.679   4.961   7.537  0.2682  0.4842 -0.3682
  165SAPE   H5X18614   5.774   5.016   7.516  0.0059  0.8167 -0.6850
  165SAPE   H5Y18615   5.696   4.855   7.507 -0.1440  0.2882  0.1018
  165SAPE   C3618616   5.635   4.957   7.692 -0.1621 -0.0375  0.2452
  165SAPE   H6X18617   5.707   4.892   7.746 -1.6251 -1.8281  0.0434
  165SAPE   H6Y18618   5.530   4.922   7.696 -0.6210  1.2077 -0.4715
  165SAPE   C3718619   5.650   5.089   7.759 -0.4738 -0.1901  0.5734
  165SAPE   H7X18620   5.574   5.165   7.729  0.5972  0.5896 -0.2198
  165SAPE   H7Y18621   5.740   5.138   7.716 -1.7832  2.0332  0.2732
  165SAPE   C3818622   5.642   5.085   7.906 -0.0015 -0.7983 -0.3112
  165SAPE   H8X18623   5.659   5.187   7.947 -0.4306 -1.3839  1.3787
  165SAPE   H8Y18624   5.723   5.028   7.956 -1.7386 -2.9551  0.1242
  165SAPE   C3918625   5.511   5.028   7.960  0.1987  0.0360  0.0670
  165SAPE   H9X18626   5.511   4.925   7.918 -0.4204 -0.9301  2.4009
  165SAPE   H9Y18627   5.429   5.084   7.911  1.0780  1.4512  0.1906
  165SAPE  C31018628   5.499   5.024   8.116  0.9142 -0.2125 -0.0246
  165SAPE  H10X18629   5.538   5.114   8.168 -2.3430  0.9705  0.4664
  165SAPE  H10Y18630   5.557   4.934   8.146 -2.3235 -2.0100  1.1669
  165SAPE  C31118631   5.354   4.984   8.160  0.6509 -0.0813 -0.2276
  165SAPE  H11X18632   5.328   4.890   8.107  2.1548 -0.6838  0.0724
  165SAPE  H11Y18633   5.277   5.057   8.127  0.3640 -0.1452  0.2912
  165SAPE  C31218634   5.336   4.971   8.314 -0.2537  0.5912 -0.0036
  165SAPE  H12X18635   5.424   4.918   8.356 -1.3097 -0.7363  0.5626
  165SAPE  H12Y18636   5.252   4.901   8.332 -0.5379  0.7453 -0.7425
  165SAPE  C31318637   5.304   5.097   8.389 -0.0515  0.3129 -0.0656
  165SAPE  H13X18638   5.199   5.134   8.378 -0.8479 -1.6601  0.6488
  165SAPE  H13Y18639   5.386   5.166   8.360  0.8536  0.0093  1.7312
  165SAPE  C31418640   5.324   5.084   8.536 -0.1639 -0.1904 -0.3487
  165SAPE  H14X18641   5.344   5.181   8.584  2.2286 -1.0934  0.5545
  165SAPE  H14Y18642   5.411   5.018   8.557  1.3806  2.3802  1.5096
  165SAPE  C31518643   5.201   5.019   8.597  0.0646 -0.0368  0.0749
  165SAPE  H15X18644   5.176   4.923   8.546  0.6549 -0.9942  1.5636
  165SAPE  H15Y18645   5.112   5.086   8.591 -0.3255 -0.6236 -0.8853
  165SAPE  C31618646   5.235   5.009   8.744 -0.3853  0.9991  0.3535
  165SAPE  H16X18647   5.287   5.100   8.781 -0.5473  2.1323 -2.1150
  165SAPE  H16Y18648   5.293   4.914   8.745  1.0992  1.8360 -2.1158
  165SAPE  C31718649   5.115   4.995   8.850 -0.2670  0.2608  0.5497
  165SAPE  H17X18650   5.039   5.072   8.826  0.0312  0.2284 -0.5226
  165SAPE  H17Y18651   5.157   5.006   8.953 -2.5945  0.9087  1.4644
  165SAPE  C31818652   5.055   4.851   8.836  0.0514  0.0254  0.5655
  165SAPE  H18X18653   5.036   4.828   8.729  1.5009 -3.2674  0.9288
  165SAPE  H18Y18654   4.958   4.844   8.888 -1.1509  1.0058 -1.4666
  165SAPE  H18Z18655   5.120   4.766   8.868 -0.3890 -0.2466  0.7280
  166SAPE     N18656   5.205   2.073   5.749 -0.3298 -0.1232 -0.7582
  166SAPE   HN118657   5.156   2.098   5.661 -2.6762  0.8108  0.7681
  166SAPE   HN218658   5.139   2.097   5.826 -0.5143  0.9864 -1.2556
  166SAPE   HN318659   5.287   2.136   5.755  0.6066 -1.5039  1.7099
  166SAPE   C1218660   5.242   1.929   5.744 -0.3512 -0.0119 -0.3038
  166SAPE  H12A18661   5.313   1.914   5.661  0.0232 -3.3697  0.5451
  166SAPE  H12B18662   5.150   1.871   5.722 -0.4442  0.5227 -1.3294
  166SAPE   C1118663   5.295   1.895   5.883  0.1227  0.2340  0.5941
  166SAPE  H11A18664   5.256   1.948   5.972 -1.2470 -0.0669  0.1844
  166SAPE  H11B18665   5.401   1.929   5.873  0.4079 -0.7415  0.3233
  166SAPE     P18666   5.397   1.661   5.935 -0.0458 -0.3603  0.2684
  166SAPE   O1318667   5.345   1.522   5.945  0.4970 -0.5344 -0.0167
  166SAPE   O1418668   5.495   1.677   5.826  0.0464  0.4564  0.1350
  166SAPE   O1218669   5.269   1.755   5.902 -0.6533 -0.0433 -0.6900
  166SAPE   O1118670   5.453   1.719   6.065 -0.6886  0.3320  0.0102
  166SAPE    C118671   5.361   1.751   6.172  0.3641 -1.1774 -0.1651
  166SAPE    HA18672   5.340   1.860   6.173  0.1733 -1.2248  1.2136
  166SAPE    HB18673   5.263   1.705   6.150 -0.6775  0.5339  0.8273
  166SAPE    C218674   5.412   1.712   6.305 -0.5842 -0.0219 -0.7739
  166SAPE    HS18675   5.331   1.707   6.382  1.1462  0.0993  1.0998
  166SAPE   O2118676   5.515   1.801   6.347  0.3025 -0.4795  0.6044
  166SAPE   C2118677   5.482   1.881   6.456  0.0395  0.5334  0.3013
  166SAPE   O2218678   5.369   1.882   6.501  0.6021  0.6059 -0.6936
  166SAPE   C2218679   5.593   1.975   6.490  0.0198 -0.0944 -0.7450
  166SAPE   H2R18680   5.686   1.958   6.433  2.1961  0.2822  2.5510
  166SAPE   H2S18681   5.571   2.079   6.459 -1.3903 -1.1771 -3.6226
  166SAPE    C318682   5.468   1.565   6.310  0.1584 -0.5505  0.3795
  166SAPE    HX18683   5.550   1.563   6.235 -1.2859  1.1477 -1.3029
  166SAPE    HY18684   5.398   1.487   6.273 -1.5567  0.8940  0.5007
  166SAPE   O3118685   5.518   1.526   6.443  0.0412 -0.1208  0.3447
  166SAPE   C3118686   5.439   1.468   6.529  0.1056  0.7965  0.5050
  166SAPE   O3218687   5.323   1.441   6.505 -0.5427  0.5669 -0.3419
  166SAPE   C3218688   5.522   1.387   6.632  0.1669  0.0899  0.6675
  166SAPE   H2X18689   5.619   1.432   6.658  0.7231 -1.3020  1.0563
  166SAPE   H2Y18690   5.538   1.284   6.594 -0.1944  1.0064 -2.1042
  166SAPE   C2318691   5.624   1.958   6.640 -0.3835  0.8241  0.4460
  166SAPE   H3R18692   5.534   1.987   6.697 -0.8033  2.8678 -1.2040
  166SAPE   H3S18693   5.700   2.032   6.672  0.4812  0.2133 -0.1624
  166SAPE   C2418694   5.669   1.814   6.689 -0.3894 -0.0453  0.6320
  166SAPE   H4R18695   5.582   1.745   6.688 -1.3959  1.1936  0.4776
  166SAPE   H4S18696   5.705   1.818   6.794  0.6559  1.1679  0.2382
  166SAPE   C2518697   5.771   1.747   6.601  0.3421 -0.0702  0.6127
  166SAPE   H5R18698   5.753   1.744   6.493 -0.8274  1.2495  0.7653
  166SAPE   C2618699   5.880   1.683   6.644  0.0256 -0.9045  0.7904
  166SAPE   H6R18700   5.943   1.646   6.562  0.5862 -0.4254  1.0008
  166SAPE   C2718701   5.916   1.660   6.789 -0.0803 -0.9229 -0.7661
  166SAPE   H7R18702   5.852   1.574   6.817 -0.9559 -0.4408 -1.2441
  166SAPE   H7S18703   5.894   1.753   6.846  0.6005  0.4737 -2.7089
  166SAPE   C2818704   6.061   1.623   6.796  0.2736  0.5813 -0.6849
  166SAPE   H8R18705   6.107   1.556   6.722 -0.5207 -2.2971  1.3432
  166SAPE   C2918706   6.135   1.655   6.901  0.1717  0.0900  0.7089
  166SAPE   H9R18707   6.242   1.631   6.891 -0.4350 -2.2269 -0.3027
  166SAPE  C21018708   6.103   1.740   7.026  0.4048 -1.0544 -0.1363
  166SAPE  H10R18709   6.084   1.682   7.118  3.3399 -0.6448  0.7590
  166SAPE  H10S18710   6.004   1.789   7.012  0.0408 -2.3090 -2.0780
  166SAPE  C21118711   6.204   1.848   7.061  0.1166 -0.1539 -0.6788
  166SAPE  H11R18712   6.261   1.889   6.977  1.0676 -1.5730 -0.7467
  166SAPE  C21218713   6.232   1.891   7.189 -0.0454 -0.0798 -0.0797
  166SAPE  H12R18714   6.309   1.969   7.194 -0.2512  0.2805 -2.0473
  166SAPE  C21318715   6.163   1.847   7.316  0.5561 -0.1348 -0.3151
  166SAPE  H13R18716   6.054   1.853   7.299  0.3107 -0.8392  0.9698
  166SAPE  H13S18717   6.188   1.920   7.396 -1.1143 -1.8890  1.8860
  166SAPE  C21418718   6.204   1.717   7.366  0.1711 -0.5657  0.5981
  166SAPE  H14R18719   6.159   1.643   7.297 -1.8610  1.9032 -0.8474
  166SAPE  C21518720   6.263   1.676   7.474 -0.1993 -0.3549 -0.6170
  166SAPE  H15R18721   6.290   1.569   7.479 -0.1426 -0.3161  0.0196
  166SAPE  C21618722   6.310   1.756   7.593 -0.0852  0.2164 -0.3846
  166SAPE  H16R18723   6.366   1.845   7.556  1.0614 -1.0724 -1.7734
  166SAPE  H16S18724   6.382   1.697   7.654  0.2224  0.9319 -0.0418
  166SAPE  C21718725   6.191   1.797   7.682  0.3495 -0.4487 -0.0749
  166SAPE  H17R18726   6.143   1.885   7.633  2.1911 -0.3773 -1.7982
  166SAPE  H17S18727   6.214   1.850   7.777 -3.0747 -0.0234  0.6086
  166SAPE  C21818728   6.089   1.693   7.726  0.2097  0.0973  0.7957
  166SAPE  H18R18729   6.051   1.646   7.632  2.5175 -0.7268  0.2130
  166SAPE  H18S18730   5.997   1.738   7.768  1.9622  3.2870  1.4235
  166SAPE  C21918731   6.129   1.588   7.833 -0.2490 -0.7458  0.1287
  166SAPE  H19R18732   6.232   1.618   7.859 -0.1876 -0.7135 -0.1513
  166SAPE  H19S18733   6.155   1.498   7.774 -0.5445 -1.9364  1.7847
  166SAPE  C22018734   6.022   1.569   7.944  0.3053 -0.4297  0.3351
  166SAPE  H20R18735   6.042   1.483   8.011 -1.1572 -0.3240  0.9063
  166SAPE  H20S18736   5.919   1.554   7.904  1.0226 -3.1089 -0.6359
  166SAPE  H20T18737   6.026   1.649   8.021  0.6946  1.8613 -2.0028
  166SAPE   C3318738   5.434   1.377   6.758 -0.4539  0.4262  0.1824
  166SAPE   H3X18739   5.491   1.322   6.835 -0.2279  2.1596  1.2808
  166SAPE   H3Y18740   5.347   1.310   6.739 -1.7766  1.2366  3.0378
  166SAPE   C3418741   5.395   1.504   6.824  0.3900  0.5976  0.2457
  166SAPE   H4X18742   5.289   1.516   6.856 -0.8698 -1.9144 -2.8255
  166SAPE   H4Y18743   5.406   1.591   6.755 -1.3616 -0.1553 -1.0283
  166SAPE   C3518744   5.489   1.542   6.933  0.0355 -0.2436 -0.8937
  166SAPE   H5X18745   5.597   1.534   6.909  0.1267 -0.2395 -0.4912
  166SAPE   H5Y18746   5.474   1.473   7.019  1.7487  0.0993 -0.2930
  166SAPE   C3618747   5.472   1.687   6.975 -0.6043  0.1789  0.2296
  166SAPE   H6X18748   5.372   1.696   7.023 -1.3555  2.1033 -1.6235
  166SAPE   H6Y18749   5.449   1.753   6.889 -0.7015 -1.5823 -1.1227
  166SAPE   C3718750   5.600   1.744   7.054 -0.2045  0.3393 -0.3439
  166SAPE   H7X18751   5.685   1.736   6.983  1.6699 -0.5732  1.9236
  166SAPE   H7Y18752   5.628   1.677   7.138 -0.7669 -0.3877 -0.7256
  166SAPE   C3818753   5.599   1.893   7.100 -0.1373  0.5688 -0.3852
  166SAPE   H8X18754   5.531   1.905   7.186 -0.2792 -0.0509 -0.4105
  166SAPE   H8Y18755   5.561   1.951   7.013 -0.7477 -1.4815 -1.5039
  166SAPE   C3918756   5.745   1.943   7.131  0.0823  0.2504 -0.1915
  166SAPE   H9X18757   5.803   1.958   7.038  0.0601  0.9384 -0.0976
  166SAPE   H9Y18758   5.775   1.860   7.200  0.3767  0.7010  0.2292
  166SAPE  C31018759   5.755   2.069   7.211 -0.4597 -0.3732 -0.1519
  166SAPE  H10X18760   5.675   2.140   7.182  0.8136  0.4994 -1.5962
  166SAPE  H10Y18761   5.850   2.116   7.177  0.9949 -1.8211  1.7260
  166SAPE  C31118762   5.742   2.038   7.357  0.7792 -0.1682  0.4944
  166SAPE  H11X18763   5.831   1.993   7.406  2.0615  0.3136 -1.3430
  166SAPE  H11Y18764   5.657   1.967   7.366 -1.7907  2.8490  0.6016
  166SAPE  C31218765   5.687   2.153   7.441  0.2087  0.3175  0.4198
  166SAPE  H12X18766   5.581   2.178   7.422  0.4350  1.2874  0.4016
  166SAPE  H12Y18767   5.754   2.241   7.431  1.3217 -0.5664 -0.0934
  166SAPE  C31318768   5.699   2.114   7.587 -0.4095  0.3180 -0.2469
  166SAPE  H13X18769   5.804   2.110   7.623 -0.4600 -4.1933 -0.3422
  166SAPE  H13Y18770   5.662   2.010   7.602  1.5904 -0.3627  0.2077
  166SAPE  C31418771   5.620   2.212   7.674 -0.0328  0.0321 -0.5010
  166SAPE  H14X18772   5.511   2.190   7.672 -0.2571  1.0744 -0.0538
  166SAPE  H14Y18773   5.622   2.313   7.628 -0.1418 -0.3868 -1.4324
  166SAPE  C31518774   5.690   2.234   7.809  0.6585  0.3468 -0.2912
  166SAPE  H15X18775   5.662   2.337   7.841 -0.8924  0.3938 -1.7181
  166SAPE  H15Y18776   5.799   2.233   7.789  0.9756  0.7067  1.3603
  166SAPE  C31618777   5.660   2.144   7.926  0.1513  0.5870 -0.3209
  166SAPE  H16X18778   5.716   2.181   8.014  1.4673 -1.1829 -0.3945
  166SAPE  H16Y18779   5.688   2.038   7.910 -1.9380 -0.4829  2.7145
  166SAPE  C31718780   5.506   2.140   7.958 -0.9967 -0.4894  0.0029
  166SAPE  H17X18781   5.456   2.061   7.898  1.6977 -0.9502 -1.7449
  166SAPE  H17Y18782   5.459   2.237   7.932 -0.4550 -0.2174  0.0289
  166SAPE  C31818783   5.479   2.115   8.108 -0.2654 -0.7058 -0.6969
  166SAPE  H18X18784   5.530   2.019   8.128  0.6305 -0.0909  0.0525
  166SAPE  H18Y18785   5.369   2.105   8.116 -0.2391 -0.2415  0.3116
  166SAPE  H18Z18786   5.515   2.199   8.171 -2.1714 -0.0853 -0.4157
  167SAPE     N18787   6.607   1.000   5.992 -0.2150  0.0927 -0.1250
  167SAPE   HN118788   6.589   0.930   5.917  3.1454  0.7270 -1.5828
  167SAPE   HN218789   6.517   1.019   6.041 -0.8925  1.2875 -1.7761
  167SAPE   HN318790   6.636   1.085   5.940 -0.5974 -0.5457 -1.3932
  167SAPE   C1218791   6.703   0.946   6.093 -0.4557  0.0913  0.0015
  167SAPE  H12A18792   6.730   1.032   6.157 -1.2209  0.6207 -0.3744
  167SAPE  H12B18793   6.786   0.895   6.040 -0.3079 -0.4936  0.7916
  167SAPE   C1118794   6.648   0.831   6.182 -0.2661  0.3608  0.5816
  167SAPE  H11A18795   6.555   0.869   6.229  0.0173  1.1533  0.4992
  167SAPE  H11B18796   6.718   0.812   6.266  1.5845  0.8630 -0.8354
  167SAPE     P18797   6.645   0.577   6.167 -0.1763 -0.1548  0.3267
  167SAPE   O1318798   6.577   0.466   6.104 -0.3689  0.4467 -0.3244
  167SAPE   O1418799   6.790   0.569   6.181 -0.5151 -0.1183 -0.1367
  167SAPE   O1218800   6.609   0.716   6.102  0.0025  0.1564 -0.1458
  167SAPE   O1118801   6.592   0.590   6.312  0.3624  0.6630  0.1405
  167SAPE    C118802   6.655   0.508   6.413 -0.2801  0.3800 -0.2586
  167SAPE    HA18803   6.618   0.404   6.400 -2.6148  1.2127 -0.5514
  167SAPE    HB18804   6.766   0.505   6.408 -0.2112  1.0892  0.6350
  167SAPE    C218805   6.620   0.555   6.552  0.0451  0.1429 -0.1780
  167SAPE    HS18806   6.672   0.499   6.632 -0.1741 -0.5450 -0.5106
  167SAPE   O2118807   6.480   0.544   6.572 -0.0819  0.4807 -0.2469
  167SAPE   C2118808   6.447   0.416   6.613 -0.3893  0.6777  0.1333
  167SAPE   O2218809   6.527   0.325   6.639  0.0527 -0.0300 -1.0162
  167SAPE   C2218810   6.301   0.417   6.650  0.2181  0.2508  0.5383
  167SAPE   H2R18811   6.239   0.453   6.565  1.4017 -0.3153 -0.5724
  167SAPE   H2S18812   6.276   0.311   6.671  0.4075  0.6287  2.7761
  167SAPE    C318813   6.671   0.702   6.575 -0.1065 -0.0280 -0.2004
  167SAPE    HX18814   6.581   0.766   6.563  0.3626  0.6206 -0.3596
  167SAPE    HY18815   6.748   0.728   6.498  0.4361 -0.7243  0.1020
  167SAPE   O3118816   6.728   0.710   6.713  0.7267  0.5769  0.3688
  167SAPE   C3118817   6.753   0.842   6.746  0.3655  0.9855 -0.0508
  167SAPE   O3218818   6.735   0.934   6.670  0.4219  0.4534  0.2588
  167SAPE   C3218819   6.776   0.853   6.892 -0.3801 -0.2924 -0.5026
  167SAPE   H2X18820   6.884   0.878   6.903  0.3309 -2.9057 -1.0047
  167SAPE   H2Y18821   6.750   0.757   6.941  2.3858  1.9031  5.8133
  167SAPE   C2318822   6.274   0.503   6.778  0.6649 -0.2027  0.5264
  167SAPE   H3R18823   6.163   0.513   6.785  0.7478  0.3434  1.1043
  167SAPE   H3S18824   6.318   0.603   6.759 -2.8918  1.9999  3.1868
  167SAPE   C2418825   6.310   0.434   6.913  0.2429 -0.0045 -0.4220
  167SAPE   H4R18826   6.303   0.323   6.911 -1.4722  0.0839 -0.3687
  167SAPE   H4S18827   6.243   0.486   6.985  0.0146 -1.7982  0.6883
  167SAPE   C2518828   6.452   0.470   6.942 -0.4651  0.1169 -0.6405
  167SAPE   H5R18829   6.521   0.420   6.873  0.3646 -1.1165  1.0608
  167SAPE   C2618830   6.505   0.547   7.038 -0.0911 -0.4884 -1.0912
  167SAPE   H6R18831   6.614   0.563   7.035 -0.0903  0.1232  1.3351
  167SAPE   C2718832   6.424   0.615   7.145  0.0117 -0.7241 -0.4349
  167SAPE   H7R18833   6.328   0.639   7.095  0.4932  0.5487 -0.7551
  167SAPE   H7S18834   6.475   0.708   7.176 -1.2979  0.0054 -0.4388
  167SAPE   C2818835   6.396   0.529   7.267 -0.2945 -0.2669  0.2812
  167SAPE   H8R18836   6.465   0.443   7.271  1.4189  1.0149 -0.6917
  167SAPE   C2918837   6.335   0.569   7.380  0.6975  1.0566 -0.3126
  167SAPE   H9R18838   6.329   0.505   7.469  1.6538  0.5692 -0.5790
  167SAPE  C21018839   6.271   0.700   7.399  0.5914  0.2806 -0.7288
  167SAPE  H10R18840   6.190   0.699   7.322  0.2060 -0.5489 -0.3182
  167SAPE  H10S18841   6.335   0.783   7.363  1.2005 -0.8402 -2.3355
  167SAPE  C21118842   6.199   0.718   7.530  0.8904 -0.9521 -0.3856
  167SAPE  H11R18843   6.148   0.628   7.568 -0.7670  0.5732  1.1281
  167SAPE  C21218844   6.193   0.837   7.591  0.4433  0.0637 -0.1587
  167SAPE  H12R18845   6.135   0.842   7.684 -1.1953 -1.4636 -1.0460
  167SAPE  C21318846   6.251   0.969   7.546 -0.6898 -0.1132 -0.2384
  167SAPE  H13R18847   6.291   0.969   7.442  2.4671 -1.2413  0.8993
  167SAPE  H13S18848   6.342   0.985   7.609  0.3566 -0.0535 -1.7468
  167SAPE  C21418849   6.153   1.084   7.554  0.1030 -0.0942 -0.0138
  167SAPE  H14R18850   6.078   1.083   7.474 -0.3491  1.1380  0.3847
  167SAPE  C21518851   6.149   1.182   7.642 -0.1148 -0.2299  0.1232
  167SAPE  H15R18852   6.063   1.250   7.642 -0.5464 -0.7679 -1.1114
  167SAPE  C21618853   6.239   1.214   7.757 -0.6755  0.1147  0.6087
  167SAPE  H16R18854   6.288   1.313   7.746  1.6976 -1.0369  0.3612
  167SAPE  H16S18855   6.324   1.142   7.756  0.8283  1.8033  3.0275
  167SAPE  C21718856   6.149   1.213   7.876 -0.2681  0.9776  0.0576
  167SAPE  H17R18857   6.113   1.108   7.888  1.4787  0.3434 -0.1193
  167SAPE  H17S18858   6.068   1.287   7.861 -0.2667  0.7729 -0.9841
  167SAPE  C21818859   6.230   1.253   8.001 -0.0277 -0.0962  0.2439
  167SAPE  H18R18860   6.278   1.352   7.987  1.3451 -0.8712 -0.6553
  167SAPE  H18S18861   6.314   1.181   7.992 -1.2545 -1.6501  1.1673
  167SAPE  C21918862   6.163   1.261   8.148  0.6792 -0.5541  0.0753
  167SAPE  H19R18863   6.069   1.319   8.134 -0.0563 -1.2239  2.1516
  167SAPE  H19S18864   6.230   1.310   8.221 -0.4031  0.5271  0.3683
  167SAPE  C22018865   6.120   1.120   8.194 -0.0447  0.2307  0.5467
  167SAPE  H20R18866   6.210   1.064   8.228 -0.9313 -1.4007  0.2270
  167SAPE  H20S18867   6.072   1.063   8.112  0.2015  0.2976  0.3514
  167SAPE  H20T18868   6.046   1.112   8.276  0.4855 -0.3190  0.9759
  167SAPE   C3318869   6.686   0.962   6.947  0.7602 -0.1281  0.5448
  167SAPE   H3X18870   6.584   0.919   6.947  1.9329 -3.0101 -0.8346
  167SAPE   H3Y18871   6.678   1.049   6.878 -0.6793 -1.2416 -0.7116
  167SAPE   C3418872   6.722   1.017   7.089  0.4765 -0.7119  0.7925
  167SAPE   H4X18873   6.657   1.107   7.094 -0.6283 -1.4123 -0.5025
  167SAPE   H4Y18874   6.832   1.032   7.088  0.5236 -1.0095 -1.1614
  167SAPE   C3518875   6.688   0.918   7.209 -0.1746 -0.5194 -0.4959
  167SAPE   H5X18876   6.743   0.822   7.208  0.2441 -0.3078  0.8639
  167SAPE   H5Y18877   6.578   0.905   7.199 -0.6208  2.2079  0.2772
  167SAPE   C3618878   6.718   0.993   7.348 -0.0795  0.2901  0.1057
  167SAPE   H6X18879   6.820   1.035   7.362 -0.2060  1.4893 -2.3245
  167SAPE   H6Y18880   6.714   0.916   7.428 -0.6260  1.5409  1.3120
  167SAPE   C3718881   6.618   1.103   7.383  0.1846 -0.0243  0.4520
  167SAPE   H7X18882   6.514   1.073   7.356  0.3173  1.1737 -1.4847
  167SAPE   H7Y18883   6.637   1.186   7.312 -0.0759 -0.5737 -0.2732
  167SAPE   C3818884   6.625   1.153   7.524  0.7080  0.9363  0.0018
  167SAPE   H8X18885   6.731   1.140   7.557  0.5487  1.4676  0.7270
  167SAPE   H8Y18886   6.564   1.088   7.590  0.2974  0.6418 -0.6662
  167SAPE   C3918887   6.582   1.301   7.543 -0.6505 -0.3221 -0.4760
  167SAPE   H9X18888   6.472   1.301   7.529 -0.8597 -3.8744  0.5216
  167SAPE   H9Y18889   6.639   1.369   7.476  0.4820 -1.2981 -0.5308
  167SAPE  C31018890   6.600   1.340   7.687  0.2204  0.0129  0.3342
  167SAPE  H10X18891   6.708   1.356   7.707 -0.0804  0.2280  1.8413
  167SAPE  H10Y18892   6.581   1.259   7.761 -0.6813 -0.1427 -0.0628
  167SAPE  C31118893   6.519   1.462   7.722 -0.4717 -0.2776  0.7589
  167SAPE  H11X18894   6.412   1.452   7.694  0.0133 -0.9075 -0.9468
  167SAPE  H11Y18895   6.557   1.555   7.674 -2.5093  1.0222  1.6244
  167SAPE  C31218896   6.507   1.463   7.876  0.1766  0.6221  0.4070
  167SAPE  H12X18897   6.476   1.365   7.919  2.0066 -0.2179 -0.1612
  167SAPE  H12Y18898   6.432   1.534   7.918  0.0051  0.3903  0.4992
  167SAPE  C31318899   6.636   1.510   7.939  0.2878 -0.0350 -0.4108
  167SAPE  H13X18900   6.722   1.441   7.927 -0.2034 -0.5013 -1.2601
  167SAPE  H13Y18901   6.609   1.504   8.047  0.6586 -1.2961 -0.3822
  167SAPE  C31418902   6.674   1.658   7.909  0.1958 -0.0441 -0.0439
  167SAPE  H14X18903   6.581   1.717   7.922 -2.0899 -3.3573 -0.5903
  167SAPE  H14Y18904   6.697   1.654   7.801 -1.4267 -1.4232 -0.3678
  167SAPE  C31518905   6.784   1.699   8.001 -0.1319  0.4555  0.6240
  167SAPE  H15X18906   6.830   1.788   7.955 -0.9899  0.7262  0.2996
  167SAPE  H15Y18907   6.857   1.616   8.010 -0.7743 -0.2396 -0.5123
  167SAPE  C31618908   6.748   1.741   8.141  0.3640  0.9669  0.3149
  167SAPE  H16X18909   6.711   1.647   8.187 -3.0135  3.5034  3.0608
  167SAPE  H16Y18910   6.664   1.813   8.132 -1.2919 -1.1579 -1.8027
  167SAPE  C31718911   6.843   1.801   8.238 -0.3331 -0.0169 -0.2209
  167SAPE  H17X18912   6.894   1.889   8.194 -1.3397  0.6928  0.0102
  167SAPE  H17Y18913   6.929   1.733   8.254  1.3234  1.8257 -1.0082
  167SAPE  C31818914   6.783   1.835   8.372  0.5522 -0.1058 -0.3964
  167SAPE  H18X18915   6.866   1.863   8.440  1.0988 -0.2199 -1.0149
  167SAPE  H18Y18916   6.717   1.759   8.419  0.6948  1.2283  2.0801
  167SAPE  H18Z18917   6.709   1.916   8.355 -0.7956 -1.0323  0.9051
  168SAPE     N18918   1.654   2.315   6.393 -0.2223 -0.2789  0.1818
  168SAPE   HN118919   1.647   2.213   6.371  1.9188 -0.3826 -0.1262
  168SAPE   HN218920   1.749   2.340   6.428  0.3953  1.9885 -2.9583
  168SAPE   HN318921   1.588   2.340   6.469  0.1965 -0.5675  0.6487
  168SAPE   C1218922   1.608   2.408   6.294 -0.3352 -0.7053 -0.0643
  168SAPE  H12A18923   1.507   2.389   6.253  0.3442 -1.2366 -1.5079
  168SAPE  H12B18924   1.674   2.405   6.205 -2.3948  2.5399 -1.8215
  168SAPE   C1118925   1.623   2.553   6.360 -0.3388  0.3092 -0.9348
  168SAPE  H11A18926   1.603   2.621   6.274 -2.2818  1.0826  0.0815
  168SAPE  H11B18927   1.731   2.554   6.387 -0.3655 -1.2912 -0.7122
  168SAPE     P18928   1.460   2.694   6.495  0.0270 -0.2701  0.1159
  168SAPE   O1318929   1.544   2.806   6.447  0.2559  0.1899  0.0013
  168SAPE   O1418930   1.328   2.679   6.443  0.2495  0.1180 -0.0815
  168SAPE   O1218931   1.548   2.556   6.473  0.1994  0.2433  0.1834
  168SAPE   O1118932   1.458   2.708   6.652  0.4074  0.5360  0.1480
  168SAPE    C118933   1.578   2.725   6.728  0.1183 -0.1695 -0.3577
  168SAPE    HA18934   1.654   2.768   6.659 -1.4007  1.1019 -1.2757
  168SAPE    HB18935   1.562   2.791   6.816 -0.5159 -2.8900  1.6477
  168SAPE    C218936   1.631   2.584   6.767  0.3982 -0.8664 -0.3094
  168SAPE    HS18937   1.679   2.553   6.671  0.5210  0.3438 -0.6474
  168SAPE   O2118938   1.525   2.504   6.818  0.3667  0.0909 -0.2322
  168SAPE   C2118939   1.488   2.398   6.745 -0.2801  0.0497  0.3327
  168SAPE   O2218940   1.542   2.351   6.652  0.4207  0.5509  0.4429
  168SAPE   C2218941   1.379   2.323   6.821 -0.2810  0.0216  0.1204
  168SAPE   H2R18942   1.421   2.278   6.913  0.1600  0.6755  0.2422
  168SAPE   H2S18943   1.303   2.399   6.847 -0.0590  0.9391 -1.7579
  168SAPE    C318944   1.750   2.602   6.873  0.0701  0.1181 -0.2382
  168SAPE    HX18945   1.818   2.669   6.815  2.5178 -2.1985 -0.1694
  168SAPE    HY18946   1.806   2.506   6.887  2.4534  1.4362 -0.3758
  168SAPE   O3118947   1.701   2.654   6.997  0.1087 -0.0335  0.0337
  168SAPE   C3118948   1.736   2.778   7.028  0.1451  0.3135 -0.4167
  168SAPE   O3218949   1.799   2.853   6.965 -0.5674  0.0404 -0.0363
  168SAPE   C3218950   1.685   2.812   7.169 -0.3959 -0.8072 -0.5066
  168SAPE   H2X18951   1.774   2.793   7.233 -1.9208 -1.6197  1.4331
  168SAPE   H2Y18952   1.597   2.753   7.201 -0.5006 -0.7631 -0.7149
  168SAPE   C2318953   1.323   2.203   6.745  0.0210 -0.2236  0.7066
  168SAPE   H3R18954   1.406   2.130   6.731  0.0120 -0.7532  3.2180
  168SAPE   H3S18955   1.280   2.237   6.648 -0.7676  1.9114  1.7700
  168SAPE   C2418956   1.209   2.126   6.822 -0.4008 -0.8579  0.0286
  168SAPE   H4R18957   1.160   2.058   6.749 -0.9918  0.7133 -1.0889
  168SAPE   H4S18958   1.133   2.204   6.846 -1.4945 -1.8631 -0.1342
  168SAPE   C2518959   1.264   2.050   6.943 -0.4938  0.2692  0.2255
  168SAPE   H5R18960   1.341   1.975   6.925 -3.0207 -2.6936  1.3516
  168SAPE   C2618961   1.222   2.073   7.070  0.1588 -0.5017 -0.3217
  168SAPE   H6R18962   1.267   2.027   7.159  0.0581 -3.0555 -1.5575
  168SAPE   C2718963   1.120   2.177   7.119  0.0940 -0.1868  0.3237
  168SAPE   H7R18964   1.098   2.245   7.034  3.0365  1.2719  0.6563
  168SAPE   H7S18965   1.166   2.251   7.189  1.4258 -1.1008  0.4396
  168SAPE   C2818966   0.999   2.104   7.172  0.0398  0.3521  0.9489
  168SAPE   H8R18967   0.942   2.060   7.088  1.2307  1.7652 -0.6327
  168SAPE   C2918968   0.967   2.077   7.305 -0.1563 -0.1494 -0.5444
  168SAPE   H9R18969   0.883   2.007   7.323 -1.3873  0.8057 -2.3605
  168SAPE  C21018970   1.056   2.114   7.421  0.6755 -0.1879  0.2422
  168SAPE  H10R18971   1.025   2.213   7.461  1.8303  0.6334 -0.8805
  168SAPE  H10S18972   1.163   2.119   7.392  0.9905  0.2492  1.4706
  168SAPE  C21118973   1.035   2.015   7.531 -0.1282 -0.0746  0.0885
  168SAPE  H11R18974   0.979   2.049   7.619  0.5604 -1.4778  1.0931
  168SAPE  C21218975   1.118   1.909   7.540 -0.0796 -0.1995  0.0889
  168SAPE  H12R18976   1.100   1.849   7.631 -2.7263  1.7118  0.9122
  168SAPE  C21318977   1.231   1.858   7.455  0.1556  0.1760  0.1881
  168SAPE  H13R18978   1.275   1.942   7.397 -1.7741  0.7992 -0.3946
  168SAPE  H13S18979   1.187   1.788   7.381  1.4035  0.6206 -0.9948
  168SAPE  C21418980   1.336   1.771   7.526 -0.0319 -0.3367  0.1510
  168SAPE  H14R18981   1.290   1.697   7.593 -0.4549  0.3061  0.5745
  168SAPE  C21518982   1.469   1.794   7.525 -0.6674 -0.3541 -0.6948
  168SAPE  H15R18983   1.529   1.741   7.600 -1.5235 -2.3264 -1.3746
  168SAPE  C21618984   1.544   1.898   7.444 -0.2246  0.2690 -0.1960
  168SAPE  H16R18985   1.498   1.923   7.346  2.5080 -0.2153 -1.6410
  168SAPE  H16S18986   1.639   1.846   7.420 -1.0343 -1.0877 -0.5310
  168SAPE  C21718987   1.578   2.022   7.524  0.2590 -0.9802 -0.6869
  168SAPE  H17R18988   1.514   2.037   7.614  2.0829  1.0016  0.3222
  168SAPE  H17S18989   1.542   2.101   7.455  1.9055  1.1483  0.8246
  168SAPE  C21818990   1.732   2.046   7.551 -0.3967  0.2947 -0.0646
  168SAPE  H18R18991   1.794   2.042   7.459 -0.6632 -1.9935 -0.1664
  168SAPE  H18S18992   1.757   1.961   7.618 -3.6438 -1.6030 -1.1919
  168SAPE  C21918993   1.757   2.176   7.623  0.6433  0.2749  0.2350
  168SAPE  H19R18994   1.678   2.210   7.693 -1.0202 -0.0532 -1.4511
  168SAPE  H19S18995   1.743   2.253   7.544 -1.5755  1.1650  1.4437
  168SAPE  C22018996   1.896   2.175   7.686  0.1838 -0.5574  1.4611
  168SAPE  H20R18997   1.923   2.280   7.709 -0.4267 -0.4010  1.4715
  168SAPE  H20S18998   1.968   2.145   7.606 -1.3103  1.3633 -0.6780
  168SAPE  H20T18999   1.896   2.101   7.769 -1.2426  0.8876  2.7671
  168SAPE   C3319000   1.660   2.961   7.191 -0.3075  0.0925  0.0653
  168SAPE   H3X19001   1.569   2.997   7.138 -1.1206 -0.0835  1.2997
  168SAPE   H3Y19002   1.742   3.032   7.170  0.0891  0.3718  2.3919
  168SAPE   C3419003   1.638   2.984   7.344 -0.1358 -0.6564 -0.0989
  168SAPE   H4X19004   1.636   3.092   7.370 -0.1878 -0.2768 -1.5962
  168SAPE   H4Y19005   1.739   2.957   7.383 -0.2535 -2.3122 -0.9260
  168SAPE   C3519006   1.534   2.901   7.423  0.3653  0.1602 -0.0775
  168SAPE   H5X19007   1.539   2.798   7.382 -2.4098  0.6594 -1.7660
  168SAPE   H5Y19008   1.434   2.949   7.414 -0.0013 -0.4974  0.4590
  168SAPE   C3619009   1.561   2.898   7.571  0.0060  0.5329 -0.0128
  168SAPE   H6X19010   1.658   2.845   7.583  0.5427  1.0787 -1.7477
  168SAPE   H6Y19011   1.481   2.826   7.599 -0.2262  1.1311  0.8772
  168SAPE   C3719012   1.555   3.035   7.642  0.1182 -0.1689 -0.1451
  168SAPE   H7X19013   1.459   3.082   7.611  0.0397 -0.0772  0.2339
  168SAPE   H7Y19014   1.630   3.104   7.599 -0.2718  1.5314  1.8435
  168SAPE   C3819015   1.571   3.024   7.793 -0.0770  0.5793  0.7011
  168SAPE   H8X19016   1.670   2.975   7.808 -1.0994 -1.3664  1.2908
  168SAPE   H8Y19017   1.500   2.954   7.843  0.1311 -0.4378 -0.4045
  168SAPE   C3919018   1.560   3.162   7.866  0.0456 -0.2058  0.1253
  168SAPE   H9X19019   1.457   3.197   7.841 -0.3489  0.2005  2.2180
  168SAPE   H9Y19020   1.621   3.239   7.814  0.5902 -0.6304  0.1348
  168SAPE  C31019021   1.585   3.149   8.011 -0.2737  0.2702 -0.4425
  168SAPE  H10X19022   1.693   3.121   8.011 -0.0056  1.2390  0.4596
  168SAPE  H10Y19023   1.512   3.075   8.048 -0.2228  0.8683  0.8867
  168SAPE  C31119024   1.571   3.290   8.077  0.4356 -0.2371 -0.2160
  168SAPE  H11X19025   1.475   3.343   8.060  0.6196  0.2530  0.2547
  168SAPE  H11Y19026   1.647   3.366   8.046 -0.2311  0.2452 -0.6780
  168SAPE  C31219027   1.597   3.296   8.236  0.0865  0.7495 -0.4930
  168SAPE  H12X19028   1.590   3.400   8.273 -0.3714  1.8427 -3.4811
  168SAPE  H12Y19029   1.697   3.249   8.247  0.4543  0.8218 -3.1462
  168SAPE  C31319030   1.502   3.195   8.312 -0.4273 -0.3102 -0.6193
  168SAPE  H13X19031   1.523   3.094   8.272 -1.0122 -1.2546  1.3900
  168SAPE  H13Y19032   1.396   3.213   8.284 -0.0836  0.8751 -1.2341
  168SAPE  C31419033   1.504   3.191   8.463 -0.3432  0.1103 -0.5153
  168SAPE  H14X19034   1.611   3.178   8.487 -0.9017 -0.2133  2.0104
  168SAPE  H14Y19035   1.448   3.099   8.490  0.7419 -0.1602  0.9012
  168SAPE  C31519036   1.461   3.323   8.537 -0.5580  0.0429  0.0661
  168SAPE  H15X19037   1.365   3.355   8.492 -1.2430 -0.6261  1.0397
  168SAPE  H15Y19038   1.535   3.403   8.510  1.1382 -1.9417 -1.3539
  168SAPE  C31619039   1.459   3.314   8.691  0.8360  0.0906 -0.2235
  168SAPE  H16X19040   1.562   3.280   8.714  1.0134  1.0669  0.4433
  168SAPE  H16Y19041   1.381   3.247   8.733  0.7737 -0.6585 -1.5009
  168SAPE  C31719042   1.441   3.451   8.761  0.2037 -1.0192 -0.1245
  168SAPE  H17X19043   1.503   3.521   8.701 -3.1292  1.8855 -0.3395
  168SAPE  H17Y19044   1.477   3.450   8.866 -1.1177 -0.7005  0.3495
  168SAPE  C31819045   1.291   3.488   8.779 -0.0774  0.1699  0.5260
  168SAPE  H18X19046   1.234   3.486   8.683 -0.3811  0.5559  0.6993
  168SAPE  H18Y19047   1.283   3.592   8.817  1.2049  0.2307  0.6614
  168SAPE  H18Z19048   1.245   3.413   8.846  0.4510 -1.6457 -1.0983
  169SAPE     N19049   6.767   4.161   6.202  0.0177  0.0442  0.0245
  169SAPE   HN119050   6.811   4.067   6.196  0.0459  0.0876 -0.4991
  169SAPE   HN219051   6.723   4.181   6.294  3.0484 -2.1538  2.0340
  169SAPE   HN319052   6.691   4.173   6.132  0.8665 -0.1938 -0.9461
  169SAPE   C1219053   6.865   4.269   6.179 -0.0884  0.3644 -0.2477
  169SAPE  H12A19054   6.945   4.233   6.111  0.0829  3.2141 -1.6169
  169SAPE  H12B19055   6.915   4.309   6.270 -0.4873 -1.2150  0.6930
  169SAPE   C1119056   6.804   4.401   6.127 -0.2060  0.4445  0.2836
  169SAPE  H11A19057   6.763   4.377   6.026  0.0370  3.3732 -0.5722
  169SAPE  H11B19058   6.885   4.477   6.118 -1.7812  2.0624 -0.4388
  169SAPE     P19059   6.642   4.588   6.188  0.3639 -0.1503 -0.3154
  169SAPE   O1319060   6.725   4.646   6.078  0.3374 -0.3817 -0.7157
  169SAPE   O1419061   6.493   4.576   6.178 -0.3222 -0.2085  0.2026
  169SAPE   O1219062   6.703   4.447   6.209  0.4620  0.0147  0.2564
  169SAPE   O1119063   6.687   4.668   6.319  0.0490  0.2601 -0.4937
  169SAPE    C119064   6.818   4.655   6.378 -0.3019  0.1153  0.3593
  169SAPE    HA19065   6.899   4.612   6.315  2.4591  1.6144  2.7547
  169SAPE    HB19066   6.865   4.750   6.411  0.7081 -0.3915  0.3950
  169SAPE    C219067   6.802   4.563   6.508  0.5961  0.4399  0.4089
  169SAPE    HS19068   6.776   4.462   6.468  1.4485 -0.6346  2.4683
  169SAPE   O2119069   6.706   4.619   6.596  0.4839 -0.5935  0.2592
  169SAPE   C2119070   6.644   4.527   6.670 -0.2193 -0.9667 -0.1631
  169SAPE   O2219071   6.652   4.407   6.650  0.5755 -0.2183 -0.0682
  169SAPE   C2219072   6.573   4.582   6.792  0.0074 -0.0932  0.0979
  169SAPE   H2R19073   6.616   4.681   6.822 -0.3063  0.9686 -2.8099
  169SAPE   H2S19074   6.471   4.603   6.756 -0.0937 -0.6108  0.0877
  169SAPE    C319075   6.942   4.541   6.584 -0.4566 -0.1854  0.3387
  169SAPE    HX19076   6.966   4.640   6.628  0.9091 -0.5087  0.3562
  169SAPE    HY19077   7.023   4.521   6.511  0.7851  1.3542  1.2585
  169SAPE   O3119078   6.946   4.446   6.695 -0.3624 -0.3069 -0.9291
  169SAPE   C3119079   6.955   4.317   6.660 -0.1240  1.4504 -1.0013
  169SAPE   O3219080   6.936   4.277   6.547  0.7261  0.2249 -0.2278
  169SAPE   C3219081   6.960   4.233   6.789 -0.4984 -0.4095 -0.4027
  169SAPE   H2X19082   6.954   4.293   6.882 -0.7967 -2.0716  0.6525
  169SAPE   H2Y19083   7.064   4.195   6.788  0.0807  1.0146  2.0512
  169SAPE   C2319084   6.571   4.476   6.906 -0.5795 -0.7345  0.2088
  169SAPE   H3R19085   6.548   4.373   6.871 -0.8931 -0.2382 -1.0694
  169SAPE   H3S19086   6.484   4.506   6.967  0.5042  1.5217  0.6790
  169SAPE   C2419087   6.700   4.461   6.993  0.2468 -0.4770  0.1787
  169SAPE   H4R19088   6.779   4.441   6.918 -0.7337 -0.5625 -0.8537
  169SAPE   H4S19089   6.680   4.371   7.055 -1.5534 -1.9229 -2.4111
  169SAPE   C2519090   6.734   4.594   7.059 -0.0332 -0.1228  0.3158
  169SAPE   H5R19091   6.781   4.668   6.993 -1.7807 -1.3641 -2.4186
  169SAPE   C2619092   6.714   4.632   7.187 -0.2694 -0.5734 -0.3749
  169SAPE   H6R19093   6.757   4.729   7.214 -0.1586 -0.6488 -0.2852
  169SAPE   C2719094   6.667   4.544   7.296  0.1341  1.4604 -0.0969
  169SAPE   H7R19095   6.615   4.458   7.249  1.9459  1.3311 -1.9169
  169SAPE   H7S19096   6.586   4.590   7.356 -1.2893 -0.6013 -0.4072
  169SAPE   C2819097   6.781   4.492   7.371  0.6428  0.1442 -0.6796
  169SAPE   H8R19098   6.825   4.402   7.324 -2.1419 -0.7659 -1.6492
  169SAPE   C2919099   6.839   4.549   7.479 -0.6163 -0.2527 -0.2345
  169SAPE   H9R19100   6.913   4.480   7.523 -0.8493 -0.4083 -0.0833
  169SAPE  C21019101   6.790   4.667   7.553 -0.4637  0.1823 -0.9177
  169SAPE  H10R19102   6.681   4.663   7.572 -0.3924  0.2615 -0.4853
  169SAPE  H10S19103   6.822   4.758   7.497  0.5272  0.1905 -0.3609
  169SAPE  C21119104   6.871   4.674   7.683  0.3744  0.0547  0.3831
  169SAPE  H11R19105   6.963   4.735   7.681 -0.1735  0.8568 -1.8197
  169SAPE  C21219106   6.837   4.624   7.806 -1.1594  0.3514  0.0706
  169SAPE  H12R19107   6.905   4.628   7.892 -1.2524 -0.7525  0.2078
  169SAPE  C21319108   6.717   4.543   7.835 -0.2680  0.0958  0.1053
  169SAPE  H13R19109   6.633   4.603   7.794 -0.1587 -0.1638 -0.5171
  169SAPE  H13S19110   6.707   4.552   7.945  3.5089  2.3425  0.3984
  169SAPE  C21419111   6.727   4.395   7.792 -0.2543 -0.1282 -0.0880
  169SAPE  H14R19112   6.732   4.386   7.682 -0.1621  1.1642 -0.1912
  169SAPE  C21519113   6.732   4.284   7.868 -0.2223  0.4157  0.2002
  169SAPE  H15R19114   6.756   4.187   7.821 -1.4292  0.7387 -1.1083
  169SAPE  C21619115   6.738   4.274   8.018 -0.6234  0.7769 -0.4791
  169SAPE  H16R19116   6.823   4.340   8.047 -0.9573 -0.1302  2.8477
  169SAPE  H16S19117   6.772   4.170   8.036 -0.5095  0.6933 -1.1938
  169SAPE  C21719118   6.604   4.321   8.093 -0.0829  0.2222  0.1469
  169SAPE  H17R19119   6.519   4.262   8.053  1.8019 -2.0306 -0.6914
  169SAPE  H17S19120   6.586   4.424   8.055  0.9122  0.4791  0.3571
  169SAPE  C21819121   6.605   4.325   8.249 -0.1258 -0.0096 -0.1124
  169SAPE  H18R19122   6.591   4.225   8.293  0.9548  0.6905  1.8686
  169SAPE  H18S19123   6.532   4.399   8.290 -0.7739 -1.4349  1.3395
  169SAPE  C21919124   6.743   4.365   8.292  0.4157  0.5258  1.0996
  169SAPE  H19R19125   6.796   4.441   8.230 -1.7644  0.1363 -1.3125
  169SAPE  H19S19126   6.803   4.273   8.276  1.1284  1.1292  0.1972
  169SAPE  C22019127   6.750   4.406   8.442  0.1027  0.5787 -0.3508
  169SAPE  H20R19128   6.706   4.320   8.497  3.1845 -0.0456  1.2506
  169SAPE  H20S19129   6.684   4.490   8.472 -0.8296 -0.8026  1.5897
  169SAPE  H20T19130   6.855   4.427   8.472  0.1770 -0.5974  0.2572
  169SAPE   C3319131   6.853   4.125   6.785 -0.2391  0.4104 -0.1904
  169SAPE   H3X19132   6.881   4.058   6.701 -0.9159 -0.1287  0.0089
  169SAPE   H3Y19133   6.751   4.166   6.768 -0.5085  0.1489  0.7910
  169SAPE   C3419134   6.857   4.040   6.908  0.2804  0.3767  0.2605
  169SAPE   H4X19135   6.961   4.010   6.935  0.6829  1.5836  0.0524
  169SAPE   H4Y19136   6.789   3.954   6.888 -0.8244  1.7298 -1.9236
  169SAPE   C3519137   6.786   4.099   7.033 -0.4874  0.4540  0.0321
  169SAPE   H5X19138   6.677   4.098   7.014 -0.3126  0.4927 -0.9955
  169SAPE   H5Y19139   6.828   4.199   7.059  0.0775  0.5038 -1.0290
  169SAPE   C3619140   6.814   4.019   7.158  0.0761  0.5181  0.0457
  169SAPE   H6X19141   6.924   4.019   7.173  0.1642 -1.1848 -0.5232
  169SAPE   H6Y19142   6.780   3.916   7.133 -1.3658  0.9802  0.0562
  169SAPE   C3719143   6.739   4.069   7.282  0.7189  0.5070  0.0693
  169SAPE   H7X19144   6.639   4.022   7.278  1.1807 -0.5538  0.5957
  169SAPE   H7Y19145   6.735   4.179   7.270  0.7638  0.4139 -0.8359
  169SAPE   C3819146   6.801   4.020   7.413 -0.1401 -0.9656  0.3297
  169SAPE   H8X19147   6.903   4.063   7.420 -1.4581  1.8597  3.7021
  169SAPE   H8Y19148   6.820   3.911   7.416 -0.9010 -1.1581 -1.0768
  169SAPE   C3919149   6.730   4.060   7.543 -0.4601  0.6584 -0.1834
  169SAPE   H9X19150   6.620   4.062   7.532 -0.4880 -2.4692 -0.8952
  169SAPE   H9Y19151   6.753   4.168   7.558  0.2746  0.4740  0.0412
  169SAPE  C31019152   6.780   3.970   7.662  0.2415 -0.2678 -0.7959
  169SAPE  H10X19153   6.758   3.863   7.640  1.6268 -0.9277  0.9523
  169SAPE  H10Y19154   6.715   3.992   7.750  0.9296 -0.7126 -0.1736
  169SAPE  C31119155   6.927   3.992   7.687 -0.2134  0.4605 -0.0532
  169SAPE  H11X19156   6.931   4.098   7.719 -3.0062  0.1393  1.5169
  169SAPE  H11Y19157   6.985   3.981   7.593  0.5006 -2.0998  0.6415
  169SAPE  C31219158   6.992   3.904   7.797  0.3039 -0.3186  0.1980
  169SAPE  H12X19159   7.102   3.913   7.782 -0.1192  0.9352 -2.5039
  169SAPE  H12Y19160   6.950   3.803   7.782  0.5238 -0.4667  0.5764
  169SAPE  C31319161   6.965   3.958   7.938 -1.1951  0.1352  0.2132
  169SAPE  H13X19162   6.858   3.987   7.925 -1.0202  1.5561  1.7586
  169SAPE  H13Y19163   7.019   4.052   7.962  1.5300 -1.0754 -1.0147
  169SAPE  C31419164   6.990   3.848   8.051  0.1498  0.2563 -0.1372
  169SAPE  H14X19165   7.101   3.850   8.066 -0.1446 -0.2124  2.2652
  169SAPE  H14Y19166   6.973   3.749   8.003 -0.4887  1.5181 -2.5929
  169SAPE  C31519167   6.928   3.868   8.184  0.6775 -0.3974  0.3259
  169SAPE  H15X19168   6.821   3.839   8.176  0.9786 -1.3399 -0.4458
  169SAPE  H15Y19169   6.931   3.977   8.206  1.9466 -0.8068  2.3691
  169SAPE  C31619170   6.990   3.795   8.311  0.0133  0.4464 -0.3850
  169SAPE  H16X19171   7.092   3.834   8.336  0.6449 -1.9154  0.8371
  169SAPE  H16Y19172   6.995   3.689   8.280  2.1872  0.3004  0.3343
  169SAPE  C31719173   6.893   3.799   8.441 -0.0973 -0.1550  0.4366
  169SAPE  H17X19174   6.790   3.789   8.402  0.7117  1.9028 -2.3959
  169SAPE  H17Y19175   6.902   3.902   8.482 -0.4595  0.9791 -2.2355
  169SAPE  C31819176   6.931   3.706   8.551 -0.4960 -0.4494  0.6868
  169SAPE  H18X19177   6.963   3.609   8.507  3.4624  1.7998 -1.6951
  169SAPE  H18Y19178   6.844   3.671   8.611  0.3940 -0.4702  1.9694
  169SAPE  H18Z19179   7.015   3.744   8.612  0.3825  0.3332 -0.9794
  170SAPE     N19180   1.296   1.604   5.850  0.0044 -0.2474 -0.8214
  170SAPE   HN119181   1.332   1.613   5.753  2.9030  0.5727  0.2892
  170SAPE   HN219182   1.216   1.540   5.871 -1.4666  0.7522 -3.1495
  170SAPE   HN319183   1.272   1.703   5.870  2.3380  0.4285 -1.2806
  170SAPE   C1219184   1.422   1.580   5.929  0.3093 -0.3656  0.1218
  170SAPE  H12A19185   1.479   1.673   5.912  1.0555 -0.9384 -0.5593
  170SAPE  H12B19186   1.482   1.493   5.896  2.7768  2.8383 -4.3383
  170SAPE   C1119187   1.382   1.554   6.074  0.1855  0.2510 -0.1186
  170SAPE  H11A19188   1.472   1.539   6.137  0.1017 -1.6884 -0.4274
  170SAPE  H11B19189   1.329   1.457   6.080 -1.9210  1.3552 -0.4287
  170SAPE     P19190   1.337   1.780   6.216 -0.2222  0.1853  0.5189
  170SAPE   O1319191   1.415   1.881   6.143 -0.4628 -0.2833  0.4111
  170SAPE   O1419192   1.230   1.831   6.302 -0.1000  0.0351 -0.4270
  170SAPE   O1219193   1.294   1.658   6.122 -0.6521 -0.3570  0.1913
  170SAPE   O1119194   1.448   1.718   6.314  0.3592 -0.3807 -0.5928
  170SAPE    C119195   1.416   1.601   6.395 -0.2180  0.4270 -0.5491
  170SAPE    HA19196   1.344   1.527   6.353  0.0781  0.5862 -1.3479
  170SAPE    HB19197   1.505   1.537   6.408  1.2458  2.7056  0.8968
  170SAPE    C219198   1.377   1.633   6.538 -0.4745  0.1207  0.2794
  170SAPE    HS19199   1.291   1.704   6.540 -0.4227  0.3224 -2.8619
  170SAPE   O2119200   1.496   1.685   6.598  0.1829 -0.4326  0.1783
  170SAPE   C2119201   1.485   1.780   6.692 -0.1293 -0.2979 -0.6610
  170SAPE   O2219202   1.385   1.846   6.705  0.3050  0.6445  0.1131
  170SAPE   C2219203   1.611   1.804   6.754  0.2154 -0.6279 -0.1292
  170SAPE   H2R19204   1.670   1.712   6.739  2.3998  1.0725 -2.3095
  170SAPE   H2S19205   1.662   1.899   6.726  0.4222 -0.0235  2.1581
  170SAPE    C319206   1.334   1.504   6.617  0.1813 -0.2081  0.0813
  170SAPE    HX19207   1.316   1.532   6.723 -0.5337 -3.1297  0.7790
  170SAPE    HY19208   1.414   1.428   6.609  1.1875  0.6001  2.0694
  170SAPE   O3119209   1.206   1.451   6.561 -0.1901 -0.3921  0.0933
  170SAPE   C3119210   1.132   1.391   6.653 -0.3960  0.1195  0.5363
  170SAPE   O3219211   1.175   1.350   6.760  0.5410  0.4264 -0.0302
  170SAPE   C3219212   0.991   1.393   6.610 -0.4251  0.4189  0.1928
  170SAPE   H2X19213   0.972   1.345   6.512  1.0508 -1.0842  0.6252
  170SAPE   H2Y19214   0.969   1.499   6.585  0.9380  0.7281  0.2849
  170SAPE   C2319215   1.607   1.806   6.911  0.6405 -0.0460  0.0198
  170SAPE   H3R19216   1.532   1.873   6.958  0.4743 -0.5017  0.4153
  170SAPE   H3S19217   1.710   1.842   6.933  1.7253 -3.3174  0.5739
  170SAPE   C2419218   1.592   1.675   6.972 -0.4846 -0.1134  0.3210
  170SAPE   H4R19219   1.681   1.612   6.950  1.1189  2.2426 -0.1802
  170SAPE   H4S19220   1.501   1.624   6.935 -0.4399 -0.0476  0.1244
  170SAPE   C2519221   1.561   1.679   7.121  0.1655 -0.3707  0.2566
  170SAPE   H5R19222   1.455   1.676   7.151  0.0054  1.1801 -0.1578
  170SAPE   C2619223   1.650   1.668   7.220 -0.3654  0.1344 -0.0631
  170SAPE   H6R19224   1.607   1.669   7.322  0.0417 -2.4739  0.1477
  170SAPE   C2719225   1.801   1.653   7.203 -0.3160 -0.0259 -0.0330
  170SAPE   H7R19226   1.827   1.677   7.098  1.9888 -0.9026  0.3245
  170SAPE   H7S19227   1.831   1.548   7.219 -0.1514 -0.1809 -1.3108
  170SAPE   C2819228   1.870   1.746   7.304  0.0182 -0.0053 -0.2585
  170SAPE   H8R19229   1.898   1.845   7.263  0.0445  0.1569  0.1488
  170SAPE   C2919230   1.877   1.729   7.440  0.5939  0.0595  0.2977
  170SAPE   H9R19231   1.940   1.799   7.496 -1.7399  0.5427  2.4320
  170SAPE  C21019232   1.818   1.605   7.515  0.1770  0.4287 -0.1970
  170SAPE  H10R19233   1.819   1.520   7.444 -2.3272  0.3160 -0.1626
  170SAPE  H10S19234   1.715   1.633   7.547  1.0117  0.1097  2.9457
  170SAPE  C21119235   1.869   1.547   7.644 -0.0169 -0.0967  0.9837
  170SAPE  H11R19236   1.911   1.446   7.631 -1.2053 -0.5366  0.4859
  170SAPE  C21219237   1.856   1.592   7.775 -0.4409 -0.2453  0.5803
  170SAPE  H12R19238   1.886   1.525   7.857  1.3928  0.9508  0.9032
  170SAPE  C21319239   1.786   1.720   7.818  0.0921 -0.3724  0.4085
  170SAPE  H13R19240   1.678   1.721   7.792  0.2269  2.2875 -0.2071
  170SAPE  H13S19241   1.820   1.801   7.750  0.4765 -0.1049  0.9097
  170SAPE  C21419242   1.802   1.756   7.960  0.3923  0.5693  0.2948
  170SAPE  H14R19243   1.907   1.766   7.992  0.6243 -1.2444  0.1535
  170SAPE  C21519244   1.701   1.771   8.045  0.4525  0.8884  0.3344
  170SAPE  H15R19245   1.719   1.799   8.150 -0.3115  0.6926  0.5248
  170SAPE  C21619246   1.558   1.748   8.015 -0.2148 -0.4586 -0.2740
  170SAPE  H16R19247   1.494   1.732   8.105 -0.4700 -1.1947 -0.5833
  170SAPE  H16S19248   1.548   1.659   7.950 -0.5862  0.1583 -1.0638
  170SAPE  C21719249   1.487   1.857   7.934  0.1158 -0.4230 -0.3700
  170SAPE  H17R19250   1.552   1.886   7.849 -0.4450 -1.5687 -1.1971
  170SAPE  H17S19251   1.463   1.945   7.997 -0.7546 -0.3101 -0.8633
  170SAPE  C21819252   1.351   1.815   7.871  0.2924 -1.2069  0.4842
  170SAPE  H18R19253   1.361   1.743   7.787  0.1519 -1.2754  0.5270
  170SAPE  H18S19254   1.305   1.909   7.834  1.3304  0.2183  2.6963
  170SAPE  C21919255   1.249   1.742   7.958 -0.5376 -0.8028  0.1189
  170SAPE  H19R19256   1.233   1.811   8.044  0.0386 -2.0265  1.2233
  170SAPE  H19S19257   1.303   1.653   7.997  1.4473  0.4136  0.1979
  170SAPE  C22019258   1.111   1.698   7.896 -0.8843 -0.3579  0.3817
  170SAPE  H20R19259   1.037   1.775   7.867  1.7184  1.4819 -1.6659
  170SAPE  H20S19260   1.061   1.636   7.973 -1.9868 -0.7319 -0.6342
  170SAPE  H20T19261   1.130   1.637   7.805 -0.3118  0.0246  0.2441
  170SAPE   C3319262   0.893   1.345   6.717 -0.9512  0.6214 -0.6366
  170SAPE   H3X19263   0.934   1.265   6.782 -3.9875 -0.5410 -0.0728
  170SAPE   H3Y19264   0.812   1.284   6.672  0.6024 -2.8539  1.0733
  170SAPE   C3419265   0.833   1.458   6.795 -0.1757 -0.2563 -0.4010
  170SAPE   H4X19266   0.811   1.542   6.727  0.1105  0.4836  0.4078
  170SAPE   H4Y19267   0.903   1.492   6.874 -1.4789 -0.6522  0.9714
  170SAPE   C3519268   0.702   1.419   6.866 -0.0820 -0.3347  0.2343
  170SAPE   H5X19269   0.613   1.393   6.804 -2.1014  3.2399  1.4513
  170SAPE   H5Y19270   0.656   1.508   6.915 -1.2750 -0.2175 -1.0656
  170SAPE   C3619271   0.720   1.301   6.961  0.3385  0.4786  0.2791
  170SAPE   H6X19272   0.820   1.255   6.972 -0.2005 -0.6779  0.3684
  170SAPE   H6Y19273   0.665   1.217   6.914 -0.8984  1.6092 -0.3301
  170SAPE   C3719274   0.670   1.346   7.097 -0.4650 -0.1854 -0.2982
  170SAPE   H7X19275   0.560   1.360   7.100 -0.2824  1.3507 -0.4668
  170SAPE   H7Y19276   0.736   1.428   7.131  0.3042  0.7114 -3.7503
  170SAPE   C3819277   0.691   1.223   7.194 -0.2310 -0.1451 -0.0339
  170SAPE   H8X19278   0.786   1.166   7.180  1.8591  2.3510  3.0597
  170SAPE   H8Y19279   0.605   1.155   7.179 -0.1344 -0.3795  0.4563
  170SAPE   C3919280   0.686   1.269   7.343 -0.5070  0.1977  0.4424
  170SAPE   H9X19281   0.601   1.340   7.356 -0.2406  0.8488 -1.2544
  170SAPE   H9Y19282   0.779   1.328   7.362  0.3716 -1.1420  0.3344
  170SAPE  C31019283   0.685   1.165   7.457  0.0999 -0.3298 -0.2259
  170SAPE  H10X19284   0.784   1.117   7.466  0.2464 -0.0945 -0.5762
  170SAPE  H10Y19285   0.611   1.088   7.425  0.1394  0.0840 -1.3395
  170SAPE  C31119286   0.642   1.210   7.596  0.5199  0.4885  0.7646
  170SAPE  H11X19287   0.545   1.261   7.579  0.4904 -0.3365 -1.7561
  170SAPE  H11Y19288   0.717   1.291   7.612  2.0730 -0.7749  0.0226
  170SAPE  C31219289   0.640   1.095   7.698  0.2520  0.1592 -0.8644
  170SAPE  H12X19290   0.716   1.016   7.677  0.3243  0.0442 -0.1899
  170SAPE  H12Y19291   0.536   1.056   7.691 -0.9935  2.9562  1.2201
  170SAPE  C31319292   0.662   1.148   7.843 -0.0090  0.0199  0.2633
  170SAPE  H13X19293   0.617   1.250   7.846  0.5622  0.3324 -1.3395
  170SAPE  H13Y19294   0.772   1.153   7.856  0.0099  2.6368 -0.6364
  170SAPE  C31419295   0.602   1.057   7.948  0.0651  0.2027 -0.4479
  170SAPE  H14X19296   0.649   0.956   7.945  0.3340  0.2981  0.4010
  170SAPE  H14Y19297   0.493   1.043   7.935 -0.1561  2.5888 -1.4732
  170SAPE  C31519298   0.621   1.109   8.092  0.1787 -0.3223  0.3559
  170SAPE  H15X19299   0.612   1.219   8.097  0.5563 -0.3603  2.2043
  170SAPE  H15Y19300   0.728   1.095   8.117 -0.5056 -2.6529  2.2153
  170SAPE  C31619301   0.550   1.024   8.200 -0.5789 -0.9170 -0.5478
  170SAPE  H16X19302   0.439   1.034   8.198 -0.7148 -2.2731 -0.1605
  170SAPE  H16Y19303   0.571   1.071   8.298 -0.8406  3.4351 -2.4328
  170SAPE  C31719304   0.597   0.878   8.187 -0.4323  0.0227  0.8455
  170SAPE  H17X19305   0.708   0.876   8.181 -0.5056 -2.8450 -0.1903
  170SAPE  H17Y19306   0.543   0.831   8.102 -0.0582 -0.3976  0.8374
  170SAPE  C31819307   0.554   0.785   8.301  0.3697 -0.2080  0.6255
  170SAPE  H18X19308   0.581   0.838   8.395 -0.1780 -0.3418  0.8598
  170SAPE  H18Y19309   0.608   0.688   8.291  1.7172  0.6275 -0.3979
  170SAPE  H18Z19310   0.446   0.759   8.303 -0.2959  2.4005  0.3239
  171SAPE     N19311   1.994   2.626   6.002 -0.1161 -0.1678 -0.4221
  171SAPE   HN119312   2.090   2.604   5.969  0.1987 -0.6993  0.8399
  171SAPE   HN219313   1.946   2.534   6.000  2.4136 -1.5433  0.7651
  171SAPE   HN319314   1.957   2.702   5.941  0.3326  2.0302  1.9656
  171SAPE   C1219315   1.979   2.694   6.142  0.4078  0.4329  0.4065
  171SAPE  H12A19316   1.872   2.710   6.163  0.4636 -1.7985  2.6843
  171SAPE  H12B19317   2.036   2.789   6.145  2.9659 -0.9525 -1.9081
  171SAPE   C1119318   2.056   2.616   6.245  0.5497  0.3885 -0.0091
  171SAPE  H11A19319   2.035   2.660   6.345  1.4433  1.9107 -0.4682
  171SAPE  H11B19320   2.165   2.622   6.224  0.6470  0.8652  0.6168
  171SAPE     P19321   2.030   2.366   6.360  0.6349 -0.0831  1.0568
  171SAPE   O1319322   1.907   2.353   6.439 -0.2960 -0.1547 -0.6086
  171SAPE   O1419323   2.089   2.246   6.293 -0.2257 -0.4877 -0.3546
  171SAPE   O1219324   2.007   2.475   6.246 -0.7035 -0.3328  0.8000
  171SAPE   O1119325   2.128   2.434   6.450 -0.5081 -0.3561 -0.4127
  171SAPE    C119326   2.263   2.451   6.430 -0.2931  0.2700 -0.5314
  171SAPE    HA19327   2.284   2.463   6.321 -0.5907  0.5473 -0.5613
  171SAPE    HB19328   2.297   2.549   6.471  0.3539  0.4145 -1.3896
  171SAPE    C219329   2.350   2.347   6.508 -0.1792  0.1341  0.5078
  171SAPE    HS19330   2.317   2.244   6.483 -0.4943  0.1706  0.7646
  171SAPE   O2119331   2.315   2.387   6.640  0.1324  0.1460 -0.0994
  171SAPE   C2119332   2.328   2.294   6.734 -0.1324  0.1795  0.4964
  171SAPE   O2219333   2.355   2.175   6.711  0.4772 -0.4351 -0.5288
  171SAPE   C2219334   2.291   2.352   6.869  0.2280  0.1048 -0.6919
  171SAPE   H2R19335   2.348   2.302   6.950 -0.8925 -0.6426 -0.3660
  171SAPE   H2S19336   2.328   2.457   6.862 -0.6128  0.3725 -1.1968
  171SAPE    C319337   2.503   2.366   6.467  0.0354 -0.5815  0.3420
  171SAPE    HX19338   2.537   2.471   6.470  1.5363 -1.0091 -1.0895
  171SAPE    HY19339   2.503   2.328   6.363  0.3855 -1.0931  0.5244
  171SAPE   O3119340   2.586   2.288   6.558  0.2120 -0.0950 -0.0882
  171SAPE   C3119341   2.656   2.188   6.508  0.7128 -0.5279  0.1970
  171SAPE   O3219342   2.650   2.144   6.396 -0.0660  0.0118  0.0860
  171SAPE   C3219343   2.749   2.140   6.626 -0.9407  0.1446  0.4389
  171SAPE   H2X19344   2.838   2.207   6.624 -0.5506 -0.4116 -1.2885
  171SAPE   H2Y19345   2.784   2.037   6.605 -1.1013  0.3423 -0.8491
  171SAPE   C2319346   2.141   2.335   6.887 -0.1801 -0.8360  0.7125
  171SAPE   H3R19347   2.115   2.229   6.910  0.1825 -1.4475 -1.5537
  171SAPE   H3S19348   2.095   2.366   6.791 -1.5519 -0.2389  1.5455
  171SAPE   C2419349   2.097   2.418   7.006 -0.1314  0.4006 -0.5337
  171SAPE   H4R19350   2.151   2.391   7.099  1.3666  3.2496 -0.5041
  171SAPE   H4S19351   1.990   2.398   7.027 -0.0277  1.2837  0.9481
  171SAPE   C2519352   2.100   2.572   7.008 -0.1203 -0.2423  0.4588
  171SAPE   H5R19353   2.123   2.617   6.911 -2.6583 -3.1734 -1.6378
  171SAPE   C2619354   2.073   2.656   7.111  0.3901 -0.4019  0.4957
  171SAPE   H6R19355   2.072   2.765   7.097 -0.1059 -0.3547  0.8654
  171SAPE   C2719356   2.045   2.624   7.256 -0.0420  0.5144  0.0466
  171SAPE   H7R19357   2.032   2.717   7.315 -0.0459  0.1490  0.6238
  171SAPE   H7S19358   2.124   2.567   7.308 -0.0543  0.9571  0.5532
  171SAPE   C2819359   1.927   2.525   7.280 -0.5508 -0.2182 -0.5178
  171SAPE   H8R19360   1.925   2.440   7.211  0.5515 -0.4008 -0.3266
  171SAPE   C2919361   1.825   2.531   7.371 -0.2451 -0.9238 -0.1109
  171SAPE   H9R19362   1.749   2.452   7.379 -0.5927 -0.7301 -1.4128
  171SAPE  C21019363   1.795   2.630   7.482  0.2840 -0.1552 -0.6794
  171SAPE  H10R19364   1.689   2.614   7.512 -0.5738  0.3724 -3.3456
  171SAPE  H10S19365   1.802   2.731   7.436  1.9512 -0.4344 -1.0490
  171SAPE  C21119366   1.882   2.608   7.609 -0.7319  0.5533 -0.0225
  171SAPE  H11R19367   1.985   2.644   7.599 -1.4560  1.7892 -3.5690
  171SAPE  C21219368   1.849   2.559   7.736 -0.5617 -0.0041  0.0233
  171SAPE  H12R19369   1.921   2.562   7.819  0.0435 -0.2297 -0.4828
  171SAPE  C21319370   1.716   2.513   7.791 -0.0743  0.2488 -0.2921
  171SAPE  H13R19371   1.725   2.420   7.852 -0.0891 -1.2042 -2.4611
  171SAPE  H13S19372   1.657   2.467   7.709  1.1885 -3.4992  0.7829
  171SAPE  C21419373   1.639   2.628   7.857 -0.9321 -0.8861 -0.2968
  171SAPE  H14R19374   1.629   2.720   7.798 -1.8447 -0.5198  0.4040
  171SAPE  C21519375   1.597   2.637   7.990  0.6794  0.3955  1.0287
  171SAPE  H15R19376   1.533   2.720   8.021 -0.8357 -0.7554  1.0180
  171SAPE  C21619377   1.613   2.528   8.091  0.3257  0.2610 -0.2379
  171SAPE  H16R19378   1.627   2.570   8.193  1.2164  1.6141 -0.9050
  171SAPE  H16S19379   1.701   2.464   8.069  0.3165  0.4395 -0.8107
  171SAPE  C21719380   1.476   2.453   8.107  0.5790  0.5525  0.5061
  171SAPE  H17R19381   1.445   2.420   8.006  0.1825 -2.5460  1.5920
  171SAPE  H17S19382   1.395   2.515   8.150 -2.7812 -3.2678  0.0216
  171SAPE  C21819383   1.480   2.329   8.198  0.1307 -0.6550  1.2116
  171SAPE  H18R19384   1.379   2.283   8.206 -2.0653  3.2283 -2.2691
  171SAPE  H18S19385   1.507   2.350   8.303  3.2131  0.8066  0.1790
  171SAPE  C21919386   1.579   2.224   8.147 -0.7301  0.5757 -0.2037
  171SAPE  H19R19387   1.682   2.263   8.153 -0.6455  0.4491 -0.7850
  171SAPE  H19S19388   1.555   2.205   8.040 -0.0133 -1.5837 -0.0091
  171SAPE  C22019389   1.572   2.086   8.210 -0.0960  0.6059  0.5314
  171SAPE  H20R19390   1.466   2.051   8.204  0.6305 -1.1747 -2.8539
  171SAPE  H20S19391   1.605   2.098   8.315  1.6724 -0.1283  0.0676
  171SAPE  H20T19392   1.642   2.020   8.155 -2.4200 -1.4367 -0.0896
  171SAPE   C3319393   2.684   2.126   6.768 -0.2283  0.0159  0.1188
  171SAPE   H3X19394   2.607   2.046   6.769  2.2010 -2.3904  0.3891
  171SAPE   H3Y19395   2.641   2.225   6.795 -1.0468 -0.3294  0.1128
  171SAPE   C3419396   2.787   2.070   6.872 -0.3739 -0.4377 -0.2839
  171SAPE   H4X19397   2.881   2.128   6.863 -1.3473  0.6813 -4.1584
  171SAPE   H4Y19398   2.794   1.961   6.855  0.5131 -0.6065  1.0870
  171SAPE   C3519399   2.736   2.091   7.015  0.3937  0.6316 -0.3429
  171SAPE   H5X19400   2.637   2.041   7.007  0.5927  0.0395  0.7882
  171SAPE   H5Y19401   2.725   2.202   7.023  2.8098  0.8436  0.4627
  171SAPE   C3619402   2.817   2.039   7.137  0.7359  0.1655  0.3098
  171SAPE   H6X19403   2.914   2.092   7.123  0.9318  0.3074  2.0408
  171SAPE   H6Y19404   2.840   1.932   7.122 -0.1443 -0.0919  0.7517
  171SAPE   C3719405   2.755   2.065   7.275  0.1453 -0.1594 -0.1107
  171SAPE   H7X19406   2.804   2.002   7.352  2.2822  0.9084 -0.5471
  171SAPE   H7Y19407   2.651   2.026   7.268  0.1911 -0.1396 -1.0343
  171SAPE   C3819408   2.753   2.214   7.307  0.1477 -0.0540  0.1787
  171SAPE   H8X19409   2.698   2.263   7.224  1.4731 -0.9070 -1.2422
  171SAPE   H8Y19410   2.857   2.251   7.324  0.3335 -0.7754  0.6522
  171SAPE   C3919411   2.683   2.239   7.438 -0.6944  0.1274  0.1746
  171SAPE   H9X19412   2.583   2.194   7.428  0.8496 -3.1004 -1.5064
  171SAPE   H9Y19413   2.671   2.349   7.448 -1.3839  0.2046 -1.3998
  171SAPE  C31019414   2.740   2.175   7.567  0.3771  0.6745 -0.2935
  171SAPE  H10X19415   2.842   2.219   7.572  0.0829  1.3028  0.1125
  171SAPE  H10Y19416   2.759   2.065   7.571  2.8863  1.0898  0.1756
  171SAPE  C31119417   2.667   2.218   7.702 -0.1150 -0.4497 -0.6514
  171SAPE  H11X19418   2.574   2.157   7.703 -0.9342  0.7868 -0.0992
  171SAPE  H11Y19419   2.645   2.326   7.690 -0.3730 -0.4885 -0.5361
  171SAPE  C31219420   2.747   2.164   7.826 -0.3175 -0.4834  0.3571
  171SAPE  H12X19421   2.845   2.214   7.843  0.0509 -1.4118  1.0094
  171SAPE  H12Y19422   2.766   2.055   7.823 -1.6822 -0.6926 -0.9842
  171SAPE  C31319423   2.666   2.187   7.953  0.9973 -0.2543 -0.2410
  171SAPE  H13X19424   2.571   2.130   7.960  1.5486 -1.3870 -1.7231
  171SAPE  H13Y19425   2.625   2.291   7.959 -1.2053 -1.0953 -0.3257
  171SAPE  C31419426   2.744   2.166   8.084  0.3240  0.3960  0.3566
  171SAPE  H14X19427   2.823   2.240   8.111  1.4324 -0.5338 -0.2483
  171SAPE  H14Y19428   2.786   2.064   8.072 -1.5113 -0.3696  0.3476
  171SAPE  C31519429   2.646   2.160   8.205  0.9165  1.0469 -0.8237
  171SAPE  H15X19430   2.561   2.091   8.185  0.8674  1.0641 -0.6697
  171SAPE  H15Y19431   2.590   2.255   8.215  0.6653  0.6158  2.2870
  171SAPE  C31619432   2.707   2.112   8.337  0.4438 -0.3348 -0.5773
  171SAPE  H16X19433   2.796   2.176   8.358 -2.2625  2.4610  3.1427
  171SAPE  H16Y19434   2.764   2.020   8.313 -0.5991 -0.5224 -2.3979
  171SAPE  C31719435   2.620   2.098   8.469 -0.1153 -0.0635  0.0721
  171SAPE  H17X19436   2.687   2.116   8.556 -1.3887 -1.4484  1.3643
  171SAPE  H17Y19437   2.572   1.998   8.464 -2.0144  0.9110 -3.5149
  171SAPE  C31819438   2.514   2.215   8.487  0.7553  0.3361 -0.3264
  171SAPE  H18X19439   2.440   2.213   8.404  0.4519  1.5362 -0.0955
  171SAPE  H18Y19440   2.549   2.319   8.500  0.5989  0.3730 -0.1974
  171SAPE  H18Z19441   2.449   2.197   8.575 -0.4523  0.4858 -1.1633
  172SAPE     N19442   2.321   0.573   6.313 -0.5183  0.1127  0.0966
  172SAPE   HN119443   2.233   0.584   6.367 -1.4312  1.0434 -1.5453
  172SAPE   HN219444   2.298   0.598   6.215 -1.8708 -2.3620 -0.2369
  172SAPE   HN319445   2.357   0.476   6.321 -0.4398  0.2076  0.9360
  172SAPE   C1219446   2.412   0.669   6.385 -0.0375  0.0296 -0.5907
  172SAPE  H12A19447   2.450   0.618   6.476  1.0615 -0.3725 -1.2635
  172SAPE  H12B19448   2.355   0.763   6.402 -0.9741 -0.6237 -0.0917
  172SAPE   C1119449   2.539   0.705   6.309 -0.5263 -0.2549 -0.4745
  172SAPE  H11A19450   2.592   0.609   6.287 -1.8348 -0.6644 -1.9335
  172SAPE  H11B19451   2.599   0.763   6.382 -0.8331  1.4826 -1.5773
  172SAPE     P19452   2.512   0.934   6.175 -0.2032 -0.1367 -0.2579
  172SAPE   O1319453   2.645   0.984   6.140  0.6293  0.1371 -0.1264
  172SAPE   O1419454   2.406   0.992   6.093  0.1909  0.4875 -0.3828
  172SAPE   O1219455   2.513   0.771   6.182 -0.0591  0.0811  0.2738
  172SAPE   O1119456   2.478   0.973   6.328 -0.2055  0.4656  0.5169
  172SAPE    C119457   2.446   1.105   6.368  0.3767  0.1147  0.3287
  172SAPE    HA19458   2.538   1.163   6.393  0.3227  0.4725 -0.3055
  172SAPE    HB19459   2.385   1.164   6.297  0.2320  0.6507  0.8947
  172SAPE    C219460   2.371   1.108   6.499  0.6734 -0.6906 -0.5413
  172SAPE    HS19461   2.336   1.213   6.513  1.6458 -0.4988  0.4194
  172SAPE   O2119462   2.451   1.058   6.605 -0.4023 -0.3805 -0.6914
  172SAPE   C2119463   2.437   1.120   6.726  0.0377  0.0374  0.7464
  172SAPE   O2219464   2.362   1.209   6.755  0.9067  0.2469  0.1330
  172SAPE   C2219465   2.551   1.063   6.811  0.2684  0.2332  0.2345
  172SAPE   H2R19466   2.646   1.050   6.756  0.3201 -1.7542  0.7414
  172SAPE   H2S19467   2.560   1.132   6.898 -0.6866 -0.9943  1.3511
  172SAPE    C319468   2.238   1.033   6.484  0.0345  0.1849  0.0447
  172SAPE    HX19469   2.266   0.927   6.464 -2.2620 -0.4779  0.1313
  172SAPE    HY19470   2.186   1.078   6.397  0.1663  0.4289  0.0925
  172SAPE   O3119471   2.155   1.042   6.604  0.5010 -0.7875  0.5386
  172SAPE   C3119472   2.043   0.958   6.606 -0.6156  0.0663 -0.4300
  172SAPE   O3219473   2.002   0.899   6.508  0.8607  0.0215  0.2747
  172SAPE   C3219474   1.982   0.952   6.753  0.2374 -0.0122 -0.0796
  172SAPE   H2X19475   1.956   1.059   6.772 -0.9564 -0.4636  0.8862
  172SAPE   H2Y19476   2.068   0.919   6.816 -0.6767 -1.2200  0.5476
  172SAPE   C2319477   2.514   0.923   6.868 -0.2611 -0.0416 -0.0565
  172SAPE   H3R19478   2.593   0.880   6.932 -0.0755  1.3229  0.6432
  172SAPE   H3S19479   2.500   0.858   6.778  0.5909  0.4680 -0.5656
  172SAPE   C2419480   2.379   0.916   6.939 -0.0626  0.4244  0.2816
  172SAPE   H4R19481   2.299   0.953   6.871 -0.2908  2.0383  1.3910
  172SAPE   H4S19482   2.382   0.975   7.033  1.8880  3.0775 -1.3882
  172SAPE   C2519483   2.343   0.773   6.974 -0.6084 -0.1755  0.3035
  172SAPE   H5R19484   2.308   0.705   6.895 -0.2169 -1.3369  1.1041
  172SAPE   C2619485   2.380   0.710   7.088 -0.8840  0.1352 -0.4063
  172SAPE   H6R19486   2.374   0.600   7.094  1.4774 -0.0123 -0.2625
  172SAPE   C2719487   2.435   0.792   7.202  1.3235 -0.4284  0.2935
  172SAPE   H7R19488   2.354   0.855   7.244  1.5343 -1.7046  2.7184
  172SAPE   H7S19489   2.513   0.861   7.163  0.8359 -1.3756 -2.4426
  172SAPE   C2819490   2.483   0.685   7.302 -0.2561 -0.2596 -1.3550
  172SAPE   H8R19491   2.555   0.608   7.270 -1.2397 -1.1416 -1.4607
  172SAPE   C2919492   2.457   0.683   7.436 -0.3942 -0.3755 -0.4653
  172SAPE   H9R19493   2.503   0.602   7.494  3.8764 -0.5675 -3.8415
  172SAPE  C21019494   2.366   0.773   7.512  0.2116 -0.3859  0.6201
  172SAPE  H10R19495   2.334   0.727   7.608 -2.2120  1.3368  0.6860
  172SAPE  H10S19496   2.266   0.781   7.465  1.3479 -0.2911 -1.8287
  172SAPE  C21119497   2.426   0.901   7.550  0.1159 -0.0650  0.8535
  172SAPE  H11R19498   2.427   0.983   7.477  1.0082 -0.3719  0.5119
  172SAPE  C21219499   2.494   0.936   7.661  0.0250  0.9201 -0.2004
  172SAPE  H12R19500   2.535   1.036   7.680 -0.5285  0.8319  1.5225
  172SAPE  C21319501   2.498   0.848   7.786 -1.1465 -0.2238  0.1135
  172SAPE  H13R19502   2.397   0.805   7.804 -0.2496 -2.7678 -0.6981
  172SAPE  H13S19503   2.512   0.912   7.876  0.7178 -1.2715  0.6003
  172SAPE  C21419504   2.582   0.724   7.792  0.5445  0.7225  0.1219
  172SAPE  H14R19505   2.659   0.724   7.713 -1.5334  1.1749 -1.9531
  172SAPE  C21519506   2.577   0.619   7.872  0.1575  0.6171 -0.3819
  172SAPE  H15R19507   2.658   0.545   7.866 -1.2642 -0.8754 -2.1239
  172SAPE  C21619508   2.468   0.599   7.979  0.6914  0.6263 -0.3205
  172SAPE  H16R19509   2.441   0.491   7.984  0.8170  0.5247 -1.6652
  172SAPE  H16S19510   2.373   0.651   7.953  0.6142  0.3047 -0.6841
  172SAPE  C21719511   2.512   0.642   8.122 -0.1155 -0.1663 -0.6142
  172SAPE  H17R19512   2.621   0.624   8.138 -0.6519 -2.5650  0.5753
  172SAPE  H17S19513   2.468   0.571   8.195 -1.0995  0.4723 -0.5719
  172SAPE  C21819514   2.473   0.788   8.144 -0.1816  0.0132 -0.2243
  172SAPE  H18R19515   2.363   0.805   8.149 -0.5250 -1.5353 -1.9700
  172SAPE  H18S19516   2.524   0.849   8.067  1.2775 -0.8625  0.0240
  172SAPE  C21919517   2.526   0.836   8.277  0.0593  0.2128 -0.2942
  172SAPE  H19R19518   2.633   0.806   8.285 -0.6879 -2.4105  0.3741
  172SAPE  H19S19519   2.492   0.772   8.361  1.5986 -1.4107 -0.8785
  172SAPE  C22019520   2.502   0.979   8.310  0.1140  0.7378 -0.6212
  172SAPE  H20R19521   2.399   1.011   8.283  0.5534  4.4621  1.7398
  172SAPE  H20S19522   2.569   1.047   8.254 -1.6411  1.0432 -2.4032
  172SAPE  H20T19523   2.521   0.990   8.419  0.2035  1.4188 -0.7045
  172SAPE   C3319524   1.858   0.871   6.776 -0.2297  0.4994  0.2651
  172SAPE   H3X19525   1.873   0.762   6.757 -2.2137  0.1432  0.6052
  172SAPE   H3Y19526   1.780   0.906   6.705 -1.2591  1.9781  2.0694
  172SAPE   C3419527   1.800   0.891   6.921 -0.0155  0.1430  0.7097
  172SAPE   H4X19528   1.713   0.822   6.924 -0.5553  0.6939 -1.1395
  172SAPE   H4Y19529   1.772   0.998   6.932  0.0103  0.2637 -0.3446
  172SAPE   C3519530   1.892   0.856   7.041 -0.0555 -0.6492 -1.4707
  172SAPE   H5X19531   1.993   0.900   7.024  0.2444 -1.0422 -0.7291
  172SAPE   H5Y19532   1.903   0.746   7.044 -1.0360 -0.7366 -1.0668
  172SAPE   C3619533   1.841   0.908   7.181  0.4198  0.1970 -0.4583
  172SAPE   H6X19534   1.743   0.869   7.215  0.6392  1.0053  1.1169
  172SAPE   H6Y19535   1.828   1.018   7.170 -1.3839  0.0760  0.3640
  172SAPE   C3719536   1.943   0.867   7.293  0.6617 -0.0496 -0.2104
  172SAPE   H7X19537   2.031   0.934   7.298  0.2705  0.3396  1.4674
  172SAPE   H7Y19538   1.970   0.761   7.272 -0.3232 -0.2863 -0.3049
  172SAPE   C3819539   1.888   0.863   7.442  0.0635 -0.2518  0.3771
  172SAPE   H8X19540   1.816   0.781   7.462  0.1024  0.1160  2.0882
  172SAPE   H8Y19541   1.832   0.957   7.460 -2.4074 -1.5378 -0.3337
  172SAPE   C3919542   2.001   0.850   7.554  0.9484  0.0336 -0.3532
  172SAPE   H9X19543   2.100   0.889   7.522  0.0116  2.6715 -0.1389
  172SAPE   H9Y19544   2.006   0.739   7.551  0.9853  0.0615 -2.2802
  172SAPE  C31019545   1.977   0.921   7.686  0.2952  0.4396 -0.7454
  172SAPE  H10X19546   1.934   1.023   7.674 -0.5875  0.0353 -1.0379
  172SAPE  H10Y19547   2.078   0.934   7.732  0.1894 -0.6196 -0.2083
  172SAPE  C31119548   1.877   0.853   7.782 -0.2860 -0.4018  0.5776
  172SAPE  H11X19549   1.939   0.763   7.800  0.6542 -0.0133 -0.5973
  172SAPE  H11Y19550   1.787   0.819   7.727  1.0074  0.7849 -2.4417
  172SAPE  C31219551   1.842   0.911   7.919 -0.1332  0.1178 -0.1387
  172SAPE  H12X19552   1.794   0.828   7.975 -2.8779  3.2609  2.3393
  172SAPE  H12Y19553   1.772   0.994   7.898 -0.2559 -0.5922 -2.7997
  172SAPE  C31319554   1.957   0.955   7.996  0.3163  0.3787 -0.4101
  172SAPE  H13X19555   1.997   1.049   7.951 -1.2586  0.9430 -0.6920
  172SAPE  H13Y19556   2.023   0.866   7.995  0.5203  0.4724  2.5172
  172SAPE  C31419557   1.913   0.970   8.147 -0.5268 -0.0922 -0.0512
  172SAPE  H14X19558   1.855   0.883   8.187  1.6215 -0.8118  1.5922
  172SAPE  H14Y19559   1.839   1.053   8.149 -1.9309 -1.3250  2.1643
  172SAPE  C31519560   2.024   1.008   8.232  0.6221 -0.2970 -0.7072
  172SAPE  H15X19561   2.074   1.096   8.185  1.1163 -0.2942 -0.1718
  172SAPE  H15Y19562   2.102   0.929   8.231 -0.8743 -1.8132 -0.4296
  172SAPE  C31619563   1.986   1.030   8.377  0.1352 -0.4828  0.5821
  172SAPE  H16X19564   1.915   1.116   8.379 -1.2217 -1.5625  0.0289
  172SAPE  H16Y19565   2.077   1.080   8.417 -0.9530  2.4473 -0.3994
  172SAPE  C31719566   1.936   0.908   8.462  0.5458 -0.3552  0.4880
  172SAPE  H17X19567   1.830   0.891   8.434  0.4668  0.9278 -0.0444
  172SAPE  H17Y19568   1.947   0.944   8.567 -0.2139  4.2995 -0.9014
  172SAPE  C31819569   2.001   0.774   8.433 -0.7279 -0.6214 -0.1838
  172SAPE  H18X19570   1.948   0.687   8.479  0.5441 -1.7120 -0.7588
  172SAPE  H18Y19571   2.105   0.772   8.472 -1.0675  0.8944  0.8478
  172SAPE  H18Z19572   1.994   0.756   8.324  3.9784 -0.2043 -0.6309
  173SOPE     N19573   2.784   4.623  11.094  0.5698 -0.1187  0.4810
  173SOPE   HN119574   2.801   4.590  11.191 -0.3480  0.8562  0.9837
  173SOPE   HN219575   2.837   4.564  11.027  1.7678  1.1964  0.2564
  173SOPE   HN319576   2.816   4.719  11.071  1.1158 -0.1696  1.0077
  173SOPE   C1219577   2.648   4.605  11.056 -0.3427  0.4297  0.3098
  173SOPE  H12A19578   2.587   4.532  11.112  0.0446 -1.8301 -2.1224
  173SOPE  H12B19579   2.656   4.580  10.948 -0.6283 -0.0709  0.4044
  173SOPE   C1119580   2.569   4.738  11.069 -0.3334 -0.0056  0.4779
  173SOPE  H11A19581   2.562   4.750  11.179 -0.6873 -2.7421  0.8028
  173SOPE  H11B19582   2.470   4.718  11.023 -2.2603  1.6783  3.7239
  173SOPE     P19583   2.580   4.988  10.991 -0.3888  0.2874  0.4254
  173SOPE   O1319584   2.671   5.081  11.053 -0.4439  0.1713 -0.4273
  173SOPE   O1419585   2.444   4.994  11.048 -0.0379 -0.2525  0.1427
  173SOPE   O1219586   2.640   4.841  11.009  0.5076 -0.2159 -0.4873
  173SOPE   O1119587   2.580   5.016  10.843 -0.8305  0.8382  0.1586
  173SOPE    C119588   2.606   4.909  10.745 -0.0960  0.8733  0.1388
  173SOPE    HA19589   2.624   4.810  10.793  2.0043  0.0430 -2.2637
  173SOPE    HB19590   2.705   4.921  10.695  0.1739  0.4063  0.5542
  173SOPE    C219591   2.503   4.883  10.631  0.0604  0.7013 -0.8679
  173SOPE    HS19592   2.512   4.782  10.588 -1.8519  0.6148 -1.1286
  173SOPE   O2119593   2.530   4.991  10.540  0.2205 -0.0647 -0.2917
  173SOPE   C2119594   2.621   4.959  10.449  0.2854 -0.2928 -0.2251
  173SOPE   O2219595   2.655   4.846  10.417  0.1518  0.0166  0.4856
  173SOPE   C2219596   2.680   5.082  10.382  0.1121  0.4588 -0.6410
  173SOPE   H2R19597   2.737   5.038  10.298  0.4280 -1.2730  0.4637
  173SOPE   H2S19598   2.748   5.132  10.454 -0.1793 -1.5108  1.0482
  173SOPE    C319599   2.364   4.895  10.689  0.2032 -0.1500  0.2633
  173SOPE    HX19600   2.355   4.993  10.742  2.4156 -0.4393  1.2442
  173SOPE    HY19601   2.354   4.813  10.763  0.1881 -0.6594 -0.2968
  173SOPE   O3119602   2.263   4.864  10.579  0.3712 -0.3323 -0.4536
  173SOPE   C3119603   2.216   4.978  10.533  0.4343 -0.3625 -0.4355
  173SOPE   O3219604   2.244   5.086  10.587 -0.2951  0.8346  0.4560
  173SOPE   C3219605   2.135   4.950  10.406 -0.0238 -0.4313  0.4389
  173SOPE   H2X19606   2.113   5.049  10.361  0.2889 -0.7522 -0.4190
  173SOPE   H2Y19607   2.038   4.901  10.429 -0.6539  0.1254 -1.0092
  173SOPE   C2319608   2.565   5.168  10.325 -0.2115 -0.5475  0.1640
  173SOPE   H3R19609   2.594   5.272  10.299 -1.5893  0.0849  1.1050
  173SOPE   H3S19610   2.489   5.178  10.405 -1.0307  2.5286 -0.9103
  173SOPE   C2419611   2.503   5.107  10.196  0.3396 -0.1057  0.5324
  173SOPE   H4R19612   2.478   4.999  10.203  0.5421 -0.1325  0.8340
  173SOPE   H4S19613   2.414   5.169  10.173  2.0670  1.2931 -2.5925
  173SOPE   C2519614   2.597   5.125  10.070  0.1454  0.4479 -0.1744
  173SOPE   H5R19615   2.615   5.234  10.060  0.5433  0.4709  0.7940
  173SOPE   H5S19616   2.689   5.065  10.086  0.1418  0.4975  0.0339
  173SOPE   C2619617   2.516   5.085   9.944  0.3076 -0.3892 -0.5582
  173SOPE   H6R19618   2.466   4.986   9.951  1.9558 -1.1762  0.5716
  173SOPE   H6S19619   2.436   5.161   9.938  0.4795  0.0841  2.3065
  173SOPE   C2719620   2.584   5.099   9.806  0.0447 -0.2400 -0.3287
  173SOPE   H7R19621   2.653   5.186   9.805 -2.1414  1.5658  1.1558
  173SOPE   H7S19622   2.654   5.014   9.821  0.0048  0.1186  2.0834
  173SOPE   C2819623   2.496   5.084   9.680 -0.2005  0.0828 -0.1898
  173SOPE   H8R19624   2.419   5.006   9.692 -0.9078  0.7479 -0.3313
  173SOPE   H8S19625   2.451   5.186   9.680 -1.8248 -0.6155 -0.7049
  173SOPE   C2919626   2.573   5.065   9.553  0.0628 -0.2834 -0.5404
  173SOPE   H9119627   2.669   5.119   9.545  0.3352 -0.8467 -1.1301
  173SOPE  C21019628   2.545   4.994   9.444 -0.6418  0.1994 -0.7955
  173SOPE  H10119629   2.602   5.022   9.354 -1.2233 -1.1401 -1.5902
  173SOPE  C21119630   2.415   4.918   9.422 -0.0530 -0.3189 -0.1063
  173SOPE  H11R19631   2.383   4.965   9.326  1.1379  0.3960 -0.1717
  173SOPE  H11S19632   2.347   4.938   9.507 -0.3406  0.7568 -0.5853
  173SOPE  C21219633   2.438   4.768   9.396  0.8606 -0.0676  0.5090
  173SOPE  H12R19634   2.340   4.717   9.398 -0.1030  1.7521  0.6934
  173SOPE  H12S19635   2.487   4.733   9.489 -2.3251 -2.1534  1.4789
  173SOPE  C21319636   2.514   4.732   9.269  0.0281  0.8700  0.3119
  173SOPE  H13R19637   2.592   4.809   9.255  0.4748  0.5729  1.1934
  173SOPE  H13S19638   2.457   4.740   9.173  0.7945  1.3629 -0.1071
  173SOPE  C21419639   2.575   4.594   9.270 -0.4687  1.5008  0.6573
  173SOPE  H14R19640   2.502   4.516   9.300  2.1066 -2.5393 -2.9992
  173SOPE  H14S19641   2.671   4.593   9.326  0.6693  0.8964 -1.2630
  173SOPE  C21519642   2.617   4.556   9.129  0.3265  0.0875 -0.3643
  173SOPE  H15R19643   2.651   4.651   9.082 -2.3373  1.2671  0.0417
  173SOPE  H15S19644   2.523   4.526   9.079 -2.1594  2.9059  2.4398
  173SOPE  C21619645   2.718   4.442   9.123 -0.0892  0.0388 -0.2708
  173SOPE  H16R19646   2.698   4.344   9.171  3.6883 -1.1880 -1.0083
  173SOPE  H16S19647   2.816   4.482   9.159 -0.3180  1.0052 -0.7025
  173SOPE  C21719648   2.732   4.405   8.975  0.0204 -0.7725 -1.0864
  173SOPE  H17R19649   2.771   4.496   8.925  0.1086  0.2876  0.8610
  173SOPE  H17S19650   2.637   4.370   8.929 -0.8408  0.5072 -0.2964
  173SOPE  C21819651   2.840   4.298   8.947  0.1022  0.4636  0.3292
  173SOPE  H18R19652   2.936   4.318   8.999  0.5607 -1.3342  0.2143
  173SOPE  H18S19653   2.864   4.295   8.839 -0.7436  1.2582  0.1162
  173SOPE  H18T19654   2.800   4.195   8.957 -0.0906  0.5645  0.6278
  173SOPE   C3319655   2.206   4.865  10.301 -0.2876  0.8776 -0.2108
  173SOPE   H3X19656   2.225   4.763  10.340 -0.0383  0.0004 -2.5914
  173SOPE   H3Y19657   2.301   4.918  10.280 -0.3860  0.9512 -0.4751
  173SOPE   C3419658   2.135   4.860  10.157 -0.3581  0.6548 -0.5933
  173SOPE   H4X19659   2.140   4.965  10.122 -0.4054  0.4010 -1.3802
  173SOPE   H4Y19660   2.030   4.823  10.158  0.7747 -2.7173 -1.2014
  173SOPE   C3519661   2.227   4.777  10.068 -0.1997  0.0882 -0.5186
  173SOPE   H5X19662   2.249   4.678  10.113 -1.5102  0.3672  0.7647
  173SOPE   H5Y19663   2.331   4.817  10.061 -0.0460 -0.0046  1.0359
  173SOPE   C3619664   2.182   4.769   9.924  0.0731 -0.5874  0.5859
  173SOPE   H6X19665   2.174   4.865   9.868 -0.5074  0.0248  1.7027
  173SOPE   H6Y19666   2.077   4.735   9.929  0.7684 -2.5397  2.3893
  173SOPE   C3719667   2.271   4.668   9.850 -1.0377 -0.0536  1.0536
  173SOPE   H7X19668   2.258   4.562   9.881  2.7493 -1.0980 -0.7105
  173SOPE   H7Y19669   2.374   4.696   9.881 -0.6800 -0.3196  0.0946
  173SOPE   C3819670   2.254   4.666   9.698  0.0520 -0.0485  0.2208
  173SOPE   H8X19671   2.350   4.621   9.664  0.0929 -1.1439  1.7330
  173SOPE   H8Y19672   2.260   4.767   9.652 -0.7554  0.3177  0.9199
  173SOPE   C3919673   2.127   4.584   9.648  0.0040 -0.0575 -0.3035
  173SOPE   H9X19674   2.030   4.633   9.669 -0.6028 -1.3436 -0.0721
  173SOPE   H9Y19675   2.128   4.488   9.705  2.7697 -0.0092 -0.1712
  173SOPE  C31019676   2.127   4.574   9.502  1.1413 -1.2093  0.7115
  173SOPE  H10X19677   2.156   4.670   9.455  0.3875 -2.2092 -1.9050
  173SOPE  H10Y19678   2.021   4.567   9.471  0.1649  0.8872  3.3978
  173SOPE  C31119679   2.204   4.454   9.449 -0.0748  0.1971  0.0275
  173SOPE  H11X19680   2.164   4.363   9.500 -0.1616  0.8817  1.1944
  173SOPE  H11Y19681   2.308   4.475   9.480  0.0292 -1.1363  0.6671
  173SOPE  C31219682   2.202   4.431   9.296  0.1183 -1.0520  0.4996
  173SOPE  H12X19683   2.236   4.527   9.251 -4.0433 -0.1190 -0.8903
  173SOPE  H12Y19684   2.101   4.414   9.255  0.6724 -2.8202 -0.1926
  173SOPE  C31319685   2.295   4.324   9.256 -0.1366 -0.2179  0.4486
  173SOPE  H13X19686   2.265   4.225   9.299 -1.5234  1.4212  3.4328
  173SOPE  H13Y19687   2.400   4.343   9.287 -0.6608  1.2039  1.4048
  173SOPE  C31419688   2.301   4.281   9.106  0.3529 -1.1469  0.2964
  173SOPE  H14X19689   2.381   4.333   9.048 -0.0612 -0.2338  0.5280
  173SOPE  H14Y19690   2.207   4.309   9.054  2.3747 -1.2643 -3.6217
  173SOPE  C31519691   2.336   4.135   9.088  0.4311 -0.3474  0.1697
  173SOPE  H15X19692   2.267   4.071   9.148 -0.5039  2.5475  2.2742
  173SOPE  H15Y19693   2.437   4.112   9.128  0.1237  2.4987  2.7656
  173SOPE  C31619694   2.344   4.089   8.946 -0.5979 -0.0105  0.2280
  173SOPE  H16X19695   2.406   4.161   8.891  0.1718  0.4868  1.7110
  173SOPE  H16Y19696   2.246   4.102   8.896 -0.7667  1.2763  0.8876
  173SOPE  C31719697   2.413   3.954   8.925 -0.5213  0.3133  0.2099
  173SOPE  H17X19698   2.398   3.940   8.815  0.6191  2.0743 -0.1919
  173SOPE  H17Y19699   2.362   3.868   8.973  0.5781  0.2188  1.2486
  173SOPE  C31819700   2.561   3.942   8.961 -0.0835 -0.3399  0.1257
  173SOPE  H18X19701   2.564   3.935   9.072  0.0503  0.6412  0.1881
  173SOPE  H18Y19702   2.616   4.030   8.922 -1.3732  1.1606  1.6210
  173SOPE  H18Z19703   2.592   3.844   8.917 -1.0453 -0.4199 -0.4036
  174SOPE     N19704   1.668   4.597  10.805  0.7627 -0.1623  0.6607
  174SOPE   HN119705   1.719   4.572  10.892  0.0849 -0.4994  0.9676
  174SOPE   HN219706   1.738   4.649  10.749 -0.6472  0.9232 -0.1369
  174SOPE   HN319707   1.575   4.641  10.822  1.4707  1.9586 -0.7189
  174SOPE   C1219708   1.616   4.462  10.737  0.0529  0.5383  0.2346
  174SOPE  H12A19709   1.532   4.480  10.667 -0.5583  0.1116  0.8573
  174SOPE  H12B19710   1.575   4.412  10.827 -0.8035  0.5973 -0.1204
  174SOPE   C1119711   1.738   4.394  10.666  0.1609  0.1685  0.0623
  174SOPE  H11A19712   1.741   4.447  10.568  1.0322  1.8971  0.9864
  174SOPE  H11B19713   1.724   4.297  10.615 -0.7876 -0.1360  0.8862
  174SOPE     P19714   1.935   4.299  10.804 -0.2295  0.1838 -0.2541
  174SOPE   O1319715   1.829   4.211  10.855  0.4507  0.2523 -0.5427
  174SOPE   O1419716   2.032   4.357  10.899 -0.3991 -0.9433  0.2949
  174SOPE   O1219717   1.862   4.418  10.732  0.2782 -0.3766  0.4225
  174SOPE   O1119718   2.007   4.221  10.689 -0.6656  0.3405 -0.8671
  174SOPE    C119719   2.128   4.269  10.627 -0.2973 -0.2530  0.0051
  174SOPE    HA19720   2.174   4.187  10.567  0.1725 -1.0572  1.4408
  174SOPE    HB19721   2.210   4.293  10.699 -0.8277 -0.2378  0.6011
  174SOPE    C219722   2.110   4.384  10.525 -0.6379  0.0524  0.7406
  174SOPE    HS19723   2.069   4.468  10.584  0.4589  2.7718 -2.2013
  174SOPE   O2119724   2.016   4.343  10.426  0.0160 -0.4043 -0.3320
  174SOPE   C2119725   1.973   4.447  10.354 -0.5721  0.4958 -0.3962
  174SOPE   O2219726   1.995   4.563  10.383 -0.7151  0.1181  0.2121
  174SOPE   C2219727   1.889   4.405  10.233  0.7400  0.2580 -0.2026
  174SOPE   H2R19728   1.830   4.494  10.202 -0.9482 -0.4867  0.8080
  174SOPE   H2S19729   1.824   4.320  10.264  0.5475  0.0907 -1.0507
  174SOPE    C319730   2.245   4.435  10.467 -0.1440  0.1981 -0.0423
  174SOPE    HX19731   2.314   4.451  10.552  1.1369 -3.3313 -0.3299
  174SOPE    HY19732   2.223   4.530  10.413  0.3852  0.0211 -0.5841
  174SOPE   O3119733   2.306   4.338  10.380  0.0592  0.4029 -0.6036
  174SOPE   C3119734   2.402   4.264  10.430  0.2967 -0.1236 -0.1501
  174SOPE   O3219735   2.440   4.262  10.545 -0.1292  0.0523 -0.2309
  174SOPE   C3219736   2.453   4.177  10.318 -0.4939  1.0326  0.1195
  174SOPE   H2X19737   2.548   4.128  10.348 -1.7815 -0.1358  2.4594
  174SOPE   H2Y19738   2.476   4.238  10.228  0.4420  1.8319  0.8791
  174SOPE   C2319739   1.972   4.348  10.115  0.8467 -0.3071 -0.0238
  174SOPE   H3R19740   1.909   4.289  10.046  0.2244  0.2820  0.0285
  174SOPE   H3S19741   2.063   4.288  10.137  1.9992  1.5231  0.3715
  174SOPE   C2419742   2.009   4.468  10.016  0.0534  0.3698 -0.0101
  174SOPE   H4R19743   2.048   4.547  10.084 -0.2268 -0.1357  0.7376
  174SOPE   H4S19744   2.090   4.437   9.946  2.9198  2.8302  2.0907
  174SOPE   C2519745   1.890   4.504   9.930 -0.1598 -0.3828  0.4901
  174SOPE   H5R19746   1.807   4.543   9.993  1.1666  2.9016  0.2774
  174SOPE   H5S19747   1.934   4.591   9.878  0.1151 -1.5346 -1.2392
  174SOPE   C2619748   1.848   4.403   9.812 -0.2705 -0.8235 -0.0896
  174SOPE   H6R19749   1.941   4.398   9.750  0.9390  0.7415  1.5609
  174SOPE   H6S19750   1.836   4.307   9.866 -1.0126  0.6760  2.4774
  174SOPE   C2719751   1.726   4.440   9.738  0.1955  0.7559 -0.0467
  174SOPE   H7R19752   1.633   4.430   9.798  0.8011  1.5332  1.0332
  174SOPE   H7S19753   1.738   4.548   9.719 -2.2028  1.1155  0.3070
  174SOPE   C2819754   1.702   4.357   9.612  0.2028 -0.0445 -0.9751
  174SOPE   H8R19755   1.689   4.250   9.640  1.2421 -0.0468 -0.4520
  174SOPE   H8S19756   1.605   4.391   9.571  1.4298  2.7503 -1.6486
  174SOPE   C2919757   1.803   4.390   9.506 -0.1780  0.0985 -0.4196
  174SOPE   H9119758   1.794   4.488   9.457 -0.8177  0.7678  1.0418
  174SOPE  C21019759   1.878   4.292   9.459  0.0919  0.0617  0.3006
  174SOPE  H10119760   1.958   4.313   9.387  0.5765 -0.7883  0.5944
  174SOPE  C21119761   1.872   4.141   9.496 -0.1281 -0.0543  0.6377
  174SOPE  H11R19762   1.857   4.123   9.605  2.0153 -1.5412  0.7002
  174SOPE  H11S19763   1.970   4.090   9.483  0.4818  1.6382 -1.6906
  174SOPE  C21219764   1.752   4.075   9.417 -1.0141  0.7822  0.1740
  174SOPE  H12R19765   1.653   4.110   9.454 -0.3109  2.5092  0.4901
  174SOPE  H12S19766   1.760   3.966   9.436  0.0800  0.4147 -2.2173
  174SOPE  C21319767   1.755   4.082   9.259  1.0166  0.5541 -0.4678
  174SOPE  H13R19768   1.750   4.186   9.222  0.4155  0.2347 -1.3144
  174SOPE  H13S19769   1.656   4.044   9.223  0.4386  1.8403 -0.2733
  174SOPE  C21419770   1.862   4.004   9.188 -0.2509  0.4163  0.6491
  174SOPE  H14R19771   1.856   3.895   9.211 -1.0411 -0.1527 -1.9925
  174SOPE  H14S19772   1.967   4.036   9.205 -0.5666  1.4627  0.6087
  174SOPE  C21519773   1.847   4.024   9.035  0.4982  0.1270  0.4855
  174SOPE  H15R19774   1.827   4.133   9.023 -2.4035 -0.5155 -0.8199
  174SOPE  H15S19775   1.757   3.965   9.009 -0.9145  1.1503  2.9342
  174SOPE  C21619776   1.956   3.971   8.957  0.5174  0.0179  0.1832
  174SOPE  H16R19777   1.950   3.862   8.974 -2.5934  0.0877 -0.1287
  174SOPE  H16S19778   2.055   4.015   8.983  0.0842  1.6984 -0.9109
  174SOPE  C21719779   1.946   3.994   8.800 -0.6070  0.1210 -0.3512
  174SOPE  H17R19780   2.050   3.993   8.761 -1.2675 -0.2239 -2.1050
  174SOPE  H17S19781   1.891   4.089   8.781  0.7931  1.5619  2.3764
  174SOPE  C21819782   1.881   3.882   8.727  0.9546  0.1696 -0.1838
  174SOPE  H18R19783   1.856   3.920   8.625 -2.9987  0.3935  0.7760
  174SOPE  H18S19784   1.781   3.859   8.770  0.8385 -3.8510 -2.3203
  174SOPE  H18T19785   1.942   3.789   8.725 -1.8677 -1.7353 -0.5579
  174SOPE   C3319786   2.355   4.080  10.270  0.7308 -0.0438 -0.9324
  174SOPE   H3X19787   2.254   4.097  10.314  0.8122  0.4035 -0.9120
  174SOPE   H3Y19788   2.385   3.977  10.298 -2.1306 -1.3048 -2.2849
  174SOPE   C3419789   2.339   4.087  10.118 -0.1246  0.0261 -0.2199
  174SOPE   H4X19790   2.434   4.046  10.077 -0.6188 -1.2008 -0.1547
  174SOPE   H4Y19791   2.318   4.193  10.095  1.3483  0.1368 -1.1007
  174SOPE   C3519792   2.218   3.995  10.069  0.2224  0.5974 -0.3574
  174SOPE   H5X19793   2.123   4.048  10.091  0.9549  1.3762  0.9753
  174SOPE   H5Y19794   2.214   3.899  10.125 -2.2626 -1.1033 -3.2623
  174SOPE   C3619795   2.222   3.969   9.917 -0.6965 -0.0148  0.7236
  174SOPE   H6X19796   2.145   3.894   9.889 -1.6237  1.2110 -0.0580
  174SOPE   H6Y19797   2.320   3.920   9.899 -1.5247 -0.9656 -1.3477
  174SOPE   C3719798   2.203   4.096   9.826  0.2964  0.3842 -0.6952
  174SOPE   H7X19799   2.273   4.181   9.843  0.7104  0.2097 -1.5300
  174SOPE   H7Y19800   2.102   4.127   9.859  0.6746 -0.3783  1.2590
  174SOPE   C3819801   2.198   4.051   9.684 -0.0434  0.6886 -0.5452
  174SOPE   H8X19802   2.146   4.124   9.620  0.3353 -0.0796 -1.7424
  174SOPE   H8Y19803   2.150   3.951   9.678 -0.8760  1.1446 -1.6523
  174SOPE   C3919804   2.332   4.027   9.622 -0.2592 -0.7662 -0.0547
  174SOPE   H9X19805   2.321   3.986   9.519  1.1219 -0.3956 -0.3699
  174SOPE   H9Y19806   2.382   3.949   9.684 -1.1088 -1.7146 -0.5340
  174SOPE  C31019807   2.414   4.165   9.616  0.4570 -0.2323 -0.0051
  174SOPE  H10X19808   2.414   4.227   9.708  3.2488 -0.0936 -0.0555
  174SOPE  H10Y19809   2.354   4.229   9.548 -0.6321 -1.2634 -0.0397
  174SOPE  C31119810   2.559   4.158   9.571 -0.2735  0.3391 -0.1449
  174SOPE  H11X19811   2.563   4.082   9.490  1.4969  1.1844 -0.8765
  174SOPE  H11Y19812   2.620   4.112   9.652  0.4458 -0.5980 -1.2015
  174SOPE  C31219813   2.607   4.296   9.525 -0.1724 -0.0292 -0.4240
  174SOPE  H12X19814   2.531   4.323   9.448 -2.3909 -0.5651  1.5253
  174SOPE  H12Y19815   2.706   4.304   9.475 -0.1998 -0.4571 -0.5442
  174SOPE  C31319816   2.592   4.408   9.627  0.1139 -0.0145  0.0991
  174SOPE  H13X19817   2.487   4.424   9.659 -0.1591 -1.3195 -0.1309
  174SOPE  H13Y19818   2.623   4.506   9.584  2.4923 -0.8352 -0.1058
  174SOPE  C31419819   2.674   4.390   9.759  0.1730  0.1690  0.7475
  174SOPE  H14X19820   2.781   4.411   9.737 -0.3051  1.5622 -0.3694
  174SOPE  H14Y19821   2.666   4.284   9.791 -2.8490  0.0420 -0.3470
  174SOPE  C31519822   2.613   4.478   9.870 -0.6532  0.0290  0.1718
  174SOPE  H15X19823   2.505   4.453   9.877 -0.6050 -0.0406  0.6783
  174SOPE  H15Y19824   2.621   4.583   9.834 -1.9461  0.5018  1.2483
  174SOPE  C31619825   2.668   4.452  10.009 -0.6009  0.2380 -0.5919
  174SOPE  H16X19826   2.775   4.480  10.022 -0.6809  0.4902 -0.4763
  174SOPE  H16Y19827   2.665   4.344  10.036 -1.0718 -0.1440 -2.1164
  174SOPE  C31719828   2.592   4.534  10.117 -0.5878  0.0100 -0.1276
  174SOPE  H17X19829   2.482   4.523  10.115 -0.7030  1.1560 -0.1286
  174SOPE  H17Y19830   2.601   4.641  10.090  0.2595 -0.0537 -0.1101
  174SOPE  C31819831   2.658   4.513  10.252  0.1941  0.0061 -0.6255
  174SOPE  H18X19832   2.769   4.517  10.257  0.1236  0.4537  0.9395
  174SOPE  H18Y19833   2.621   4.423  10.306  4.2744 -0.1982  2.0018
  174SOPE  H18Z19834   2.617   4.594  10.316 -1.1186  0.0409 -1.4895
  175SOPE     N19835   3.745   5.241  10.627  0.1893  0.6534  0.5360
  175SOPE   HN119836   3.738   5.146  10.669  1.5232 -0.0287 -0.7258
  175SOPE   HN219837   3.773   5.231  10.527  2.1586  4.7610  0.5370
  175SOPE   HN319838   3.805   5.302  10.686 -0.7809  1.2476  0.9261
  175SOPE   C1219839   3.623   5.331  10.614  0.1370 -0.4494  0.0825
  175SOPE  H12A19840   3.577   5.362  10.710 -0.3159 -0.2006 -0.2127
  175SOPE  H12B19841   3.547   5.271  10.560  0.1016 -0.3855  0.0624
  175SOPE   C1119842   3.659   5.464  10.528 -0.3969 -0.1923  0.0372
  175SOPE  H11A19843   3.562   5.510  10.500 -0.2622 -0.2282 -0.5051
  175SOPE  H11B19844   3.703   5.431  10.431 -0.5559 -2.6813  0.7686
  175SOPE     P19845   3.879   5.621  10.556 -0.0189 -0.4802 -0.0841
  175SOPE   O1319846   3.976   5.509  10.549  0.4900 -0.1523  0.3446
  175SOPE   O1419847   3.912   5.734  10.648  0.2137  0.5900 -0.5119
  175SOPE   O1219848   3.736   5.560  10.590 -0.4354  0.4463 -0.5998
  175SOPE   O1119849   3.860   5.678  10.411  0.1786  0.0816  0.2112
  175SOPE    C119850   3.772   5.786  10.390  0.0754  0.0463  0.4641
  175SOPE    HA19851   3.819   5.885  10.409  0.3883  0.3615 -1.8315
  175SOPE    HB19852   3.685   5.790  10.458  0.8103  0.5453  1.4022
  175SOPE    C219853   3.741   5.800  10.245 -0.1878 -0.1794 -0.1804
  175SOPE    HS19854   3.676   5.889  10.237 -0.6355 -0.5843 -1.1520
  175SOPE   O2119855   3.677   5.687  10.189  0.3857  0.0439  0.7304
  175SOPE   C2119856   3.559   5.655  10.227  0.0103 -0.1947 -0.1367
  175SOPE   O2219857   3.495   5.697  10.324 -0.3006 -0.2905 -0.5166
  175SOPE   C2219858   3.506   5.538  10.138 -0.1038 -0.0612  0.4627
  175SOPE   H2R19859   3.396   5.536  10.123  0.5142 -2.2760 -5.0569
  175SOPE   H2S19860   3.547   5.441  10.173 -0.7181 -0.7171 -0.6075
  175SOPE    C319861   3.857   5.830  10.147 -0.1668 -0.3242  0.1536
  175SOPE    HX19862   3.930   5.747  10.159 -0.6041 -0.6120  0.9109
  175SOPE    HY19863   3.906   5.918  10.194  2.6673 -1.2459 -0.9750
  175SOPE   O3119864   3.813   5.855  10.019  0.4231  0.1874  0.6121
  175SOPE   C3119865   3.873   5.775   9.926 -0.6061  0.2677 -0.0086
  175SOPE   O3219866   3.948   5.682   9.954 -0.1052  0.1770  0.0885
  175SOPE   C3219867   3.830   5.810   9.784  0.0239 -0.3466  0.4653
  175SOPE   H2X19868   3.878   5.910   9.789 -0.8875  0.2019 -1.1923
  175SOPE   H2Y19869   3.719   5.819   9.780 -0.3353 -3.8540  0.5686
  175SOPE   C2319870   3.575   5.560  10.000 -0.4031  0.1077  0.4561
  175SOPE   H3R19871   3.684   5.543  10.007 -0.3080  0.0221 -1.0674
  175SOPE   H3S19872   3.558   5.667   9.973  1.0532  0.1654 -0.2411
  175SOPE   C2419873   3.514   5.474   9.887  0.2054 -0.5272 -0.2335
  175SOPE   H4R19874   3.534   5.368   9.913 -0.7543 -0.4865  0.6985
  175SOPE   H4S19875   3.404   5.487   9.883  0.2909  0.9591  1.6231
  175SOPE   C2519876   3.569   5.508   9.747  0.3817  0.0384 -0.4075
  175SOPE   H5R19877   3.553   5.617   9.731  0.6405 -0.2386 -2.6874
  175SOPE   H5S19878   3.678   5.489   9.745  0.0129 -2.3803  0.3911
  175SOPE   C2619879   3.509   5.421   9.636 -0.6880 -0.2865 -0.3417
  175SOPE   H6R19880   3.546   5.317   9.648  0.9284  0.2848 -0.2838
  175SOPE   H6S19881   3.398   5.417   9.649 -0.5853 -1.9334  0.2268
  175SOPE   C2719882   3.549   5.472   9.494  0.6018  0.1418 -0.5090
  175SOPE   H7R19883   3.516   5.578   9.493 -2.6014 -0.7647  2.0725
  175SOPE   H7S19884   3.660   5.478   9.491  0.4518  2.3833 -4.0764
  175SOPE   C2819885   3.512   5.382   9.379  0.6071  0.1889  0.0089
  175SOPE   H8R19886   3.559   5.289   9.418 -0.6281 -0.4218  0.0592
  175SOPE   H8S19887   3.401   5.378   9.378  0.4947  2.2892  0.5872
  175SOPE   C2919888   3.562   5.428   9.238  0.8065 -0.4162 -0.1850
  175SOPE   H9119889   3.619   5.522   9.244  2.5108 -1.4443  0.1271
  175SOPE  C21019890   3.537   5.359   9.126 -0.1025  0.7529 -0.2686
  175SOPE  H10119891   3.584   5.395   9.034 -0.5632  2.0973  0.0162
  175SOPE  C21119892   3.455   5.228   9.118 -0.0369 -0.2282  0.0574
  175SOPE  H11R19893   3.423   5.197   9.220  2.6225  1.7213  1.5992
  175SOPE  H11S19894   3.510   5.142   9.075  0.7458 -0.3105  1.1691
  175SOPE  C21219895   3.320   5.252   9.034  1.1999  0.0927  0.8711
  175SOPE  H12R19896   3.275   5.350   9.061 -0.1373  0.2860 -1.9306
  175SOPE  H12S19897   3.263   5.161   9.060  3.5053 -1.0332  2.2242
  175SOPE  C21319898   3.368   5.266   8.887  1.0796 -0.0596  0.1030
  175SOPE  H13R19899   3.426   5.174   8.864  0.2151 -0.4880 -0.4414
  175SOPE  H13S19900   3.431   5.356   8.876  0.8865  0.1666  0.8617
  175SOPE  C21419901   3.241   5.291   8.797 -0.3544  0.5495  0.5796
  175SOPE  H14R19902   3.193   5.383   8.834  0.1808  0.1641  2.2854
  175SOPE  H14S19903   3.177   5.201   8.804 -0.4576  0.7837  2.8854
  175SOPE  C21519904   3.274   5.296   8.642  0.4396 -0.6490 -0.4303
  175SOPE  H15R19905   3.322   5.200   8.614  0.5386 -1.0005  0.9101
  175SOPE  H15S19906   3.350   5.377   8.636  1.5296 -1.5072  1.3323
  175SOPE  C21619907   3.149   5.315   8.548  0.0642  0.4974 -0.6168
  175SOPE  H16R19908   3.129   5.423   8.565 -1.6666  0.1663 -0.4915
  175SOPE  H16S19909   3.065   5.262   8.598 -0.5435  1.3244 -0.7460
  175SOPE  C21719910   3.184   5.302   8.395 -0.1925 -0.5336  0.3112
  175SOPE  H17R19911   3.176   5.196   8.364 -0.4201  0.1419 -1.9773
  175SOPE  H17S19912   3.291   5.325   8.376 -0.5883 -1.1051 -2.8683
  175SOPE  C21819913   3.091   5.380   8.305  0.0270 -0.0878 -0.1083
  175SOPE  H18R19914   3.106   5.490   8.308 -0.2944 -0.0777  1.4593
  175SOPE  H18S19915   2.982   5.363   8.319  0.3580 -1.6553  0.6531
  175SOPE  H18T19916   3.108   5.349   8.199 -1.7418 -1.6476  0.0326
  175SOPE   C3319917   3.890   5.723   9.670  0.0733 -0.1907 -0.0548
  175SOPE   H3X19918   3.868   5.616   9.688  1.3285 -0.2318  1.3752
  175SOPE   H3Y19919   4.001   5.719   9.668  0.1389  0.9047  0.8636
  175SOPE   C3419920   3.826   5.772   9.539  0.0684  0.0134 -0.0572
  175SOPE   H4X19921   3.809   5.881   9.539  0.4331  0.1189  3.8997
  175SOPE   H4Y19922   3.736   5.707   9.531 -0.8201  0.7725  3.2313
  175SOPE   C3519923   3.912   5.728   9.420 -0.3341 -0.5710 -0.1484
  175SOPE   H5X19924   3.951   5.625   9.438  2.1619  0.2091 -0.8881
  175SOPE   H5Y19925   4.000   5.796   9.411  2.7081 -3.9570  2.2051
  175SOPE   C3619926   3.828   5.727   9.286 -0.7499 -0.4672  0.3172
  175SOPE   H6X19927   3.797   5.828   9.252  3.1180  0.4515 -0.7562
  175SOPE   H6Y19928   3.734   5.668   9.291 -0.9820 -0.3004 -1.5021
  175SOPE   C3719929   3.893   5.669   9.164  0.1986 -0.7051  0.4832
  175SOPE   H7X19930   3.810   5.661   9.091  0.7416 -3.8545  0.1483
  175SOPE   H7Y19931   3.945   5.574   9.188  1.9933 -0.0448 -0.7360
  175SOPE   C3819932   3.993   5.761   9.101  0.2199 -0.5171 -0.1538
  175SOPE   H8X19933   4.056   5.804   9.182  0.5013 -1.1790 -0.0220
  175SOPE   H8Y19934   3.947   5.849   9.052  0.5028 -0.1499  0.2326
  175SOPE   C3919935   4.090   5.693   9.003 -0.3912 -0.5042  0.6281
  175SOPE   H9X19936   4.154   5.623   9.062 -0.2836 -1.6915 -0.8726
  175SOPE   H9Y19937   4.163   5.770   8.972  1.5561 -0.5751  4.6396
  175SOPE  C31019938   4.020   5.625   8.882  0.9024  0.5776  0.5480
  175SOPE  H10X19939   3.931   5.682   8.846  0.4182 -0.3121  0.3304
  175SOPE  H10Y19940   3.985   5.524   8.912  0.8547  0.2143 -0.7054
  175SOPE  C31119941   4.115   5.606   8.765 -0.1801 -0.1753 -0.6160
  175SOPE  H11X19942   4.167   5.701   8.744 -1.1186  0.6452  0.6573
  175SOPE  H11Y19943   4.048   5.585   8.679 -0.6888  2.9183 -1.0459
  175SOPE  C31219944   4.217   5.497   8.786  0.2077 -0.3374 -0.1387
  175SOPE  H12X19945   4.172   5.396   8.780  0.8324 -0.6320  0.0955
  175SOPE  H12Y19946   4.258   5.506   8.889  1.9592 -0.4086 -0.8185
  175SOPE  C31319947   4.336   5.508   8.693  0.5122  0.0265 -0.2534
  175SOPE  H13X19948   4.386   5.409   8.697  1.9644  0.6670 -2.2312
  175SOPE  H13Y19949   4.403   5.592   8.723 -0.8533  0.3186  2.2010
  175SOPE  C31419950   4.293   5.513   8.544  0.0740  0.1378  0.0189
  175SOPE  H14X19951   4.388   5.537   8.490 -0.4003  1.6415 -0.1844
  175SOPE  H14Y19952   4.223   5.598   8.525 -2.1091 -1.1999  1.8403
  175SOPE  C31519953   4.215   5.392   8.485 -0.4159  0.3113  0.5682
  175SOPE  H15X19954   4.128   5.373   8.552 -0.3261 -1.9505  0.0764
  175SOPE  H15Y19955   4.288   5.309   8.479 -0.4509  0.2442  1.1205
  175SOPE  C31619956   4.167   5.409   8.340 -0.4452  0.4214  0.0307
  175SOPE  H16X19957   4.252   5.418   8.269 -0.4794  1.8464  0.1514
  175SOPE  H16Y19958   4.100   5.496   8.323 -0.3695  0.6239  0.7518
  175SOPE  C31719959   4.079   5.289   8.300  0.2714 -0.1654  0.2052
  175SOPE  H17X19960   3.982   5.295   8.355  0.8850  0.2699  1.2683
  175SOPE  H17Y19961   4.108   5.194   8.349 -0.8609  0.2518  1.7528
  175SOPE  C31819962   4.060   5.275   8.154  0.2621 -0.1336  1.0383
  175SOPE  H18X19963   3.988   5.194   8.127 -0.3220  0.5969  0.3438
  175SOPE  H18Y19964   4.157   5.273   8.101 -0.8521 -1.4590 -1.0240
  175SOPE  H18Z19965   4.011   5.369   8.118  1.9471  0.4974  0.3689
  176SOPE     N19966   2.707   5.304  10.886 -0.1046 -0.9320 -0.4014
  176SOPE   HN119967   2.788   5.366  10.901 -0.3089 -0.4233 -1.3602
  176SOPE   HN219968   2.623   5.359  10.915 -1.4835 -1.9899 -2.2051
  176SOPE   HN319969   2.695   5.220  10.947 -1.3477 -0.8818 -0.5644
  176SOPE   C1219970   2.728   5.255  10.742 -0.4602  0.7958 -0.8554
  176SOPE  H12A19971   2.758   5.346  10.686  0.8066  1.4462  0.8227
  176SOPE  H12B19972   2.631   5.216  10.705 -0.3399  0.6342 -0.9984
  176SOPE   C1119973   2.855   5.165  10.723 -1.0225  0.4060 -0.5954
  176SOPE  H11A19974   2.848   5.112  10.625  2.5788 -1.5311  0.1201
  176SOPE  H11B19975   2.850   5.083  10.798 -0.9362 -0.2201 -1.2669
  176SOPE     P19976   3.102   5.156  10.772 -0.1784  0.2063  0.0210
  176SOPE   O1319977   3.075   5.040  10.864  0.4104 -0.1913 -0.1198
  176SOPE   O1419978   3.205   5.257  10.808 -0.3443  0.1017  0.3890
  176SOPE   O1219979   2.970   5.245  10.735 -0.2182  0.5522  0.0531
  176SOPE   O1119980   3.133   5.083  10.642  0.2545 -0.0546 -0.4551
  176SOPE    C119981   3.128   5.133  10.510 -0.0313 -0.8991  0.4749
  176SOPE    HA19982   3.134   5.244  10.516 -1.3507 -0.8357  0.8076
  176SOPE    HB19983   3.036   5.092  10.464  1.2713 -1.6690 -1.4815
  176SOPE    C219984   3.259   5.078  10.436  0.9878  0.6185 -0.1717
  176SOPE    HS19985   3.340   5.128  10.493  0.1067  1.4713  0.3674
  176SOPE   O2119986   3.251   5.111  10.301 -0.1791 -0.0097  0.2167
  176SOPE   C2119987   3.372   5.110  10.239  0.3952  0.5280  0.5593
  176SOPE   O2219988   3.478   5.104  10.296  0.1066  0.1894  0.2949
  176SOPE   C2219989   3.346   5.125  10.089 -0.4292 -0.4752  0.1628
  176SOPE   H2R19990   3.368   5.232  10.066 -0.4597 -0.3947  0.4954
  176SOPE   H2S19991   3.237   5.111  10.071 -0.5372 -0.6919  0.9484
  176SOPE    C319992   3.273   4.924  10.447  0.3395 -0.0331  0.7748
  176SOPE    HX19993   3.297   4.909  10.554 -1.9526 -0.3774  1.2770
  176SOPE    HY19994   3.357   4.881  10.389 -1.6093 -1.9069 -0.7557
  176SOPE   O3119995   3.150   4.852  10.422  0.3073 -0.0988  0.3108
  176SOPE   C3119996   3.136   4.807  10.294 -0.5169  0.1593  0.3776
  176SOPE   O3219997   3.222   4.800  10.208  0.3507 -0.4289  0.5119
  176SOPE   C3219998   2.989   4.769  10.272 -0.4458  0.2766 -0.7344
  176SOPE   H2X19999   2.928   4.804  10.358  0.2497  1.5777 -0.7616
  176SOPE   H2Y20000   2.972   4.660  10.257 -0.5109  0.4025 -1.6330
  176SOPE   C2320001   3.430   5.029   9.996 -0.2564 -0.0438 -0.9714
  176SOPE   H3R20002   3.414   4.922  10.022 -2.3509  0.7369  1.1963
  176SOPE   H3S20003   3.536   5.053  10.018 -0.5070  0.6908 -0.5245
  176SOPE   C2420004   3.403   5.050   9.851  0.6471 -0.0685 -0.3702
  176SOPE   H4R20005   3.300   5.080   9.823  1.4755  1.1209 -2.3013
  176SOPE   H4S20006   3.474   5.128   9.814  0.4891 -0.6687 -1.9720
  176SOPE   C2520007   3.424   4.925   9.764  0.5888  0.3630  0.6277
  176SOPE   H5R20008   3.534   4.906   9.761  0.7167  0.9082  1.6408
  176SOPE   H5S20009   3.375   4.830   9.796 -0.9875  0.6328 -0.9356
  176SOPE   C2620010   3.395   4.963   9.616  0.2344  0.1843  0.0865
  176SOPE   H6R20011   3.285   4.974   9.604  0.3051  0.5084 -0.2496
  176SOPE   H6S20012   3.451   5.055   9.590 -1.2082  2.1360  3.4779
  176SOPE   C2720013   3.437   4.843   9.537 -0.0820  0.5720  0.4884
  176SOPE   H7R20014   3.538   4.801   9.558 -1.3113 -2.1303  1.1794
  176SOPE   H7S20015   3.368   4.764   9.575  0.8086 -1.2749 -1.5975
  176SOPE   C2820016   3.424   4.873   9.387  0.4965 -0.1955  0.1106
  176SOPE   H8R20017   3.413   4.774   9.338 -1.4335  0.9260 -1.8274
  176SOPE   H8S20018   3.329   4.926   9.363  2.7435  3.3801 -1.2453
  176SOPE   C2920019   3.540   4.951   9.333 -0.0969 -0.2685  1.3650
  176SOPE   H9120020   3.543   5.047   9.385 -2.8202  0.7633 -0.3045
  176SOPE  C21020021   3.640   4.918   9.245 -0.9373  0.3099 -0.1061
  176SOPE  H10120022   3.719   4.992   9.227 -0.4672  0.3654  2.0798
  176SOPE  C21120023   3.655   4.780   9.183  0.1472  0.3569 -0.3089
  176SOPE  H11R20024   3.582   4.712   9.230  0.4332  1.0672  1.2081
  176SOPE  H11S20025   3.750   4.740   9.225 -0.4993 -0.4907  0.3543
  176SOPE  C21220026   3.647   4.781   9.034  0.0279  0.0004  0.1518
  176SOPE  H12R20027   3.670   4.679   8.999 -0.4064 -0.2665  0.6425
  176SOPE  H12S20028   3.720   4.843   8.977  1.1306  0.3601  1.8988
  176SOPE  C21320029   3.497   4.815   8.992 -0.3545 -1.2218  0.0337
  176SOPE  H13R20030   3.473   4.916   9.033 -0.0047 -1.8628  1.8922
  176SOPE  H13S20031   3.432   4.741   9.043 -1.2053 -0.0695  0.6475
  176SOPE  C21420032   3.472   4.816   8.843 -0.3436 -0.4396  0.5306
  176SOPE  H14R20033   3.533   4.893   8.791 -1.8042  0.8374  0.6793
  176SOPE  H14S20034   3.368   4.853   8.830  0.4228  1.0828 -1.7330
  176SOPE  C21520035   3.505   4.683   8.768  0.1778  0.3230 -0.0068
  176SOPE  H15R20036   3.613   4.661   8.779  0.1387 -0.7080 -1.5096
  176SOPE  H15S20037   3.485   4.706   8.661  1.6723  2.0685  0.0655
  176SOPE  C21620038   3.427   4.563   8.816  0.3019 -0.7921 -0.0351
  176SOPE  H16R20039   3.321   4.599   8.820  0.3754 -0.3456 -1.4884
  176SOPE  H16S20040   3.450   4.523   8.916 -1.8243  1.4644  1.4305
  176SOPE  C21720041   3.432   4.457   8.708 -0.5661 -0.4904  0.7139
  176SOPE  H17R20042   3.448   4.358   8.755  1.6450  0.0281  1.1172
  176SOPE  H17S20043   3.509   4.476   8.631 -0.3258 -0.9017  0.8562
  176SOPE  C21820044   3.294   4.439   8.626 -0.3975 -0.3262  0.6530
  176SOPE  H18R20045   3.265   4.535   8.578 -1.9610 -1.4769 -0.7557
  176SOPE  H18S20046   3.216   4.398   8.693 -0.6147 -1.1183 -0.0778
  176SOPE  H18T20047   3.315   4.369   8.542  0.7206 -2.4858  2.6717
  176SOPE   C3320048   2.925   4.830  10.145  0.5190 -0.0524  0.2599
  176SOPE   H3X20049   2.984   4.922  10.124 -0.4536  0.5869  0.3401
  176SOPE   H3Y20050   2.820   4.862  10.162  1.2030  3.6181 -1.8287
  176SOPE   C3420051   2.932   4.739  10.025 -0.0155  0.1845  0.5201
  176SOPE   H4X20052   2.903   4.632  10.038  3.8976 -1.0291  0.2464
  176SOPE   H4Y20053   3.039   4.736   9.993 -1.2022  0.2190 -3.8635
  176SOPE   C3520054   2.875   4.798   9.893  1.0284  0.3109 -0.6255
  176SOPE   H5X20055   2.893   4.908   9.896 -2.4845  0.8900  1.1537
  176SOPE   H5Y20056   2.767   4.773   9.898  1.1907  0.2007  3.8465
  176SOPE   C3620057   2.944   4.746   9.763 -0.7879  0.5362  0.3327
  176SOPE   H6X20058   2.929   4.636   9.759  0.6957  0.3727 -0.6618
  176SOPE   H6Y20059   3.049   4.779   9.772  0.0934 -2.1978  0.3507
  176SOPE   C3720060   2.872   4.792   9.637 -0.2348  0.3673  0.3841
  176SOPE   H7X20061   2.870   4.902   9.647  0.9456  0.4207  0.1522
  176SOPE   H7Y20062   2.769   4.753   9.651  0.1344  0.1751  2.8194
  176SOPE   C3820063   2.945   4.754   9.507 -0.0331 -0.3679  0.2743
  176SOPE   H8X20064   2.936   4.645   9.490 -0.7503 -0.3308  0.3841
  176SOPE   H8Y20065   3.053   4.773   9.526 -0.5055  1.5356  1.1798
  176SOPE   C3920066   2.892   4.823   9.377 -0.1903  0.2523 -0.9216
  176SOPE   H9X20067   2.842   4.920   9.400 -0.0476  0.3524 -1.0269
  176SOPE   H9Y20068   2.809   4.762   9.337 -0.6281  1.1928 -1.4653
  176SOPE  C31020069   3.000   4.819   9.272 -0.3461  0.0356  0.5076
  176SOPE  H10X20070   3.023   4.715   9.240  0.2400  0.0755  0.7952
  176SOPE  H10Y20071   3.099   4.857   9.305  0.3115 -1.1833 -0.0597
  176SOPE  C31120072   2.961   4.893   9.144 -0.4136 -0.3648 -0.3894
  176SOPE  H11X20073   2.945   4.999   9.173 -1.3109 -1.2534  2.6052
  176SOPE  H11Y20074   2.871   4.845   9.102 -0.2167 -2.0762  1.0673
  176SOPE  C31220075   3.079   4.886   9.042 -0.0808 -0.7433 -0.2522
  176SOPE  H12X20076   3.109   4.780   9.028  0.2591 -0.8422  1.1602
  176SOPE  H12Y20077   3.170   4.934   9.085  0.5174 -2.0858  0.0044
  176SOPE  C31320078   3.049   4.947   8.907 -0.2474  0.1334 -0.4609
  176SOPE  H13X20079   3.141   4.961   8.847 -0.1116 -1.0398 -0.5354
  176SOPE  H13Y20080   3.011   5.050   8.924  0.4171  0.4538 -0.8848
  176SOPE  C31420081   2.937   4.877   8.825  0.3565 -0.7112 -0.5743
  176SOPE  H14X20082   2.919   4.927   8.727  0.8197 -2.3326 -1.5133
  176SOPE  H14Y20083   2.845   4.876   8.887  0.1203 -2.4377 -0.9271
  176SOPE  C31520084   2.970   4.736   8.795 -0.9492 -0.0123  0.7356
  176SOPE  H15X20085   2.952   4.684   8.891  1.5257 -4.3860 -1.0305
  176SOPE  H15Y20086   3.077   4.719   8.772 -1.2947 -1.5808  0.2031
  176SOPE  C31620087   2.889   4.681   8.677 -0.1570 -0.2698 -0.1407
  176SOPE  H16X20088   2.904   4.753   8.594 -2.9061  0.1774 -0.2993
  176SOPE  H16Y20089   2.779   4.680   8.694 -0.5108 -3.4174 -2.2561
  176SOPE  C31720090   2.938   4.552   8.627 -0.3999  0.0019  0.6594
  176SOPE  H17X20091   2.876   4.477   8.680 -0.7272 -0.8690 -0.9423
  176SOPE  H17Y20092   3.045   4.543   8.655 -1.0843 -1.3410  2.9759
  176SOPE  C31820093   2.931   4.543   8.476 -0.4174  0.3325  0.1570
  176SOPE  H18X20094   2.980   4.457   8.425 -2.2870  1.0538 -2.9775
  176SOPE  H18Y20095   3.003   4.615   8.433 -1.5843  0.7999 -1.0413
  176SOPE  H18Z20096   2.831   4.550   8.429 -1.0980  0.2600  1.5580
  177SOPE     N20097   2.619   3.749  11.152  0.2258 -0.2969 -0.3512
  177SOPE   HN120098   2.574   3.776  11.242  1.1243  0.0502  0.0033
  177SOPE   HN220099   2.648   3.832  11.096 -0.3965 -0.5920 -1.1087
  177SOPE   HN320100   2.548   3.696  11.098  0.0119 -0.4538  0.0866
  177SOPE   C1220101   2.741   3.662  11.193 -0.4240  0.0054 -0.2104
  177SOPE  H12A20102   2.801   3.721  11.265  1.2434  1.6202 -2.8231
  177SOPE  H12B20103   2.805   3.659  11.102  0.8290 -0.6743  0.6806
  177SOPE   C1120104   2.697   3.529  11.262  0.9571  0.6999  0.4926
  177SOPE  H11A20105   2.650   3.556  11.359  0.0780  1.7632 -0.2275
  177SOPE  H11B20106   2.790   3.475  11.290  1.4024  0.4550 -1.3805
  177SOPE     P20107   2.671   3.302  11.139  0.0572 -0.1456  0.5160
  177SOPE   O1320108   2.575   3.225  11.049 -0.2490 -0.1913 -0.8921
  177SOPE   O1420109   2.713   3.237  11.266  0.4178  0.0756  0.1132
  177SOPE   O1220110   2.614   3.451  11.171 -0.3265 -0.1195 -0.7749
  177SOPE   O1120111   2.805   3.334  11.057  0.2726  0.0237  0.1262
  177SOPE    C120112   2.805   3.363  10.918  0.5678 -0.2338 -0.2404
  177SOPE    HA20113   2.897   3.422  10.897  1.4763 -0.8697  1.8968
  177SOPE    HB20114   2.726   3.435  10.886  0.8375 -0.0209 -0.4350
  177SOPE    C220115   2.810   3.235  10.829  0.3391  0.4684  0.3828
  177SOPE    HS20116   2.758   3.153  10.884 -1.3564  1.1795 -0.1031
  177SOPE   O2120117   2.942   3.198  10.793 -0.3288 -0.0215 -0.3926
  177SOPE   C2120118   2.970   3.068  10.770 -0.1211  0.3806 -0.3256
  177SOPE   O2220119   2.891   2.979  10.742 -0.3180 -0.1555  0.2977
  177SOPE   C2220120   3.131   3.061  10.766 -0.7682 -0.2060  0.6092
  177SOPE   H2R20121   3.171   3.001  10.851  2.0835  1.0842  0.2259
  177SOPE   H2S20122   3.164   3.166  10.782  0.8850 -0.4282 -1.2168
  177SOPE    C320123   2.730   3.255  10.698 -0.3114 -0.0947 -0.6643
  177SOPE    HX20124   2.629   3.295  10.722 -0.6615  1.3342 -4.2911
  177SOPE    HY20125   2.695   3.164  10.646  0.2591 -0.7890  0.1418
  177SOPE   O3120126   2.782   3.358  10.614 -0.5360  0.1224  0.0890
  177SOPE   C3120127   2.826   3.322  10.494 -0.4049 -0.8615  0.2008
  177SOPE   O3220128   2.833   3.209  10.448  0.0597 -0.2444 -0.3705
  177SOPE   C3220129   2.852   3.457  10.416 -0.4984 -0.1101  0.1317
  177SOPE   H2X20130   2.954   3.491  10.443 -2.2108  4.4460  1.2145
  177SOPE   H2Y20131   2.784   3.537  10.452  1.6634  1.7150  0.2612
  177SOPE   C2320132   3.176   2.994  10.642  0.0271 -0.4188 -0.0991
  177SOPE   H3R20133   3.129   2.893  10.635 -2.3258  0.6922 -0.7253
  177SOPE   H3S20134   3.286   2.994  10.632  0.0157  0.0159 -0.2186
  177SOPE   C2420135   3.115   3.069  10.524 -0.2161 -0.6263  0.0590
  177SOPE   H4R20136   3.009   3.034  10.524 -0.4668  0.0671 -2.5397
  177SOPE   H4S20137   3.104   3.177  10.550 -1.1772 -0.5017 -0.8349
  177SOPE   C2520138   3.187   3.057  10.385 -0.1863  0.0430 -0.2447
  177SOPE   H5R20139   3.295   3.082  10.393 -0.3342  0.7739 -0.4380
  177SOPE   H5S20140   3.185   2.948  10.364 -0.8193 -0.2502  1.2775
  177SOPE   C2620141   3.123   3.143  10.271  0.0829 -0.5427  0.3521
  177SOPE   H6R20142   3.014   3.120  10.268 -0.4340  1.8826 -0.8575
  177SOPE   H6S20143   3.124   3.250  10.302 -1.5028 -0.1121 -1.0146
  177SOPE   C2720144   3.175   3.135  10.122 -0.8151 -0.3567 -0.1167
  177SOPE   H7R20145   3.132   3.039  10.086  0.4920 -2.0730  2.7594
  177SOPE   H7S20146   3.128   3.214  10.059 -0.8678  0.2411  0.6681
  177SOPE   C2820147   3.326   3.122  10.091  0.3178 -0.3641 -0.2220
  177SOPE   H8R20148   3.368   3.060  10.173 -0.9699 -2.4026 -1.0652
  177SOPE   H8S20149   3.335   3.064   9.996 -1.5102 -0.6356 -0.2425
  177SOPE   C2920150   3.395   3.254  10.085  0.2181  0.0741 -0.3471
  177SOPE   H9120151   3.376   3.303  10.182 -1.7807 -1.6181  0.1679
  177SOPE  C21020152   3.477   3.301   9.992 -0.8284 -0.4158 -0.0913
  177SOPE  H10120153   3.519   3.402   9.987  1.3442 -1.3097 -0.7174
  177SOPE  C21120154   3.512   3.228   9.865 -0.1691 -0.0429  0.4020
  177SOPE  H11R20155   3.420   3.182   9.822  0.3145  1.2489 -2.1418
  177SOPE  H11S20156   3.580   3.145   9.894 -0.1902 -0.2149 -0.0310
  177SOPE  C21220157   3.559   3.316   9.747  0.3952 -0.5050  1.0387
  177SOPE  H12R20158   3.662   3.355   9.760  0.0536  1.5593 -1.9881
  177SOPE  H12S20159   3.499   3.410   9.750 -1.1302 -1.4939  2.3684
  177SOPE  C21320160   3.535   3.260   9.608  0.3740  0.3134  0.4943
  177SOPE  H13R20161   3.427   3.240   9.594 -0.0123  1.5834  1.5753
  177SOPE  H13S20162   3.584   3.160   9.604 -2.2257 -0.9641 -0.7928
  177SOPE  C21420163   3.588   3.356   9.500  0.3694  0.2458  0.5693
  177SOPE  H14R20164   3.696   3.367   9.523  0.8751  1.0040 -1.9562
  177SOPE  H14S20165   3.531   3.449   9.483 -0.6820 -0.2844  1.1613
  177SOPE  C21520166   3.577   3.273   9.368  0.2291  0.0994  0.1600
  177SOPE  H15R20167   3.473   3.243   9.341  0.9451 -2.5691  0.2410
  177SOPE  H15S20168   3.626   3.175   9.382  0.0294 -0.0730 -0.3341
  177SOPE  C21620169   3.639   3.347   9.259 -0.6878 -0.6972  0.2162
  177SOPE  H16R20170   3.750   3.347   9.270 -0.6648  1.9495  0.3404
  177SOPE  H16S20171   3.599   3.451   9.252 -0.2582 -0.6681 -2.3582
  177SOPE  C21720172   3.612   3.301   9.118  0.5812  0.4830 -0.9930
  177SOPE  H17R20173   3.501   3.305   9.108 -0.0041 -1.2493  3.4470
  177SOPE  H17S20174   3.635   3.193   9.110  0.6541  0.3998  0.1536
  177SOPE  C21820175   3.685   3.373   9.003 -0.6198  1.0490  0.2128
  177SOPE  H18R20176   3.660   3.481   9.001 -1.3255  0.8909  0.1565
  177SOPE  H18S20177   3.672   3.334   8.900 -0.2798  0.0564  0.5417
  177SOPE  H18T20178   3.793   3.360   9.025 -1.0362  0.0891  1.7220
  177SOPE   C3320179   2.845   3.444  10.258  0.0259  0.2064  0.0937
  177SOPE   H3X20180   2.738   3.446  10.230  0.7679  1.4850 -2.8673
  177SOPE   H3Y20181   2.896   3.355  10.215 -1.3337  0.6304 -2.5455
  177SOPE   C3420182   2.913   3.552  10.176 -0.1817 -1.1184 -0.1984
  177SOPE   H4X20183   3.024   3.549  10.174 -0.1297  0.4631 -0.4219
  177SOPE   H4Y20184   2.883   3.653  10.211 -0.9416 -0.7711 -1.8157
  177SOPE   C3520185   2.878   3.550  10.022 -0.0216 -0.5633 -0.1883
  177SOPE   H5X20186   2.920   3.641   9.976  1.0183 -1.2479 -0.6045
  177SOPE   H5Y20187   2.767   3.544  10.018 -0.0243 -0.9135  0.3326
  177SOPE   C3620188   2.943   3.429   9.951 -1.4530 -0.6105 -0.2969
  177SOPE   H6X20189   2.927   3.330   9.997 -1.6467 -0.3262  0.2518
  177SOPE   H6Y20190   3.051   3.440   9.926 -1.6589 -1.4374 -1.5620
  177SOPE   C3720191   2.870   3.411   9.817  0.2948 -0.0826  0.0274
  177SOPE   H7X20192   2.864   3.516   9.780  2.6491  0.2467  0.4731
  177SOPE   H7Y20193   2.762   3.389   9.833  0.5932 -1.9234 -0.3923
  177SOPE   C3820194   2.936   3.303   9.722 -0.4042 -0.5458  0.1479
  177SOPE   H8X20195   2.959   3.212   9.781  0.6509  0.3278  1.1172
  177SOPE   H8Y20196   3.039   3.341   9.707 -0.4680 -1.1841 -2.0990
  177SOPE   C3920197   2.868   3.279   9.580 -0.2142  0.5129  0.8774
  177SOPE   H9X20198   2.850   3.375   9.526  0.2430  0.6841  1.0247
  177SOPE   H9Y20199   2.773   3.223   9.592  0.5490 -0.6275  1.6077
  177SOPE  C31020200   2.968   3.196   9.501  0.5947 -0.5623  0.3252
  177SOPE  H10X20201   3.009   3.118   9.568 -2.5806 -1.0052  1.8472
  177SOPE  H10Y20202   3.055   3.262   9.481  1.7010 -2.7780 -2.4745
  177SOPE  C31120203   2.915   3.140   9.369 -1.0276 -0.3383 -0.4628
  177SOPE  H11X20204   2.865   3.226   9.320 -0.1794 -0.3426 -1.3544
  177SOPE  H11Y20205   2.835   3.065   9.388 -0.6990 -0.8078 -0.8993
  177SOPE  C31220206   3.028   3.081   9.281  0.0573 -0.2345 -0.5466
  177SOPE  H12X20207   3.065   2.990   9.334  0.2388  0.8292  1.1994
  177SOPE  H12Y20208   3.113   3.153   9.279 -0.4421  0.4962  1.9608
  177SOPE  C31320209   2.981   3.039   9.144 -1.4680  0.0155 -0.2160
  177SOPE  H13X20210   3.056   2.981   9.086 -1.3958  0.4237 -0.5302
  177SOPE  H13Y20211   2.965   3.138   9.097 -1.0017  0.8707  1.3779
  177SOPE  C31420212   2.850   2.950   9.138  0.1095 -0.0243 -0.5360
  177SOPE  H14X20213   2.773   2.996   9.204  0.2743 -0.0824 -0.3007
  177SOPE  H14Y20214   2.854   2.849   9.184 -0.7456  0.3050  0.2864
  177SOPE  C31520215   2.799   2.933   8.994 -0.5785 -0.0912  0.1526
  177SOPE  H15X20216   2.883   2.944   8.921 -1.9327  0.4213 -1.3507
  177SOPE  H15Y20217   2.739   3.020   8.962 -0.5012  0.1805  0.7407
  177SOPE  C31620218   2.719   2.798   8.965  0.2806 -0.6023 -0.7608
  177SOPE  H16X20219   2.637   2.805   9.040  0.8837 -1.2398 -0.0289
  177SOPE  H16Y20220   2.782   2.713   8.999 -0.6149 -0.3659  1.5622
  177SOPE  C31720221   2.669   2.793   8.821 -0.3992 -0.1309  1.0376
  177SOPE  H17X20222   2.609   2.881   8.791  1.6953  0.9630 -0.1052
  177SOPE  H17Y20223   2.603   2.704   8.816 -1.9977  1.1233 -0.8573
  177SOPE  C31820224   2.786   2.772   8.721 -0.6025 -0.3122 -0.3330
  177SOPE  H18X20225   2.826   2.868   8.681 -2.9017 -0.1874 -2.4706
  177SOPE  H18Y20226   2.741   2.715   8.637  0.3527 -2.8081  0.7956
  177SOPE  H18Z20227   2.866   2.717   8.775  0.8161 -0.9359 -2.9598
  178SOPE     N20228   0.176   2.091  10.744 -0.0036 -0.2500  0.3587
  178SOPE   HN120229   0.123   2.105  10.655  0.0952  1.1296  0.5070
  178SOPE   HN220230   0.109   2.066  10.819  0.3406  1.2480  1.1839
  178SOPE   HN320231   0.204   2.190  10.757 -0.3822  0.2045 -2.0277
  178SOPE   C1220232   0.287   1.995  10.748 -0.2614 -0.1690  0.1441
  178SOPE  H12A20233   0.318   1.977  10.853  0.7519 -0.7704 -0.2522
  178SOPE  H12B20234   0.362   2.042  10.681 -1.4900 -1.4435 -2.1771
  178SOPE   C1120235   0.243   1.865  10.681 -0.6524  0.3496  0.4965
  178SOPE  H11A20236   0.327   1.794  10.668 -0.0636  1.2070 -0.4545
  178SOPE  H11B20237   0.214   1.888  10.577  1.1399  0.2276 -0.0411
  178SOPE     P20238   0.134   1.652  10.783 -0.0279  0.2610 -0.0410
  178SOPE   O1320239  -0.010   1.610  10.793 -0.6344 -0.2612 -0.2201
  178SOPE   O1420240   0.221   1.610  10.895  0.1157  0.3591 -0.0606
  178SOPE   O1220241   0.133   1.803  10.746  0.5075  0.3636  0.0308
  178SOPE   O1120242   0.197   1.582  10.653  0.9861 -0.4478 -0.4015
  178SOPE    C120243   0.257   1.452  10.675 -0.2771  0.4059 -0.9316
  178SOPE    HA20244   0.214   1.394  10.761  0.6301 -0.4873 -1.0650
  178SOPE    HB20245   0.358   1.460  10.720  0.0808 -1.3261 -1.3900
  178SOPE    C220246   0.260   1.357  10.550  0.0130 -0.1194  0.2560
  178SOPE    HS20247   0.300   1.255  10.571 -3.2029 -1.6265 -0.5737
  178SOPE   O2120248   0.341   1.419  10.452  0.2623  0.6571 -0.2017
  178SOPE   C2120249   0.473   1.410  10.455  0.4545 -0.3636  0.0908
  178SOPE   O2220250   0.540   1.339  10.529 -0.3871  0.4515 -0.6739
  178SOPE   C2220251   0.532   1.482  10.337 -0.4658 -0.2311 -0.3297
  178SOPE   H2R20252   0.525   1.593  10.347  1.8858 -0.0390 -0.3996
  178SOPE   H2S20253   0.472   1.441  10.253 -1.0673 -3.6595  1.6885
  178SOPE    C320254   0.119   1.345  10.492  0.4143  0.0935 -0.1822
  178SOPE    HX20255   0.093   1.438  10.438 -1.7418 -0.2455  0.2286
  178SOPE    HY20256   0.049   1.336  10.578 -0.3889 -0.4040 -0.8816
  178SOPE   O3120257   0.115   1.226  10.406 -0.6327  0.3975  0.2487
  178SOPE   C3120258   0.001   1.161  10.396 -0.4306 -0.8358  0.7972
  178SOPE   O3220259  -0.104   1.188  10.456  0.1213  0.3992  0.1345
  178SOPE   C3220260   0.021   1.065  10.276  0.0240 -0.4922 -0.0768
  178SOPE   H2X20261  -0.067   0.996  10.273 -0.2075 -0.2207  0.4006
  178SOPE   H2Y20262   0.112   1.006  10.299  1.0065  1.8274  2.1313
  178SOPE   C2320263   0.673   1.438  10.325 -0.3729 -0.5859 -0.2031
  178SOPE   H3R20264   0.679   1.329  10.306 -2.1451 -0.5236 -1.1722
  178SOPE   H3S20265   0.718   1.455  10.425 -1.5686  0.9781  0.0877
  178SOPE   C2420266   0.760   1.514  10.224  0.0347  0.3264 -1.0057
  178SOPE   H4R20267   0.775   1.613  10.272  3.3343 -0.4711 -0.2793
  178SOPE   H4S20268   0.858   1.462  10.225 -0.1922 -0.0854  0.1886
  178SOPE   C2520269   0.709   1.524  10.076  0.3116 -0.5836  0.2042
  178SOPE   H5R20270   0.679   1.425  10.038 -1.1336 -0.4104  0.8729
  178SOPE   H5S20271   0.618   1.588  10.067 -0.8494 -2.1943  0.3935
  178SOPE   C2620272   0.812   1.584   9.983 -0.1394 -0.0500  0.0214
  178SOPE   H6R20273   0.840   1.685  10.020  0.0816 -0.5223  1.1924
  178SOPE   H6S20274   0.907   1.527   9.983 -0.3243 -0.3611 -0.0981
  178SOPE   C2720275   0.749   1.597   9.846  1.1218 -0.1899  0.1163
  178SOPE   H7R20276   0.725   1.498   9.802  0.6534 -0.3860  0.8081
  178SOPE   H7S20277   0.656   1.656   9.860  1.2919  0.5674 -1.7638
  178SOPE   C2820278   0.826   1.685   9.740  0.1498 -0.1295 -0.1059
  178SOPE   H8R20279   0.759   1.707   9.654 -0.8754  0.2743  0.7896
  178SOPE   H8S20280   0.859   1.777   9.792  0.8677 -1.6719  2.2338
  178SOPE   C2920281   0.954   1.617   9.699  0.6842  0.6267 -0.2039
  178SOPE   H9120282   1.008   1.581   9.788  1.1203 -0.8596 -1.0624
  178SOPE  C21020283   1.004   1.586   9.577  0.3545 -0.7392 -0.3253
  178SOPE  H10120284   1.105   1.541   9.573  0.3382 -1.0330  1.8383
  178SOPE  C21120285   0.937   1.632   9.445 -0.1999  0.1906 -0.1643
  178SOPE  H11R20286   0.829   1.606   9.448 -0.3880  1.0688  0.8761
  178SOPE  H11S20287   0.989   1.578   9.363 -1.3701 -1.4912  0.1855
  178SOPE  C21220288   0.948   1.786   9.423  0.3915 -0.0172 -0.2363
  178SOPE  H12R20289   1.053   1.819   9.439  0.2551  0.1609  0.3386
  178SOPE  H12S20290   0.896   1.831   9.511  1.3959  0.1292  0.2913
  178SOPE  C21320291   0.877   1.838   9.300  0.2432 -0.2208 -0.1801
  178SOPE  H13R20292   0.864   1.947   9.314  0.3275 -0.3344  0.8765
  178SOPE  H13S20293   0.774   1.797   9.292 -0.9154  2.5414  0.2818
  178SOPE  C21420294   0.936   1.830   9.165  0.4233 -0.0256  0.4899
  178SOPE  H14R20295   0.935   1.726   9.126 -0.6678 -0.0066  0.4318
  178SOPE  H14S20296   1.040   1.868   9.175  0.5653  0.0315 -1.0722
  178SOPE  C21520297   0.857   1.917   9.060  0.4258 -0.2315 -0.2905
  178SOPE  H15R20298   0.839   2.012   9.114 -0.4532 -1.3849  1.4756
  178SOPE  H15S20299   0.760   1.867   9.038  0.6897 -0.3603 -1.1952
  178SOPE  C21620300   0.943   1.935   8.926  0.0139  0.1790 -0.9516
  178SOPE  H16R20301   1.051   1.943   8.951 -0.1403  1.7647 -0.6992
  178SOPE  H16S20302   0.916   2.032   8.878 -0.3789  1.4862  1.8170
  178SOPE  C21720303   0.915   1.814   8.825  0.0047 -0.3592 -0.6367
  178SOPE  H17R20304   0.941   1.721   8.880  0.9153  1.4369  2.0605
  178SOPE  H17S20305   0.990   1.811   8.743 -2.7162 -2.4478 -3.1674
  178SOPE  C21820306   0.777   1.795   8.768 -0.5526 -0.1103  0.3213
  178SOPE  H18R20307   0.741   1.885   8.713  2.0324 -0.1832 -1.5502
  178SOPE  H18S20308   0.708   1.765   8.850 -1.4281  0.0937 -0.3271
  178SOPE  H18T20309   0.782   1.710   8.696  0.1548  0.3073 -0.1350
  178SOPE   C3320310   0.039   1.144  10.146 -0.0764  0.0353 -0.2740
  178SOPE   H3X20311   0.067   1.062  10.076  0.5732  0.9165 -1.0693
  178SOPE   H3Y20312   0.128   1.208  10.165  1.0359 -1.3617 -0.6673
  178SOPE   C3420313  -0.087   1.229  10.106 -0.4388 -0.6999 -0.4507
  178SOPE   H4X20314  -0.063   1.277  10.009  1.5475 -1.0999 -0.1824
  178SOPE   H4Y20315  -0.107   1.309  10.180  1.0686 -0.3306 -0.4386
  178SOPE   C3520316  -0.220   1.155  10.084 -0.7128  0.0989 -0.4994
  178SOPE   H5X20317  -0.292   1.211  10.022 -0.9359 -2.5276 -2.6871
  178SOPE   H5Y20318  -0.268   1.136  10.183  2.5239  0.5035  1.2282
  178SOPE   C3620319  -0.215   1.021  10.007  0.1741  0.5677 -0.1513
  178SOPE   H6X20320  -0.316   0.973  10.006 -0.3434  1.6317 -0.1736
  178SOPE   H6Y20321  -0.147   0.960  10.070  2.6168  2.1842 -1.1492
  178SOPE   C3720322  -0.163   1.027   9.860 -0.4045 -1.3676  0.6793
  178SOPE   H7X20323  -0.060   1.067   9.859 -0.6251 -0.8035  0.2035
  178SOPE   H7Y20324  -0.232   1.092   9.801 -1.4001 -2.7546  0.2777
  178SOPE   C3820325  -0.176   0.893   9.795  0.2081 -0.0035 -0.5012
  178SOPE   H8X20326  -0.285   0.871   9.797 -0.0848  1.4151 -0.2019
  178SOPE   H8Y20327  -0.115   0.818   9.849 -0.8455  0.6863  1.7030
  178SOPE   C3920328  -0.129   0.888   9.648  0.2796  0.5022  0.3097
  178SOPE   H9X20329  -0.160   0.788   9.613 -1.3424  0.6286  1.3345
  178SOPE   H9Y20330  -0.018   0.896   9.651  0.4497 -0.7061 -1.8610
  178SOPE  C31020331  -0.188   0.993   9.558  0.3348 -0.0543  1.0690
  178SOPE  H10X20332  -0.138   0.970   9.461 -1.8336 -2.7925  0.5407
  178SOPE  H10Y20333  -0.167   1.097   9.591 -1.7428  0.2975  1.3312
  178SOPE  C31120334  -0.335   0.984   9.552  0.5086 -0.1197  0.3959
  178SOPE  H11X20335  -0.393   1.039   9.630  0.5407 -0.0806  0.3912
  178SOPE  H11Y20336  -0.350   0.874   9.547 -3.2704  0.4481 -3.4902
  178SOPE  C31220337  -0.388   1.043   9.418  0.2319  0.0921  0.8754
  178SOPE  H12X20338  -0.354   0.989   9.327 -1.3538 -0.0612  0.3666
  178SOPE  H12Y20339  -0.350   1.147   9.412 -1.6049  0.7717  0.6155
  178SOPE  C31320340  -0.541   1.037   9.401  0.4465  0.0708 -0.0266
  178SOPE  H13X20341  -0.599   1.115   9.454  1.3537  0.2624  0.7015
  178SOPE  H13Y20342  -0.566   0.937   9.444 -0.8768  0.6788  0.6420
  178SOPE  C31420343  -0.571   1.050   9.252 -0.5681  0.1064  0.7305
  178SOPE  H14X20344  -0.517   0.965   9.204  1.6435  1.1185  1.3682
  178SOPE  H14Y20345  -0.542   1.148   9.209 -1.3956  0.3045  0.6245
  178SOPE  C31520346  -0.721   1.029   9.224  0.1021  0.0983  0.2917
  178SOPE  H15X20347  -0.766   1.098   9.298 -0.7995 -1.3337  1.1015
  178SOPE  H15Y20348  -0.748   0.925   9.250  3.7274 -1.6616 -2.5067
  178SOPE  C31620349  -0.740   1.060   9.078 -0.2064 -0.3369 -0.0656
  178SOPE  H16X20350  -0.676   1.142   9.040  1.7267 -2.5577 -1.7670
  178SOPE  H16Y20351  -0.845   1.089   9.059 -1.2502 -3.0998  1.2235
  178SOPE  C31720352  -0.718   0.938   9.001  0.1750 -0.0034 -0.0547
  178SOPE  H17X20353  -0.797   0.868   9.036  0.5793 -0.7348 -0.6146
  178SOPE  H17Y20354  -0.619   0.896   9.028 -1.6253 -1.4829  4.7116
  178SOPE  C31820355  -0.737   0.962   8.848  0.1495  0.7360  0.9907
  178SOPE  H18X20356  -0.832   1.014   8.826 -0.0954 -0.5200 -0.9920
  178SOPE  H18Y20357  -0.749   0.864   8.797 -1.1956 -0.0301  2.7327
  178SOPE  H18Z20358  -0.642   1.005   8.809  0.4489  1.1785  2.1783
  179SOPE     N20359   5.655   3.363   6.331 -0.2455 -0.2127 -0.6260
  179SOPE   HN120360   5.751   3.394   6.356  0.6670 -4.9207  2.2540
  179SOPE   HN220361   5.646   3.260   6.339  0.0408 -0.0468  2.3860
  179SOPE   HN320362   5.638   3.406   6.237  0.3915 -0.3694 -0.8127
  179SOPE   C1220363   5.562   3.417   6.436  0.5593  0.2621  0.0415
  179SOPE  H12A20364   5.459   3.389   6.405  1.3799 -1.6577 -1.0644
  179SOPE  H12B20365   5.577   3.527   6.427 -1.2488  0.7452  2.5627
  179SOPE   C1120366   5.601   3.377   6.581  0.5470  0.2604 -0.1144
  179SOPE  H11A20367   5.582   3.271   6.608 -2.2154  1.1420  1.6207
  179SOPE  H11B20368   5.536   3.424   6.658 -0.5341  0.3084 -1.0487
  179SOPE     P20369   5.805   3.466   6.728 -0.1602  0.4346  0.3467
  179SOPE   O1320370   5.732   3.594   6.746  0.0363 -0.0976 -0.2054
  179SOPE   O1420371   5.951   3.477   6.710 -0.0588  0.0418  0.2877
  179SOPE   O1220372   5.744   3.388   6.603  0.7209 -0.2063 -0.8385
  179SOPE   O1120373   5.789   3.376   6.847  0.1403  0.1683 -0.2002
  179SOPE    C120374   5.695   3.394   6.950  0.0023  0.5544 -0.0614
  179SOPE    HA20375   5.640   3.298   6.961  0.2237  0.1303 -2.4154
  179SOPE    HB20376   5.623   3.473   6.922  1.3344  1.5219 -0.8101
  179SOPE    C220377   5.763   3.421   7.089  0.2793 -0.3655  0.3331
  179SOPE    HS20378   5.837   3.500   7.070 -2.8584  2.3940 -0.8484
  179SOPE   O2120379   5.823   3.296   7.121  0.3010  0.2089  0.1424
  179SOPE   C2120380   5.955   3.303   7.120  1.0161 -0.4779  0.1660
  179SOPE   O2220381   6.020   3.396   7.080 -0.0010 -0.9501 -0.3158
  179SOPE   C2220382   6.013   3.181   7.195 -0.7267  0.1357 -0.9715
  179SOPE   H2R20383   6.041   3.106   7.118 -0.6547  1.5377 -2.3394
  179SOPE   H2S20384   5.934   3.144   7.264  0.4947  1.4102  1.1986
  179SOPE    C320385   5.659   3.475   7.193  0.1845 -0.1388  0.2991
  179SOPE    HX20386   5.584   3.396   7.213 -1.8544  1.7780  0.3880
  179SOPE    HY20387   5.605   3.563   7.154 -0.1206 -1.2605 -1.8794
  179SOPE   O3120388   5.725   3.502   7.323 -0.7645  0.1133  0.2061
  179SOPE   C3120389   5.788   3.616   7.327  0.3045 -0.0449  0.1450
  179SOPE   O3220390   5.794   3.698   7.234 -0.0598  0.6049 -0.1722
  179SOPE   C3220391   5.847   3.628   7.467  0.6402  0.2504  0.3751
  179SOPE   H2X20392   5.869   3.735   7.488  1.7995  0.4609 -1.8001
  179SOPE   H2Y20393   5.943   3.573   7.468  0.3844 -0.2063  0.1459
  179SOPE   C2320394   6.135   3.216   7.287  0.3205 -0.3835 -0.2416
  179SOPE   H3R20395   6.216   3.258   7.223  1.0383  0.6362  1.3021
  179SOPE   H3S20396   6.167   3.118   7.327 -0.1203  0.9869  3.6719
  179SOPE   C2420397   6.100   3.298   7.410 -0.6226 -0.4969  0.1262
  179SOPE   H4R20398   6.090   3.406   7.385 -1.4167 -0.0956  2.0943
  179SOPE   H4S20399   6.002   3.268   7.452 -0.4789  1.4935  1.9570
  179SOPE   C2520400   6.200   3.278   7.528  0.1882  0.0824  0.7040
  179SOPE   H5R20401   6.225   3.170   7.532  2.3543  0.5127 -0.4781
  179SOPE   H5S20402   6.299   3.322   7.505  0.7196 -1.0608  0.8150
  179SOPE   C2620403   6.142   3.325   7.658 -0.3111 -0.3779 -0.0270
  179SOPE   H6R20404   6.141   3.436   7.658 -1.1531 -0.3796 -0.4166
  179SOPE   H6S20405   6.040   3.281   7.668 -0.0023 -1.1406 -0.2114
  179SOPE   C2720406   6.234   3.280   7.774 -0.0708 -0.5873 -0.6825
  179SOPE   H7R20407   6.257   3.174   7.751 -0.4397 -0.9709  0.6959
  179SOPE   H7S20408   6.333   3.329   7.787 -0.7737  1.1463 -1.7130
  179SOPE   C2820409   6.148   3.288   7.906  0.4585  0.2867  0.1420
  179SOPE   H8R20410   6.055   3.231   7.885 -0.3986  1.4665  0.6409
  179SOPE   H8S20411   6.185   3.220   7.985 -1.0869 -0.9038 -0.1480
  179SOPE   C2920412   6.112   3.430   7.942 -0.2731  0.0836  0.0289
  179SOPE   H9120413   6.084   3.500   7.862  2.8819  1.1346 -0.2182
  179SOPE  C21020414   6.111   3.489   8.061  0.1455 -0.1840  0.7818
  179SOPE  H10120415   6.082   3.595   8.067  1.7939  0.3441 -0.3023
  179SOPE  C21120416   6.148   3.432   8.201 -0.1445 -0.0961 -0.0918
  179SOPE  H11R20417   6.213   3.505   8.253 -0.8038  0.4462 -0.0274
  179SOPE  H11S20418   6.210   3.344   8.174  0.3781  0.7319 -1.5932
  179SOPE  C21220419   6.026   3.404   8.281  0.6995  0.2973  0.0553
  179SOPE  H12R20420   5.983   3.308   8.247  0.1891  1.5989 -3.1320
  179SOPE  H12S20421   5.953   3.489   8.278  1.0961  0.6101 -1.1066
  179SOPE  C21320422   6.062   3.393   8.437 -0.7430  0.0313 -0.1042
  179SOPE  H13R20423   5.962   3.386   8.483 -0.9400 -0.7740 -0.6387
  179SOPE  H13S20424   6.123   3.481   8.465  0.3035 -0.3241 -1.2052
  179SOPE  C21420425   6.142   3.263   8.480  0.0390  0.1946  0.1973
  179SOPE  H14R20426   6.182   3.281   8.582 -0.4027  0.8533  0.2586
  179SOPE  H14S20427   6.225   3.242   8.409 -1.3622 -0.3043 -1.3300
  179SOPE  C21520428   6.057   3.130   8.484 -0.2850  0.1616 -0.1060
  179SOPE  H15R20429   6.040   3.083   8.385 -0.9524 -0.1084  0.1256
  179SOPE  H15S20430   5.961   3.169   8.524 -0.1685 -0.5861  0.9401
  179SOPE  C21620431   6.123   3.022   8.571  0.0743 -0.3353  0.9337
  179SOPE  H16R20432   6.143   3.067   8.670  1.1119 -2.7463  1.8781
  179SOPE  H16S20433   6.221   2.988   8.529 -0.6662 -0.5085 -0.7036
  179SOPE  C21720434   6.038   2.902   8.592  0.1923  0.1154 -0.4851
  179SOPE  H17R20435   6.000   2.867   8.493  2.6582 -1.1430 -1.0558
  179SOPE  H17S20436   5.951   2.933   8.653  0.2584 -2.2042  0.8662
  179SOPE  C21820437   6.119   2.788   8.664  0.1007 -0.2282  0.2009
  179SOPE  H18R20438   6.056   2.702   8.694 -2.1963  0.3059 -2.7974
  179SOPE  H18S20439   6.185   2.817   8.748 -0.6497 -0.0933  0.7523
  179SOPE  H18T20440   6.180   2.739   8.585  0.4755 -0.3031  0.5342
  179SOPE   C3320441   5.758   3.552   7.569  1.1923 -0.1303 -0.1317
  179SOPE   H3X20442   5.746   3.444   7.545  0.4756 -0.3688  1.2283
  179SOPE   H3Y20443   5.651   3.582   7.563  0.9201 -1.0449  0.0129
  179SOPE   C3420444   5.809   3.561   7.712 -0.4335 -0.8095 -0.0283
  179SOPE   H4X20445   5.838   3.666   7.736  0.3644 -0.7157 -1.3495
  179SOPE   H4Y20446   5.904   3.503   7.719 -0.6301 -1.0689  0.4843
  179SOPE   C3520447   5.701   3.515   7.822 -0.2572 -0.1498 -0.2950
  179SOPE   H5X20448   5.684   3.408   7.801  1.6057 -0.6476  0.6233
  179SOPE   H5Y20449   5.611   3.577   7.799  1.6879  1.9398 -2.5632
  179SOPE   C3620450   5.755   3.512   7.971  0.1753  0.1857 -0.0154
  179SOPE   H6X20451   5.807   3.609   7.989  1.3110 -0.7425  1.8036
  179SOPE   H6Y20452   5.843   3.445   7.967  0.4203  0.5497 -1.2410
  179SOPE   C3720453   5.644   3.488   8.077  0.5831  0.6535 -0.2394
  179SOPE   H7X20454   5.600   3.388   8.062  1.4124  0.1194  0.8317
  179SOPE   H7Y20455   5.569   3.567   8.057  0.9701  0.5961 -2.0006
  179SOPE   C3820456   5.684   3.511   8.224 -0.0882 -0.3385  0.1913
  179SOPE   H8X20457   5.730   3.612   8.233  2.0143 -1.3036  0.5028
  179SOPE   H8Y20458   5.765   3.437   8.241  0.4253 -0.0092 -0.7750
  179SOPE   C3920459   5.566   3.505   8.317 -0.3516 -0.1705  0.2770
  179SOPE   H9X20460   5.530   3.401   8.303 -0.7487 -0.0317  0.2626
  179SOPE   H9Y20461   5.479   3.561   8.278 -1.6838 -0.8830  2.2003
  179SOPE  C31020462   5.589   3.524   8.466  0.4035 -0.1289 -0.3245
  179SOPE  H10X20463   5.603   3.633   8.482 -0.3887 -0.1862  0.8921
  179SOPE  H10Y20464   5.679   3.466   8.495  0.4126  1.6010  3.5320
  179SOPE  C31120465   5.467   3.493   8.546  0.3530 -0.6299  0.5501
  179SOPE  H11X20466   5.445   3.387   8.572 -2.6875 -0.0699  0.4455
  179SOPE  H11Y20467   5.375   3.527   8.493 -0.8129  0.0457  2.8985
  179SOPE  C31220468   5.473   3.573   8.671 -0.8616  0.1786  0.8902
  179SOPE  H12X20469   5.442   3.678   8.653  1.1003  1.2040  3.2710
  179SOPE  H12Y20470   5.577   3.574   8.709 -0.9806  2.1070  1.2212
  179SOPE  C31320471   5.385   3.521   8.787 -0.4430  0.1337 -0.0360
  179SOPE  H13X20472   5.391   3.588   8.875 -0.7947 -0.3804  0.3817
  179SOPE  H13Y20473   5.410   3.415   8.811  0.1368  0.0198 -1.0919
  179SOPE  C31420474   5.236   3.514   8.751  0.4073  1.0289 -0.2807
  179SOPE  H14X20475   5.227   3.441   8.668  0.6419 -0.3139  0.8755
  179SOPE  H14Y20476   5.207   3.620   8.730  0.8843  1.3210  0.5066
  179SOPE  C31520477   5.151   3.475   8.861 -0.1061  0.0978 -0.3715
  179SOPE  H15X20478   5.171   3.545   8.945 -0.8903 -0.8810  0.6503
  179SOPE  H15Y20479   5.181   3.372   8.892 -1.6619  0.4223  2.3983
  179SOPE  C31620480   4.996   3.461   8.833 -0.3943  0.0092  0.5685
  179SOPE  H16X20481   4.984   3.402   8.741  1.7068  0.6342 -0.1436
  179SOPE  H16Y20482   4.940   3.555   8.813 -0.8511  0.0163  1.7779
  179SOPE  C31720483   4.918   3.391   8.947  0.1048 -0.7025 -0.6683
  179SOPE  H17X20484   4.928   3.454   9.038  1.9053  1.5386 -2.3827
  179SOPE  H17Y20485   4.973   3.300   8.978 -0.4127 -0.0264  2.4775
  179SOPE  C31820486   4.768   3.359   8.916  0.7003 -0.8556  0.1370
  179SOPE  H18X20487   4.722   3.319   9.009  0.5955 -2.0866 -0.4203
  179SOPE  H18Y20488   4.735   3.284   8.840 -1.1545  0.2182 -0.1413
  179SOPE  H18Z20489   4.716   3.452   8.884  0.1581 -0.8929  0.9091
  180SOPE     N20490   4.736   4.110   6.177 -0.3369  0.0173 -0.2805
  180SOPE   HN120491   4.664   4.036   6.163  1.0862 -1.5677  0.6214
  180SOPE   HN220492   4.733   4.143   6.276  0.5328 -2.0588  0.4752
  180SOPE   HN320493   4.712   4.194   6.121  0.1416  2.9192  3.6027
  180SOPE   C1220494   4.864   4.052   6.142  0.5165 -0.2639 -0.0561
  180SOPE  H12A20495   4.933   4.133   6.110 -0.5982  0.1693 -1.4124
  180SOPE  H12B20496   4.852   4.007   6.041  0.7118  1.4460 -0.8671
  180SOPE   C1120497   4.912   3.961   6.254 -0.2622 -0.3294  0.3694
  180SOPE  H11A20498   4.840   3.881   6.281  1.4479 -1.5275  1.4793
  180SOPE  H11B20499   4.937   4.008   6.352 -1.1497 -1.7535  1.3011
  180SOPE     P20500   5.179   3.922   6.238  0.0310  0.0043 -0.3192
  180SOPE   O1320501   5.210   4.066   6.226  0.9918 -0.2897  0.9160
  180SOPE   O1420502   5.261   3.837   6.154 -0.5772 -0.1344  0.3703
  180SOPE   O1220503   5.023   3.895   6.203 -0.7180 -0.0284 -0.6569
  180SOPE   O1120504   5.190   3.883   6.393 -0.3070 -0.3663 -0.4322
  180SOPE    C120505   5.130   3.759   6.444 -0.8846 -0.2593  1.6244
  180SOPE    HA20506   5.183   3.670   6.404 -0.3027  0.7620  0.0493
  180SOPE    HB20507   5.027   3.747   6.403  0.1868 -3.9461 -0.2521
  180SOPE    C220508   5.114   3.762   6.598 -0.0847  0.6355  0.5004
  180SOPE    HS20509   5.210   3.807   6.632  0.5339  0.1067 -0.5389
  180SOPE   O2120510   5.096   3.630   6.655 -0.9342  0.5591 -0.0700
  180SOPE   C2120511   5.204   3.558   6.690  0.2660 -0.1283 -0.3955
  180SOPE   O2220512   5.319   3.595   6.679 -0.4569  0.4184 -0.9373
  180SOPE   C2220513   5.163   3.414   6.734  0.1811 -0.4067 -0.5594
  180SOPE   H2R20514   5.140   3.353   6.644  1.0634 -1.3179 -0.1730
  180SOPE   H2S20515   5.073   3.420   6.800  1.8785  0.6912  1.7018
  180SOPE    C320516   5.007   3.868   6.634 -0.2603 -0.2781  0.7446
  180SOPE    HX20517   4.915   3.839   6.578 -0.9511  4.0570 -0.5209
  180SOPE    HY20518   5.043   3.969   6.603 -0.7150  0.4489  2.5619
  180SOPE   O3120519   4.985   3.874   6.776 -0.4094 -0.0988 -0.2604
  180SOPE   C3120520   4.882   3.806   6.821 -0.0056 -1.1315 -0.1128
  180SOPE   O3220521   4.798   3.749   6.754 -0.3894  0.0290 -0.4439
  180SOPE   C3220522   4.883   3.804   6.970 -0.2199  0.3700 -0.2138
  180SOPE   H2X20523   4.912   3.906   7.002  0.7158  0.9954 -2.9179
  180SOPE   H2Y20524   4.966   3.732   6.986 -0.8107 -0.3849 -0.5108
  180SOPE   C2320525   5.265   3.340   6.828  0.5073  0.1476 -0.4993
  180SOPE   H3R20526   5.281   3.405   6.916 -0.7607  0.9689 -0.8721
  180SOPE   H3S20527   5.362   3.318   6.779  0.0217 -1.4563 -0.7705
  180SOPE   C2420528   5.197   3.212   6.883  0.7454 -0.0512 -0.0199
  180SOPE   H4R20529   5.113   3.236   6.951  0.7615 -0.5147  0.1684
  180SOPE   H4S20530   5.151   3.156   6.800  0.0360 -0.2453  0.5007
  180SOPE   C2520531   5.295   3.119   6.948 -0.5610  0.7546  0.3740
  180SOPE   H5R20532   5.243   3.024   6.972 -1.2959  1.3370  1.1301
  180SOPE   H5S20533   5.375   3.093   6.875 -0.7559  0.0621  0.4074
  180SOPE   C2620534   5.365   3.159   7.077 -0.0891 -0.0618  0.0365
  180SOPE   H6R20535   5.377   3.269   7.081  1.6458 -0.2691  1.1414
  180SOPE   H6S20536   5.290   3.143   7.157 -0.0541 -2.0697 -0.3104
  180SOPE   C2720537   5.482   3.076   7.125 -0.2975  0.9807  0.0826
  180SOPE   H7R20538   5.452   2.969   7.115 -0.0473  0.9598 -0.4835
  180SOPE   H7S20539   5.572   3.095   7.061  1.2111 -0.3076  1.7587
  180SOPE   C2820540   5.526   3.104   7.268  0.3094 -0.1017  0.9606
  180SOPE   H8R20541   5.561   3.210   7.271 -0.2713  0.1030  0.5462
  180SOPE   H8S20542   5.432   3.109   7.326 -1.4206 -4.0536 -1.2668
  180SOPE   C2920543   5.625   3.014   7.334 -0.2037 -0.0500  0.0073
  180SOPE   H9120544   5.678   2.956   7.258 -0.8960 -0.9606  0.2034
  180SOPE  C21020545   5.663   3.013   7.463 -0.7379  0.9134 -0.0180
  180SOPE  H10120546   5.743   2.948   7.499 -1.8116 -1.1881 -1.3155
  180SOPE  C21120547   5.609   3.103   7.571  0.2231 -0.1976 -0.2990
  180SOPE  H11R20548   5.579   3.201   7.529 -0.9215  1.1007  3.3327
  180SOPE  H11S20549   5.688   3.125   7.646 -0.4320  0.9000  0.0797
  180SOPE  C21220550   5.495   3.023   7.642  0.9220 -0.1793  0.2202
  180SOPE  H12R20551   5.526   2.918   7.660 -1.6003 -0.6521  2.0856
  180SOPE  H12S20552   5.411   3.023   7.570  1.0701  1.1690  0.0208
  180SOPE  C21320553   5.447   3.090   7.765  0.5990 -0.0153 -0.2375
  180SOPE  H13R20554   5.348   3.134   7.741  1.0950  0.7307 -0.9722
  180SOPE  H13S20555   5.522   3.169   7.786 -0.5896  1.1218 -0.2255
  180SOPE  C21420556   5.449   2.989   7.875  0.6633 -0.3428 -0.7215
  180SOPE  H14R20557   5.556   2.961   7.888  0.4436 -0.8995 -0.0541
  180SOPE  H14S20558   5.406   2.897   7.830  0.3645  0.1087 -1.3578
  180SOPE  C21520559   5.382   3.039   7.997 -0.2829 -0.2237 -0.1006
  180SOPE  H15R20560   5.281   3.083   7.980 -1.2343 -1.2582  2.6086
  180SOPE  H15S20561   5.449   3.115   8.043 -0.9447  0.0709  0.4027
  180SOPE  C21620562   5.369   2.923   8.101  0.5556  0.4638  0.6518
  180SOPE  H16R20563   5.470   2.882   8.126  2.3036  4.3997  0.3797
  180SOPE  H16S20564   5.296   2.844   8.075  0.4212  0.5678  0.7143
  180SOPE  C21720565   5.306   2.980   8.237 -0.4262 -0.1134 -0.4354
  180SOPE  H17R20566   5.229   3.054   8.207  0.0002  0.5060 -0.0066
  180SOPE  H17S20567   5.383   3.043   8.286 -0.0251 -1.5747  0.8317
  180SOPE  C21820568   5.256   2.876   8.335  0.4465  0.3499 -0.8378
  180SOPE  H18R20569   5.175   2.807   8.305  0.2066 -0.4446  1.5430
  180SOPE  H18S20570   5.221   2.930   8.426  2.0266 -0.6372  0.3951
  180SOPE  H18T20571   5.340   2.812   8.371 -0.9476  0.0403  1.9927
  180SOPE   C3320572   4.758   3.753   7.035  0.3754 -0.1144 -0.3692
  180SOPE   H3X20573   4.732   3.649   7.005  1.4802  0.0252 -1.8701
  180SOPE   H3Y20574   4.677   3.823   7.006 -1.9865 -1.7933  1.8941
  180SOPE   C3420575   4.767   3.758   7.183 -0.1543 -0.1268 -0.1763
  180SOPE   H4X20576   4.821   3.852   7.211 -2.3510  1.5470 -1.3618
  180SOPE   H4Y20577   4.823   3.670   7.219 -0.4088  0.1857  0.9967
  180SOPE   C3520578   4.638   3.766   7.250 -0.2133 -0.1212 -0.1137
  180SOPE   H5X20579   4.564   3.690   7.218 -0.0092  0.2280 -1.4272
  180SOPE   H5Y20580   4.595   3.864   7.221  1.7215  1.0487  0.8249
  180SOPE   C3620581   4.646   3.754   7.401  0.9281 -0.6825  0.1072
  180SOPE   H6X20582   4.671   3.650   7.430 -2.2788 -1.5957 -0.1968
  180SOPE   H6Y20583   4.542   3.773   7.437  1.2149 -1.1500  1.2260
  180SOPE   C3720584   4.727   3.858   7.474  0.0461  0.6607 -0.1179
  180SOPE   H7X20585   4.697   3.962   7.448 -1.1375  0.7000  1.3209
  180SOPE   H7Y20586   4.836   3.848   7.451 -0.2462  0.5658 -1.5061
  180SOPE   C3820587   4.723   3.847   7.628 -0.7177 -0.3498  0.0501
  180SOPE   H8X20588   4.780   3.929   7.676 -1.2375  0.0272  0.0274
  180SOPE   H8Y20589   4.775   3.751   7.648  1.3960  0.5134 -1.1462
  180SOPE   C3920590   4.583   3.853   7.699 -0.3096  0.8771 -0.0342
  180SOPE   H9X20591   4.518   3.770   7.662  2.1274 -1.0453 -0.0963
  180SOPE   H9Y20592   4.542   3.953   7.673 -0.6889  0.6543 -0.3056
  180SOPE  C31020593   4.593   3.826   7.849 -0.1760  0.9472  0.4655
  180SOPE  H10X20594   4.505   3.861   7.906 -1.3734 -0.4311 -0.4705
  180SOPE  H10Y20595   4.680   3.875   7.897  1.1527 -1.7664  0.9464
  180SOPE  C31120596   4.611   3.673   7.872  0.9209  0.3242 -0.2659
  180SOPE  H11X20597   4.697   3.635   7.813  0.4034 -1.2844  0.0039
  180SOPE  H11Y20598   4.516   3.634   7.829  0.8248 -0.1381  0.3611
  180SOPE  C31220599   4.631   3.629   8.017 -0.0236 -0.0167  0.0066
  180SOPE  H12X20600   4.699   3.706   8.060 -1.0751 -0.0861  1.8510
  180SOPE  H12Y20601   4.668   3.525   8.016  0.9491  0.3244 -1.7499
  180SOPE  C31320602   4.510   3.638   8.105  0.2480  0.2766  0.3476
  180SOPE  H13X20603   4.428   3.581   8.056 -0.4248  2.6763 -1.4198
  180SOPE  H13Y20604   4.469   3.741   8.118  0.8345  0.1027  3.9404
  180SOPE  C31420605   4.546   3.596   8.243  0.0445  0.0583 -0.2706
  180SOPE  H14X20606   4.627   3.655   8.291  2.1910 -2.8425 -0.1241
  180SOPE  H14Y20607   4.595   3.496   8.237 -0.6549 -0.3055  0.0467
  180SOPE  C31520608   4.431   3.593   8.334  0.2245 -0.2924 -0.3892
  180SOPE  H15X20609   4.361   3.519   8.290  2.0821  0.2604 -4.5929
  180SOPE  H15Y20610   4.376   3.687   8.353 -1.2243 -1.1586 -0.2292
  180SOPE  C31620611   4.467   3.557   8.482  0.3176 -0.7766  0.9486
  180SOPE  H16X20612   4.546   3.622   8.526 -1.2981  2.1346 -0.3038
  180SOPE  H16Y20613   4.514   3.457   8.487  0.1592 -1.0324 -1.8247
  180SOPE  C31720614   4.350   3.544   8.586 -0.1721  0.2001 -0.1773
  180SOPE  H17X20615   4.301   3.643   8.597  1.2564  0.7207  1.6924
  180SOPE  H17Y20616   4.395   3.512   8.682  0.7371 -0.0053 -0.6683
  180SOPE  C31820617   4.237   3.441   8.540  0.3184  0.9585  0.4597
  180SOPE  H18X20618   4.151   3.456   8.609  0.0552 -1.3910  0.6686
  180SOPE  H18Y20619   4.274   3.336   8.541 -1.4611  0.3308  1.7193
  180SOPE  H18Z20620   4.203   3.466   8.437 -0.4296  0.3661  0.5588
  181SOPE     N20621   5.653   1.237   6.039 -0.0240  0.5057 -0.2897
  181SOPE   HN120622   5.692   1.167   6.106  0.0608  1.7893  1.0352
  181SOPE   HN220623   5.685   1.330   6.072 -1.7843  0.8895  0.4463
  181SOPE   HN320624   5.550   1.233   6.054 -0.1697  2.8403 -0.6028
  181SOPE   C1220625   5.667   1.216   5.890 -0.4156 -0.1011  0.5152
  181SOPE  H12A20626   5.775   1.212   5.864 -0.7591 -2.7434 -0.5678
  181SOPE  H12B20627   5.619   1.306   5.845  0.4584  0.4215  0.6113
  181SOPE   C1120628   5.593   1.097   5.838  0.1439  0.2246 -0.3216
  181SOPE  H11A20629   5.617   1.104   5.730  0.7676 -0.9732 -0.2696
  181SOPE  H11B20630   5.483   1.109   5.838  0.0316 -0.5526  1.8316
  181SOPE     P20631   5.536   0.882   5.985 -0.0841  0.4682  0.0347
  181SOPE   O1320632   5.610   0.804   6.091  0.2832 -0.4871 -0.4251
  181SOPE   O1420633   5.457   0.803   5.888 -0.0720 -0.5737  0.3310
  181SOPE   O1220634   5.631   0.973   5.908 -0.1911  0.3276 -0.2994
  181SOPE   O1120635   5.448   0.994   6.053  0.4133 -0.2750 -0.2995
  181SOPE    C120636   5.301   0.983   6.053 -0.0972 -0.4849 -0.2891
  181SOPE    HA20637   5.261   0.919   5.972 -0.2819 -0.8004  0.0528
  181SOPE    HB20638   5.244   1.076   6.036 -2.8084 -2.5775 -3.2088
  181SOPE    C220639   5.238   0.920   6.178  0.3354 -0.2077 -0.8606
  181SOPE    HS20640   5.132   0.895   6.157 -0.0939  0.4715  0.4746
  181SOPE   O2120641   5.237   1.019   6.288  0.1657 -0.1176  0.4545
  181SOPE   C2120642   5.155   1.008   6.385 -0.1760 -0.0959 -0.5110
  181SOPE   O2220643   5.057   0.944   6.385  0.4065  0.0148 -0.7348
  181SOPE   C2220644   5.188   1.097   6.498  0.8350  0.0118  0.0156
  181SOPE   H2R20645   5.170   1.199   6.455 -1.0998 -0.3048  0.0329
  181SOPE   H2S20646   5.293   1.080   6.531  1.1146  1.5467 -0.0085
  181SOPE    C320647   5.313   0.792   6.233 -0.3700  0.2078 -0.3835
  181SOPE    HX20648   5.418   0.822   6.253 -0.6993  1.1685 -0.0464
  181SOPE    HY20649   5.317   0.717   6.151  0.6188 -0.4733  0.2769
  181SOPE   O3120650   5.250   0.732   6.345  0.2096  0.4466  0.4825
  181SOPE   C3120651   5.324   0.718   6.454 -0.8944  0.0675  0.8075
  181SOPE   O3220652   5.442   0.740   6.469 -0.1053 -0.5648 -0.0388
  181SOPE   C3220653   5.234   0.671   6.568 -0.7128  0.5599  0.1322
  181SOPE   H2X20654   5.230   0.560   6.561 -0.5914  0.3110  3.2230
  181SOPE   H2Y20655   5.129   0.703   6.550 -0.9690 -0.4638 -0.2265
  181SOPE   C2320656   5.095   1.061   6.621  0.4070 -0.1145  0.3353
  181SOPE   H3R20657   5.110   0.961   6.666  1.7814  1.0075  2.4909
  181SOPE   H3S20658   4.990   1.074   6.587 -0.5269 -1.4202  2.6193
  181SOPE   C2420659   5.120   1.161   6.737 -0.4210 -0.0750 -0.6159
  181SOPE   H4R20660   5.227   1.155   6.767 -1.1047 -1.1134  1.7345
  181SOPE   H4S20661   5.099   1.253   6.678 -3.4325 -0.7240 -0.6084
  181SOPE   C2520662   5.021   1.138   6.854 -0.3190 -0.1522  0.4876
  181SOPE   H5R20663   4.913   1.143   6.827 -0.1190 -0.9206 -0.4511
  181SOPE   H5S20664   5.048   1.035   6.885  1.3156 -0.5501 -2.1451
  181SOPE   C2620665   5.035   1.246   6.963  0.0757 -0.0461  0.1521
  181SOPE   H6R20666   5.009   1.344   6.917  0.6115 -1.1180 -2.5018
  181SOPE   H6S20667   4.957   1.227   7.040 -1.2223  1.7557 -0.6801
  181SOPE   C2720668   5.171   1.258   7.025 -0.1911  0.3279  0.4312
  181SOPE   H7R20669   5.211   1.157   7.049 -1.1738 -0.6768 -1.9974
  181SOPE   H7S20670   5.249   1.309   6.964 -1.6931  2.5551  0.3094
  181SOPE   C2820671   5.154   1.332   7.160 -0.0929  0.1002  0.0374
  181SOPE   H8R20672   5.103   1.426   7.131 -0.2807 -0.2374 -0.7709
  181SOPE   H8S20673   5.091   1.276   7.231  0.2766  0.0177  0.3033
  181SOPE   C2920674   5.289   1.364   7.224 -0.3255 -0.3919  0.2939
  181SOPE   H9120675   5.367   1.288   7.207  0.2701  0.3785 -0.4815
  181SOPE  C21020676   5.339   1.476   7.292  0.4852  0.2643 -0.0062
  181SOPE  H10120677   5.444   1.476   7.325  0.6845  1.6255 -0.6048
  181SOPE  C21120678   5.260   1.597   7.323  0.2111  0.3913 -0.2103
  181SOPE  H11R20679   5.195   1.626   7.238 -1.2878  1.6119  1.3100
  181SOPE  H11S20680   5.333   1.680   7.333 -1.6724  2.0461  0.3183
  181SOPE  C21220681   5.170   1.590   7.454 -1.1033  0.1671  0.4015
  181SOPE  H12R20682   5.111   1.495   7.459  1.3219 -1.4446 -0.8866
  181SOPE  H12S20683   5.100   1.676   7.449 -1.4843 -0.2161 -1.0903
  181SOPE  C21320684   5.263   1.602   7.580  0.0299  0.2958  0.3299
  181SOPE  H13R20685   5.322   1.694   7.558 -0.4002  0.1499 -1.5839
  181SOPE  H13S20686   5.337   1.519   7.582 -1.4932 -1.1551 -1.7783
  181SOPE  C21420687   5.189   1.617   7.713 -0.0834 -0.0053  0.2492
  181SOPE  H14R20688   5.149   1.515   7.736  0.1303 -0.0927  0.2300
  181SOPE  H14S20689   5.098   1.678   7.693  1.8011  2.1882 -2.0685
  181SOPE  C21520690   5.279   1.663   7.822 -0.0404 -0.8798 -0.8025
  181SOPE  H15R20691   5.325   1.761   7.799 -0.4641 -0.5140 -0.1132
  181SOPE  H15S20692   5.355   1.586   7.846  1.4563  0.3770 -1.4333
  181SOPE  C21620693   5.200   1.686   7.957 -0.2417 -0.7481 -0.2186
  181SOPE  H16R20694   5.265   1.721   8.039 -0.1460 -1.9941  0.2523
  181SOPE  H16S20695   5.169   1.584   7.990  1.9034 -0.8526  1.6264
  181SOPE  C21720696   5.088   1.790   7.942  0.1482  0.2584  0.1375
  181SOPE  H17R20697   5.025   1.801   8.033  0.1860 -1.5449  0.4098
  181SOPE  H17S20698   5.015   1.748   7.869 -0.3138  1.5368 -0.1421
  181SOPE  C21820699   5.134   1.929   7.892  0.6698  0.0537  0.2203
  181SOPE  H18R20700   5.169   1.926   7.786  1.9780  1.0594  0.6063
  181SOPE  H18S20701   5.208   1.972   7.963  0.4873 -0.7556  0.9096
  181SOPE  H18T20702   5.045   1.994   7.888  0.4448 -0.3611 -2.9840
  181SOPE   C3320703   5.284   0.732   6.694 -0.0144  0.6217 -0.2615
  181SOPE   H3X20704   5.294   0.843   6.690 -0.5006  0.6311 -2.1663
  181SOPE   H3Y20705   5.382   0.684   6.712 -1.1090 -1.6080 -0.1376
  181SOPE   C3420706   5.194   0.707   6.824 -0.3492 -0.0647 -0.5768
  181SOPE   H4X20707   5.186   0.598   6.841 -2.9456 -0.1213 -1.8927
  181SOPE   H4Y20708   5.097   0.761   6.816 -1.1781 -1.1541  1.7212
  181SOPE   C3520709   5.272   0.777   6.933  0.4494 -0.1279  0.9132
  181SOPE   H5X20710   5.278   0.882   6.897  0.8348 -0.0352  1.2362
  181SOPE   H5Y20711   5.378   0.745   6.948  0.1072 -0.8547  1.8571
  181SOPE   C3620712   5.189   0.790   7.064  0.8645 -0.5890  0.4746
  181SOPE   H6X20713   5.148   0.698   7.111  0.8644 -1.4733 -1.2150
  181SOPE   H6Y20714   5.100   0.850   7.038  2.3329  0.5327 -2.0928
  181SOPE   C3720715   5.255   0.871   7.177  0.6968 -0.0417  0.0787
  181SOPE   H7X20716   5.325   0.945   7.132  0.4383 -0.6843 -1.4122
  181SOPE   H7Y20717   5.316   0.798   7.234  1.9962  0.3382 -0.8165
  181SOPE   C3820718   5.162   0.955   7.265  0.9810  0.3810 -0.5251
  181SOPE   H8X20719   5.083   0.882   7.294  0.4464  1.2474  0.2168
  181SOPE   H8Y20720   5.123   1.037   7.201  2.6824  0.5193 -1.4311
  181SOPE   C3920721   5.233   1.018   7.393  0.4273 -0.3201  0.4353
  181SOPE   H9X20722   5.295   1.097   7.347  1.1929  0.1005  2.1358
  181SOPE   H9Y20723   5.303   0.942   7.435 -0.0342  0.3653  2.4983
  181SOPE  C31020724   5.143   1.089   7.498 -0.1224  0.6330 -0.2154
  181SOPE  H10X20725   5.069   1.024   7.550 -0.5438  2.3267  1.4035
  181SOPE  H10Y20726   5.091   1.172   7.446  1.1116  0.5077 -1.6569
  181SOPE  C31120727   5.233   1.146   7.609  0.3934  0.7251  0.4667
  181SOPE  H11X20728   5.283   1.232   7.559 -0.6817  1.2359  0.2624
  181SOPE  H11Y20729   5.306   1.065   7.628  0.4071  0.4537 -0.6948
  181SOPE  C31220730   5.159   1.185   7.738  0.1740  0.6670  0.2472
  181SOPE  H12X20731   5.104   1.100   7.784 -0.2516  0.3809 -0.7806
  181SOPE  H12Y20732   5.093   1.272   7.717 -1.6027 -1.0775 -1.5107
  181SOPE  C31320733   5.253   1.230   7.863  0.0338 -0.8626 -0.3175
  181SOPE  H13X20734   5.309   1.316   7.822 -0.0849  0.5475  2.3878
  181SOPE  H13Y20735   5.331   1.152   7.876  1.4064  0.5732  0.0760
  181SOPE  C31420736   5.182   1.260   7.998  0.1683  0.1165  0.3186
  181SOPE  H14X20737   5.144   1.160   8.028  0.1393 -0.5146 -1.7095
  181SOPE  H14Y20738   5.097   1.330   7.983 -0.0600  0.0835  1.4648
  181SOPE  C31520739   5.280   1.308   8.105 -0.5947  0.3873  0.8763
  181SOPE  H15X20740   5.320   1.407   8.075 -2.1348  0.8037  0.1472
  181SOPE  H15Y20741   5.361   1.233   8.113  0.7189  1.7165  0.1641
  181SOPE  C31620742   5.217   1.317   8.250  0.5858  0.0428  0.5442
  181SOPE  H16X20743   5.169   1.223   8.286 -0.4062  1.3196  2.6285
  181SOPE  H16Y20744   5.134   1.390   8.237  1.5863  1.1736  0.4206
  181SOPE  C31720745   5.318   1.359   8.356  0.1727 -0.5215 -0.7020
  181SOPE  H17X20746   5.259   1.380   8.448  1.9386 -0.0773  0.3391
  181SOPE  H17Y20747   5.370   1.455   8.333 -2.1862  0.5611 -1.6881
  181SOPE  C31820748   5.417   1.248   8.389  0.2946 -0.0982 -0.3601
  181SOPE  H18X20749   5.472   1.260   8.485 -2.2893 -1.1565  1.3253
  181SOPE  H18Y20750   5.482   1.236   8.300 -1.9553  3.5168 -2.6157
  181SOPE  H18Z20751   5.359   1.157   8.413 -0.5626  0.4052 -0.5147
  182SOPE     N20752   6.067   3.080   6.364  0.0823 -0.4104 -0.5173
  182SOPE   HN120753   6.013   3.108   6.279 -0.9599 -0.0933  0.2290
  182SOPE   HN220754   6.054   3.148   6.443 -0.5629  2.7180 -3.2059
  182SOPE   HN320755   6.169   3.077   6.348  0.3882  0.6992  1.0615
  182SOPE   C1220756   6.026   2.942   6.428 -0.1879 -0.2200  0.7691
  182SOPE  H12A20757   6.094   2.934   6.516 -0.6565 -0.1798  1.1324
  182SOPE  H12B20758   6.045   2.866   6.348 -0.0642  1.3196 -0.6829
  182SOPE   C1120759   5.880   2.952   6.477 -0.0511 -0.1902  0.3710
  182SOPE  H11A20760   5.875   3.017   6.567 -1.6701 -3.3006  2.6234
  182SOPE  H11B20761   5.848   2.852   6.512  2.4949 -1.8888 -1.9145
  182SOPE     P20762   5.644   2.974   6.357 -0.4916 -0.2592  0.1299
  182SOPE   O1320763   5.622   2.899   6.228 -0.8568  0.0991 -0.2098
  182SOPE   O1420764   5.582   3.112   6.368 -0.6956  0.5410 -0.2388
  182SOPE   O1220765   5.799   3.003   6.376  0.0778 -0.0067  0.6227
  182SOPE   O1120766   5.599   2.879   6.474  0.5932  0.6085 -0.2024
  182SOPE    C120767   5.549   2.933   6.597 -0.2826  0.6191  0.1551
  182SOPE    HA20768   5.444   2.966   6.588 -0.1021  1.1769  0.1142
  182SOPE    HB20769   5.610   3.015   6.640  2.0809 -1.0594  0.1567
  182SOPE    C220770   5.551   2.828   6.706 -0.5747  0.0600 -0.2231
  182SOPE    HS20771   5.503   2.867   6.798  2.7950  1.7090  0.9450
  182SOPE   O2120772   5.692   2.806   6.749  0.1162  0.7053 -0.2782
  182SOPE   C2120773   5.738   2.888   6.838 -0.8031  0.2121 -0.1252
  182SOPE   O2220774   5.687   2.984   6.886  0.0329  0.5056 -0.1198
  182SOPE   C2220775   5.882   2.833   6.875 -0.6766 -0.3820 -0.2090
  182SOPE   H2R20776   5.949   2.904   6.821 -0.4144  1.2833  2.2339
  182SOPE   H2S20777   5.895   2.729   6.840  0.7412 -0.8939  1.7503
  182SOPE    C320778   5.475   2.698   6.673 -0.5412 -1.2294  0.1764
  182SOPE    HX20779   5.542   2.628   6.619 -0.3346  0.7487 -2.2323
  182SOPE    HY20780   5.391   2.723   6.604 -0.5487  1.4537  1.0839
  182SOPE   O3120781   5.426   2.628   6.792  0.7773  0.0288 -0.7588
  182SOPE   C3120782   5.311   2.675   6.846  0.0936  0.0933  1.0985
  182SOPE   O3220783   5.248   2.770   6.808 -0.1885 -0.3925  0.0996
  182SOPE   C3220784   5.274   2.580   6.964  0.4660  0.7654  0.0376
  182SOPE   H2X20785   5.366   2.555   7.021  2.0283  3.0453 -1.3717
  182SOPE   H2Y20786   5.246   2.484   6.917 -2.4145  1.1753  0.8532
  182SOPE   C2320787   5.896   2.829   7.031 -0.8662 -0.0157 -0.3390
  182SOPE   H3R20788   5.827   2.757   7.080 -0.3994  1.1724  2.1201
  182SOPE   H3S20789   5.879   2.932   7.068 -1.2192 -0.0092 -0.5200
  182SOPE   C2420790   6.047   2.791   7.074 -0.8188 -0.4173  0.4143
  182SOPE   H4R20791   6.070   2.691   7.032 -0.5573 -2.2822  4.7271
  182SOPE   H4S20792   6.101   2.869   7.016 -1.7549 -0.5629 -0.6730
  182SOPE   C2520793   6.082   2.808   7.224  0.2495  0.4426  0.1109
  182SOPE   H5R20794   6.072   2.918   7.236  2.2010  0.7868 -1.2672
  182SOPE   H5S20795   6.000   2.761   7.283  1.2990 -1.1417  0.3424
  182SOPE   C2620796   6.217   2.752   7.258  0.4525  0.1812  0.1078
  182SOPE   H6R20797   6.219   2.642   7.275  1.3502 -0.1168 -1.8727
  182SOPE   H6S20798   6.296   2.780   7.185 -1.6014 -1.1716 -2.6808
  182SOPE   C2720799   6.264   2.813   7.389  0.2732  0.0681 -0.1588
  182SOPE   H7R20800   6.336   2.744   7.438  1.2442  0.1020 -1.5224
  182SOPE   H7S20801   6.305   2.913   7.362  1.2575  0.3715  2.2572
  182SOPE   C2820802   6.155   2.832   7.502 -0.1684 -0.5522  0.9750
  182SOPE   H8R20803   6.082   2.905   7.462  0.6216  0.4908  1.3962
  182SOPE   H8S20804   6.102   2.736   7.515  1.3580 -1.5318  0.1158
  182SOPE   C2920805   6.199   2.886   7.630 -0.6931  0.0044  0.2836
  182SOPE   H9120806   6.307   2.903   7.637 -0.7998  1.3999 -1.3734
  182SOPE  C21020807   6.120   2.909   7.738  0.8885  0.4387 -0.5731
  182SOPE  H10120808   6.159   2.955   7.830  0.9337 -1.6650  0.4843
  182SOPE  C21120809   5.967   2.879   7.742  0.3389 -0.5771  0.4804
  182SOPE  H11R20810   5.937   2.790   7.802 -0.8738  0.3546  1.2805
  182SOPE  H11S20811   5.927   2.866   7.639 -2.4361  2.9774  0.9994
  182SOPE  C21220812   5.875   2.996   7.804  0.3248 -0.3972  0.2066
  182SOPE  H12R20813   5.770   2.987   7.770  0.4244  0.8367 -0.4469
  182SOPE  H12S20814   5.917   3.090   7.761 -1.2462 -0.6043 -1.8272
  182SOPE  C21320815   5.873   2.997   7.962 -0.0246  0.0103 -0.3596
  182SOPE  H13R20816   5.982   2.989   7.984 -0.0062  1.1159 -0.0330
  182SOPE  H13S20817   5.819   2.906   7.998 -2.4982  1.2819 -0.7941
  182SOPE  C21420818   5.806   3.121   8.023  0.2268  0.1319  0.2317
  182SOPE  H14R20819   5.700   3.127   7.990  0.4233 -2.0033 -0.8823
  182SOPE  H14S20820   5.848   3.215   7.983 -0.1272  0.6318  1.0186
  182SOPE  C21520821   5.803   3.120   8.178 -0.5976  0.2972  0.3558
  182SOPE  H15R20822   5.798   3.224   8.214  2.0067 -0.0063  1.6978
  182SOPE  H15S20823   5.894   3.073   8.221 -0.5034  0.7761  0.6744
  182SOPE  C21620824   5.679   3.052   8.228 -0.3261  1.0152  0.3337
  182SOPE  H16R20825   5.666   2.953   8.179  1.2182  1.1094 -0.2782
  182SOPE  H16S20826   5.590   3.118   8.221  0.8560  2.6612  0.5331
  182SOPE  C21720827   5.697   3.027   8.377  0.1692 -0.4309  0.1134
  182SOPE  H17R20828   5.705   3.128   8.422  3.3094  0.7824 -2.9682
  182SOPE  H17S20829   5.795   2.976   8.388 -0.2260 -1.1000  0.5632
  182SOPE  C21820830   5.592   2.940   8.457  0.1980 -0.1539  0.6898
  182SOPE  H18R20831   5.572   2.843   8.406  2.6451 -0.3637  0.0405
  182SOPE  H18S20832   5.496   2.996   8.463  0.5023  0.7170 -1.9147
  182SOPE  H18T20833   5.626   2.913   8.559 -0.9140  0.2039  1.1586
  182SOPE   C3320834   5.171   2.626   7.062 -0.9299 -0.8079 -0.4486
  182SOPE   H3X20835   5.126   2.536   7.109 -0.2649 -2.0584 -2.1597
  182SOPE   H3Y20836   5.098   2.689   7.008  0.8038  0.5514 -1.2710
  182SOPE   C3420837   5.235   2.716   7.173 -0.5440  0.2282 -0.4896
  182SOPE   H4X20838   5.291   2.791   7.114 -1.8061  0.4742 -1.3879
  182SOPE   H4Y20839   5.300   2.647   7.232  0.0300  0.9579 -0.2728
  182SOPE   C3520840   5.141   2.788   7.274  0.6386 -0.6320  0.6792
  182SOPE   H5X20841   5.077   2.711   7.323 -1.1569  0.9805  0.9021
  182SOPE   H5Y20842   5.062   2.847   7.225  1.5560  0.2220  0.2321
  182SOPE   C3620843   5.207   2.885   7.379 -0.1325  0.5513 -0.1468
  182SOPE   H6X20844   5.259   2.972   7.333 -1.1000 -0.1339 -2.6315
  182SOPE   H6Y20845   5.285   2.839   7.443 -0.5407  0.4193  0.2595
  182SOPE   C3720846   5.104   2.965   7.468  0.3626  0.2213 -0.5374
  182SOPE   H7X20847   5.022   3.008   7.406 -1.2034 -1.8244  0.0617
  182SOPE   H7Y20848   5.171   3.047   7.504 -0.2823  0.2915  0.5393
  182SOPE   C3820849   5.052   2.863   7.568  0.7188 -0.5315 -0.1582
  182SOPE   H8X20850   5.131   2.803   7.617 -0.2281 -0.0993  1.9452
  182SOPE   H8Y20851   4.975   2.800   7.519 -0.0636 -0.2265  0.6646
  182SOPE   C3920852   4.975   2.927   7.681 -0.9179  0.5194 -0.2142
  182SOPE   H9X20853   4.869   2.947   7.656 -0.9029 -1.2530 -1.7548
  182SOPE   H9Y20854   5.040   3.014   7.706  0.1777 -0.6510  1.0867
  182SOPE  C31020855   4.992   2.836   7.807  0.3091  0.2579 -0.0379
  182SOPE  H10X20856   5.092   2.793   7.829  0.2206 -0.5414 -1.1398
  182SOPE  H10Y20857   4.932   2.742   7.798 -0.1561  0.4179  1.2378
  182SOPE  C31120858   4.953   2.903   7.937  0.0652  0.6262  0.7111
  182SOPE  H11X20859   4.848   2.941   7.929  0.0894  0.4039 -0.9217
  182SOPE  H11Y20860   5.021   2.987   7.962  1.2387 -0.2845  0.6081
  182SOPE  C31220861   4.968   2.803   8.049 -0.4296  0.1272 -0.5482
  182SOPE  H12X20862   5.078   2.796   8.065 -0.0475  1.1073 -2.5606
  182SOPE  H12Y20863   4.932   2.700   8.028 -0.4297  0.0759 -0.3054
  182SOPE  C31320864   4.899   2.861   8.173  0.4456 -0.6379 -0.2584
  182SOPE  H13X20865   4.915   2.970   8.182  1.2160 -0.8477  0.9882
  182SOPE  H13Y20866   4.951   2.815   8.260 -1.6025 -0.7707  0.9223
  182SOPE  C31420867   4.749   2.819   8.191 -0.6010  0.8108 -0.1143
  182SOPE  H14X20868   4.757   2.708   8.187 -0.9908  0.8152 -1.1508
  182SOPE  H14Y20869   4.696   2.842   8.096 -1.2591 -0.8379 -0.1596
  182SOPE  C31520870   4.676   2.865   8.317 -0.9369  1.1440  0.3285
  182SOPE  H15X20871   4.660   2.975   8.318 -0.8480  1.1729  2.6237
  182SOPE  H15Y20872   4.738   2.840   8.406 -1.1761  1.0797  0.4794
  182SOPE  C31620873   4.540   2.803   8.324 -0.2399 -0.0546 -0.2642
  182SOPE  H16X20874   4.542   2.691   8.321  0.0221 -0.0381 -0.8026
  182SOPE  H16Y20875   4.495   2.830   8.226  0.0497 -1.4659 -0.8062
  182SOPE  C31720876   4.441   2.848   8.433 -0.0333 -0.3640  0.7777
  182SOPE  H17X20877   4.496   2.814   8.523  0.3361 -1.1937  0.2534
  182SOPE  H17Y20878   4.340   2.802   8.440 -1.4076  1.8163 -3.0993
  182SOPE  C31820879   4.415   2.997   8.429 -0.6851 -0.2717  0.1192
  182SOPE  H18X20880   4.412   3.022   8.321  0.1026 -0.9223 -0.0600
  182SOPE  H18Y20881   4.511   3.042   8.462 -0.6022 -1.8723  2.2152
  182SOPE  H18Z20882   4.330   3.028   8.493 -2.7887 -1.9349 -1.7768
  183SOPE     N20883   0.739   0.222   6.184  0.1113 -0.6117 -0.0425
  183SOPE   HN120884   0.783   0.273   6.263  3.3574 -0.5748 -1.7725
  183SOPE   HN220885   0.646   0.266   6.167 -0.5059 -1.6547  0.5926
  183SOPE   HN320886   0.710   0.125   6.209 -0.8701 -0.7520 -1.6313
  183SOPE   C1220887   0.827   0.233   6.058  0.8711  0.6850  0.2866
  183SOPE  H12A20888   0.805   0.323   5.998 -1.9377 -0.7090 -0.8766
  183SOPE  H12B20889   0.810   0.148   5.989  1.5241  0.4200  0.4410
  183SOPE   C1120890   0.971   0.253   6.110  0.5192  1.0665 -0.2587
  183SOPE  H11A20891   1.033   0.256   6.018 -1.0016  1.0323 -1.3118
  183SOPE  H11B20892   0.993   0.163   6.171  0.9852  1.2661 -0.1322
  183SOPE     P20893   1.105   0.430   6.240 -0.4572 -0.0179 -0.1935
  183SOPE   O1320894   1.130   0.557   6.169  0.3000  0.4243 -0.0626
  183SOPE   O1420895   1.208   0.324   6.217 -0.2696 -0.6342 -0.1411
  183SOPE   O1220896   0.970   0.376   6.189 -0.0887  0.1881 -0.4456
  183SOPE   O1120897   1.090   0.452   6.396 -0.1643  0.8420  0.0796
  183SOPE    C120898   1.046   0.342   6.477  0.0107 -0.5116  0.3110
  183SOPE    HA20899   1.118   0.258   6.464 -0.3156 -0.6918 -0.3527
  183SOPE    HB20900   0.944   0.306   6.452  0.2603 -1.7065  0.9646
  183SOPE    C220901   1.054   0.375   6.624  0.5036  0.4014 -0.3660
  183SOPE    HS20902   0.999   0.471   6.633 -2.6314 -1.0641 -2.6299
  183SOPE   O2120903   1.195   0.382   6.655  0.1549 -0.0665 -0.3011
  183SOPE   C2120904   1.221   0.480   6.741  0.5138  0.1472 -0.1553
  183SOPE   O2220905   1.139   0.552   6.800  0.5712 -0.0275  0.2032
  183SOPE   C2220906   1.376   0.485   6.746  0.7487 -0.2460 -0.0807
  183SOPE   H2R20907   1.412   0.534   6.654  0.0743  1.1622  0.3943
  183SOPE   H2S20908   1.414   0.380   6.753  1.8988  0.1527 -0.2498
  183SOPE    C320909   0.984   0.270   6.712  0.1498 -0.1153 -0.6565
  183SOPE    HX20910   1.034   0.171   6.701  0.9231  0.2853 -0.7751
  183SOPE    HY20911   0.878   0.258   6.681  0.5221 -0.3634 -1.8912
  183SOPE   O3120912   0.988   0.309   6.850  0.2623 -0.1653 -0.0553
  183SOPE   C3120913   0.891   0.387   6.902  0.2962  1.0236  0.0334
  183SOPE   O3220914   0.792   0.425   6.844 -0.1594 -0.5168 -0.3315
  183SOPE   C3220915   0.932   0.434   7.040 -0.2646 -0.3505 -0.3725
  183SOPE   H2X20916   0.840   0.449   7.100 -0.2496 -0.5423 -0.2997
  183SOPE   H2Y20917   0.978   0.533   7.021  1.5192 -0.9114  0.8261
  183SOPE   C2320918   1.425   0.571   6.868  0.3676 -0.9240  0.0002
  183SOPE   H3R20919   1.377   0.671   6.876 -1.4162 -1.7896  0.4542
  183SOPE   H3S20920   1.533   0.576   6.842  0.5150  0.2814  0.7940
  183SOPE   C2420921   1.414   0.498   7.005  0.2365  0.0733  0.5709
  183SOPE   H4R20922   1.315   0.469   7.045  1.6924 -1.6511  3.0592
  183SOPE   H4S20923   1.441   0.390   7.002 -0.7983 -0.2663  2.9000
  183SOPE   C2520924   1.497   0.560   7.120  0.0142 -0.3349  0.7601
  183SOPE   H5R20925   1.585   0.603   7.066 -1.2856  1.0894 -0.2567
  183SOPE   H5S20926   1.447   0.653   7.154  0.8580 -0.6197  2.8243
  183SOPE   C2620927   1.545   0.465   7.228  0.9189 -0.3629  0.1359
  183SOPE   H6R20928   1.468   0.391   7.259  0.5946 -0.1702 -0.2065
  183SOPE   H6S20929   1.628   0.396   7.198  1.3644 -0.8242  2.3329
  183SOPE   C2720930   1.600   0.538   7.364 -0.1054 -0.1341 -0.2063
  183SOPE   H7R20931   1.694   0.590   7.336  0.3684 -0.1256  1.3584
  183SOPE   H7S20932   1.530   0.622   7.386  1.3336  0.9536  0.3554
  183SOPE   C2820933   1.617   0.436   7.483 -0.8674 -0.7576  0.2580
  183SOPE   H8R20934   1.517   0.389   7.490 -2.1331  1.8601  0.5873
  183SOPE   H8S20935   1.696   0.364   7.452  0.7421  1.2283 -0.4222
  183SOPE   C2920936   1.666   0.517   7.605 -0.0073 -0.2634 -0.7653
  183SOPE   H9120937   1.697   0.618   7.575 -1.7898 -0.1285 -2.2638
  183SOPE  C21020938   1.674   0.472   7.731  0.4814  0.0356 -0.7664
  183SOPE  H10120939   1.728   0.526   7.809 -1.0416 -1.2610  1.2398
  183SOPE  C21120940   1.627   0.338   7.774  0.0708  0.5751 -0.0351
  183SOPE  H11R20941   1.703   0.296   7.844  0.0019  1.4261  0.5584
  183SOPE  H11S20942   1.624   0.269   7.687  2.0798 -0.5044  0.7158
  183SOPE  C21220943   1.484   0.339   7.826  0.0620 -0.7414 -0.3673
  183SOPE  H12R20944   1.460   0.230   7.825  3.9978 -1.6907 -1.1846
  183SOPE  H12S20945   1.411   0.390   7.760 -2.3364 -1.2517  1.8054
  183SOPE  C21320946   1.478   0.393   7.970 -0.5158  0.2557 -0.3696
  183SOPE  H13R20947   1.450   0.500   7.978  0.8146  0.5601  0.2763
  183SOPE  H13S20948   1.571   0.373   8.027 -0.6050  0.3593 -0.1903
  183SOPE  C21420949   1.364   0.331   8.053 -0.5790  0.3973  0.1799
  183SOPE  H14R20950   1.367   0.220   8.046  0.7595  0.4966 -1.0127
  183SOPE  H14S20951   1.262   0.360   8.022  0.5793  0.9437 -3.3181
  183SOPE  C21520952   1.382   0.373   8.207 -0.3369  0.7921  0.5740
  183SOPE  H15R20953   1.405   0.482   8.209 -0.1177  0.7525  0.2188
  183SOPE  H15S20954   1.478   0.329   8.241 -1.1235  1.2461  3.5251
  183SOPE  C21620955   1.272   0.335   8.299  0.0870  0.9692 -0.0876
  183SOPE  H16R20956   1.170   0.366   8.269  0.3229  2.2618  0.4197
  183SOPE  H16S20957   1.290   0.379   8.399  0.3618 -4.2897  2.3596
  183SOPE  C21720958   1.275   0.180   8.324  0.2773 -0.1346  0.0152
  183SOPE  H17R20959   1.378   0.156   8.360 -0.0360  0.7713  1.5504
  183SOPE  H17S20960   1.250   0.124   8.232  1.0945 -0.5512  0.0364
  183SOPE  C21820961   1.186   0.131   8.443 -0.4004  0.4593  0.1722
  183SOPE  H18R20962   1.216   0.168   8.543  0.8138  1.7443 -0.6489
  183SOPE  H18S20963   1.184   0.020   8.442  0.4587  0.4420 -0.5352
  183SOPE  H18T20964   1.086   0.178   8.435 -0.5752  0.2778  1.2347
  183SOPE   C3320965   1.035   0.338   7.115 -0.3618 -0.6119  0.2485
  183SOPE   H3X20966   1.133   0.358   7.068 -0.1839 -2.5972 -0.2759
  183SOPE   H3Y20967   1.008   0.230   7.112  1.1458 -1.1060  2.9095
  183SOPE   C3420968   1.051   0.365   7.266  0.1699 -0.2587 -0.6779
  183SOPE   H4X20969   0.954   0.349   7.317 -0.0603  0.1487 -0.9899
  183SOPE   H4Y20970   1.082   0.471   7.278 -1.8050  0.1456  1.1401
  183SOPE   C3520971   1.139   0.269   7.349  0.3598 -0.3331 -0.1739
  183SOPE   H5X20972   1.234   0.260   7.292 -0.5614 -2.0070 -1.4908
  183SOPE   H5Y20973   1.099   0.165   7.346 -1.8539  0.4954  0.1917
  183SOPE   C3620974   1.159   0.314   7.492  0.1139  0.0310  0.4424
  183SOPE   H6X20975   1.221   0.406   7.493  1.6655 -0.9884 -0.4595
  183SOPE   H6Y20976   1.206   0.232   7.551  1.4441  2.2704  2.5703
  183SOPE   C3720977   1.027   0.344   7.564 -0.1738  0.3059  0.8274
  183SOPE   H7X20978   0.961   0.255   7.556  1.3902 -0.9389  1.5611
  183SOPE   H7Y20979   0.967   0.431   7.526  0.0011 -0.6952 -1.8737
  183SOPE   C3820980   1.057   0.374   7.710 -0.2707  0.1244 -0.3544
  183SOPE   H8X20981   1.136   0.449   7.733 -0.8319  0.3798  0.7661
  183SOPE   H8Y20982   1.084   0.278   7.759 -1.2238 -0.6898 -1.3974
  183SOPE   C3920983   0.938   0.406   7.802  0.7397 -0.3055 -0.3070
  183SOPE   H9X20984   0.854   0.336   7.779  0.8730 -0.2654 -0.9137
  183SOPE   H9Y20985   0.897   0.506   7.775  0.0985 -0.7292 -0.9324
  183SOPE  C31020986   0.968   0.394   7.957 -0.1328  0.0028  0.0243
  183SOPE  H10X20987   1.053   0.458   7.989  0.7447 -0.2430 -1.7585
  183SOPE  H10Y20988   1.003   0.290   7.975  1.4192  0.6501  0.8423
  183SOPE  C31120989   0.839   0.438   8.030  0.2390  0.1906 -0.2438
  183SOPE  H11X20990   0.759   0.374   7.988  1.2762 -0.7006 -0.9105
  183SOPE  H11Y20991   0.816   0.543   8.000  0.6355  0.4748  0.4341
  183SOPE  C31220992   0.832   0.418   8.179  0.0749  0.6911  0.0331
  183SOPE  H12X20993   0.878   0.318   8.194 -1.1924 -0.1547 -1.6417
  183SOPE  H12Y20994   0.728   0.412   8.218 -0.1968  3.0448 -0.2318
  183SOPE  C31320995   0.910   0.526   8.256  0.1733  0.2227 -0.3452
  183SOPE  H13X20996   0.851   0.618   8.241 -2.2038 -1.2136 -0.0186
  183SOPE  H13Y20997   1.002   0.552   8.199  0.2248 -0.1528 -0.4405
  183SOPE  C31420998   0.936   0.492   8.399  0.2205 -0.0851 -0.9821
  183SOPE  H14X20999   0.969   0.387   8.408  0.3817  0.1808  2.1644
  183SOPE  H14Y21000   0.836   0.498   8.448  0.8546  2.1512  0.1183
  183SOPE  C31521001   1.031   0.576   8.485 -0.1881 -0.2076  0.7850
  183SOPE  H15X21002   1.128   0.569   8.431 -1.0224 -0.1900 -0.7695
  183SOPE  H15Y21003   1.056   0.516   8.575  0.2942  0.2760  0.9789
  183SOPE  C31621004   1.008   0.727   8.508 -0.1769  1.4680  0.6175
  183SOPE  H16X21005   0.904   0.729   8.547 -1.6618 -2.1698 -2.8330
  183SOPE  H16Y21006   0.997   0.782   8.412 -0.1966 -0.3466 -0.4392
  183SOPE  C31721007   1.096   0.802   8.603 -0.6953 -0.2416 -0.5665
  183SOPE  H17X21008   1.198   0.815   8.560  0.5847  0.8710  2.6073
  183SOPE  H17Y21009   1.120   0.749   8.697  2.5274  0.3363 -1.0001
  183SOPE  C31821010   1.032   0.929   8.647 -0.7341 -0.4976 -0.1981
  183SOPE  H18X21011   1.089   0.978   8.728  1.3568 -1.8083 -0.8310
  183SOPE  H18Y21012   0.930   0.918   8.690 -0.8230  2.2070  0.3627
  183SOPE  H18Z21013   1.022   1.009   8.570  2.8094  2.2504  2.0750
  184SOPE     N21014   1.079   0.927   6.407  0.0732 -0.1543 -0.3597
  184SOPE   HN121015   1.147   1.005   6.394  0.0331 -0.3886 -2.0696
  184SOPE   HN221016   1.009   0.936   6.484 -0.1234 -3.0536 -0.1306
  184SOPE   HN321017   1.133   0.841   6.430 -1.2627 -1.5882 -2.5198
  184SOPE   C1221018   1.014   0.901   6.279 -0.0794 -0.3879  0.3384
  184SOPE  H12A21019   1.087   0.893   6.195 -1.1839 -0.4282 -0.6319
  184SOPE  H12B21020   0.942   0.982   6.257  0.2121 -0.7861 -2.2144
  184SOPE   C1121021   0.930   0.769   6.289  0.4646 -0.5272  0.2680
  184SOPE  H11A21022   0.985   0.696   6.352 -1.2417 -0.0608  2.3523
  184SOPE  H11B21023   0.925   0.733   6.184 -2.3303  1.5264 -0.3533
  184SOPE     P21024   0.670   0.859   6.311  0.2344  0.0793 -0.0635
  184SOPE   O1321025   0.612   0.795   6.184  0.6511 -0.4887 -0.2382
  184SOPE   O1421026   0.685   1.003   6.307 -0.1084  0.9248 -0.5378
  184SOPE   O1221027   0.806   0.788   6.359 -0.3753 -0.0374  0.3030
  184SOPE   O1121028   0.568   0.831   6.426  0.3350  0.2401  0.1343
  184SOPE    C121029   0.606   0.825   6.564  0.2115  0.1281 -0.5115
  184SOPE    HA21030   0.714   0.847   6.576 -0.4515  2.5516  1.5442
  184SOPE    HB21031   0.583   0.722   6.600  0.3955  0.6467  1.1503
  184SOPE    C221032   0.518   0.915   6.656  0.2278 -0.1424  0.0299
  184SOPE    HS21033   0.550   1.019   6.634 -0.4863 -0.3774 -2.1354
  184SOPE   O2121034   0.545   0.865   6.794 -0.5900  0.5545  0.8064
  184SOPE   C2121035   0.666   0.902   6.841 -0.8101 -0.4322 -0.8450
  184SOPE   O2221036   0.749   0.971   6.787 -0.2137 -0.3954 -0.1298
  184SOPE   C2221037   0.686   0.843   6.982 -0.0110 -0.1366  0.8729
  184SOPE   H2R21038   0.729   0.923   7.046 -2.9449  1.8896  0.4263
  184SOPE   H2S21039   0.759   0.765   6.950 -0.8219 -0.8099  0.6387
  184SOPE    C321040   0.365   0.925   6.632 -0.3182  0.0490  0.1441
  184SOPE    HX21041   0.314   0.828   6.618  0.6714 -0.5272  0.4867
  184SOPE    HY21042   0.345   0.974   6.535  1.4586  0.6101  0.0512
  184SOPE   O3121043   0.301   0.993   6.738 -0.2070  0.1567 -0.4996
  184SOPE   C3121044   0.341   1.125   6.759  0.3665  0.2090 -0.2803
  184SOPE   O3221045   0.415   1.189   6.688  0.1630 -0.5155 -0.3524
  184SOPE   C3221046   0.289   1.173   6.897 -0.1136  0.2359  0.2977
  184SOPE   H2X21047   0.180   1.155   6.889  0.1304 -1.1731 -0.0329
  184SOPE   H2Y21048   0.319   1.279   6.905 -1.3095  0.5695  0.3481
  184SOPE   C2321049   0.564   0.801   7.059  0.5585  0.6444 -0.5667
  184SOPE   H3R21050   0.521   0.712   7.008  0.1692 -1.5589  3.3896
  184SOPE   H3S21051   0.491   0.885   7.058  1.1474  1.2061  1.4831
  184SOPE   C2421052   0.601   0.756   7.197 -0.6228 -0.1053 -0.0847
  184SOPE   H4R21053   0.626   0.843   7.262 -1.4527  0.6522 -0.7709
  184SOPE   H4S21054   0.508   0.727   7.250  0.2683 -1.7570  0.6224
  184SOPE   C2521055   0.710   0.647   7.220  0.3206  0.0791  0.5799
  184SOPE   H5R21056   0.674   0.556   7.167  1.0965  1.0244 -1.6589
  184SOPE   H5S21057   0.801   0.686   7.168  0.2805 -0.7509 -0.1363
  184SOPE   C2621058   0.740   0.628   7.372 -0.1902  0.2061  0.5343
  184SOPE   H6R21059   0.841   0.582   7.382 -1.5387 -3.1247 -0.3069
  184SOPE   H6S21060   0.735   0.734   7.404  0.0041  1.3769 -3.0820
  184SOPE   C2721061   0.623   0.557   7.448  0.1541  0.6846  0.1681
  184SOPE   H7R21062   0.524   0.578   7.403  0.4937 -1.5962 -1.7269
  184SOPE   H7S21063   0.643   0.450   7.425  0.3923  1.2677 -2.5982
  184SOPE   C2821064   0.622   0.575   7.601 -0.4948 -0.6378  0.1998
  184SOPE   H8R21065   0.568   0.487   7.641  0.3670 -0.9745  0.6118
  184SOPE   H8S21066   0.729   0.572   7.632 -1.1862  0.7198  2.8796
  184SOPE   C2921067   0.554   0.700   7.653 -0.4319 -0.0362 -0.1321
  184SOPE   H9121068   0.558   0.788   7.587 -3.2389  1.1796  1.2304
  184SOPE  C21021069   0.493   0.704   7.774 -0.2619 -0.2401  0.4618
  184SOPE  H10121070   0.437   0.797   7.797 -0.7251 -0.3396 -0.2401
  184SOPE  C21121071   0.464   0.591   7.868 -0.2383 -0.8445 -0.8538
  184SOPE  H11R21072   0.565   0.576   7.911 -1.2483 -1.5314  1.3830
  184SOPE  H11S21073   0.434   0.505   7.805 -3.1122 -0.1049 -0.5935
  184SOPE  C21221074   0.359   0.622   7.976 -0.1391 -0.9214  0.5875
  184SOPE  H12R21075   0.256   0.628   7.934  0.0887 -2.3063 -0.1677
  184SOPE  H12S21076   0.385   0.721   8.019 -0.0680 -0.5184 -0.3702
  184SOPE  C21321077   0.367   0.532   8.101 -1.1228 -0.3152  1.0053
  184SOPE  H13R21078   0.462   0.547   8.158  0.3694 -0.6261 -1.3428
  184SOPE  H13S21079   0.353   0.428   8.063  0.5064 -0.6239  1.1964
  184SOPE  C21421080   0.249   0.557   8.193  0.2314 -0.1960 -0.1273
  184SOPE  H14R21081   0.236   0.666   8.203  0.7682 -0.2615  1.3461
  184SOPE  H14S21082   0.271   0.517   8.294 -1.2624  1.7496  0.9897
  184SOPE  C21521083   0.114   0.503   8.135 -0.0828 -0.2875  0.6147
  184SOPE  H15R21084   0.121   0.393   8.125 -1.3956 -0.4274  1.0954
  184SOPE  H15S21085   0.094   0.535   8.031 -1.1404  1.3376  1.2975
  184SOPE  C21621086  -0.014   0.528   8.221 -0.7816 -0.2386  0.7206
  184SOPE  H16R21087   0.009   0.507   8.328  1.1858  0.5005  0.4618
  184SOPE  H16S21088  -0.089   0.451   8.194 -1.7450  1.0820 -0.4624
  184SOPE  C21721089  -0.077   0.673   8.204 -0.1871 -0.0976 -0.5292
  184SOPE  H17R21090  -0.067   0.700   8.096  2.1080  0.9217 -0.0895
  184SOPE  H17S21091  -0.016   0.739   8.270  0.5739 -0.2425 -1.0743
  184SOPE  C21821092  -0.227   0.680   8.244  0.2691 -0.1432  0.3954
  184SOPE  H18R21093  -0.290   0.621   8.175 -0.6328  0.6622  0.5228
  184SOPE  H18S21094  -0.269   0.783   8.248 -0.5276 -0.5031  1.5974
  184SOPE  H18T21095  -0.241   0.633   8.344 -2.6582  0.9147  0.5369
  184SOPE   C3321096   0.340   1.092   7.019  0.0837  0.0252  0.1269
  184SOPE   H3X21097   0.449   1.069   7.018 -0.0871 -0.7948  0.2810
  184SOPE   H3Y21098   0.290   0.994   7.001 -0.8607  0.2483  1.4776
  184SOPE   C3421099   0.298   1.154   7.154  0.1434 -0.1019  0.1731
  184SOPE   H4X21100   0.197   1.201   7.156  0.1321 -0.1041 -0.2432
  184SOPE   H4Y21101   0.373   1.233   7.172  0.3656 -0.2144 -0.2528
  184SOPE   C3521102   0.317   1.058   7.272 -0.2346  0.0285  0.2123
  184SOPE   H5X21103   0.419   1.014   7.273 -0.3484 -0.2015  1.6999
  184SOPE   H5Y21104   0.244   0.975   7.258 -1.8032  1.4911 -0.4658
  184SOPE   C3621105   0.294   1.127   7.402 -0.4983  0.4880 -0.3184
  184SOPE   H6X21106   0.199   1.182   7.385 -0.6894  0.4836  0.6935
  184SOPE   H6Y21107   0.378   1.196   7.423 -1.3829  1.3838  0.3454
  184SOPE   C3721108   0.283   1.031   7.526  0.2387 -0.3396 -0.3885
  184SOPE   H7X21109   0.373   0.967   7.538  2.1152  2.1815 -0.6600
  184SOPE   H7Y21110   0.208   0.957   7.491  1.6417 -1.2310 -1.5388
  184SOPE   C3821111   0.232   1.095   7.658  0.4717 -0.5619 -0.4432
  184SOPE   H8X21112   0.130   1.137   7.645 -0.5260 -2.1350  1.9435
  184SOPE   H8Y21113   0.299   1.182   7.679  0.2404 -0.4644 -0.1044
  184SOPE   C3921114   0.231   1.006   7.782  0.6056  0.1508 -1.3086
  184SOPE   H9X21115   0.336   0.993   7.815 -0.0148  1.0589  1.1109
  184SOPE   H9Y21116   0.191   0.905   7.758 -3.1888  0.6440  2.4111
  184SOPE  C31021117   0.164   1.071   7.900 -0.8682  0.2633 -0.1140
  184SOPE  H10X21118   0.057   1.097   7.880 -1.2705 -0.8187  0.5808
  184SOPE  H10Y21119   0.227   1.157   7.929  1.3125 -1.5899  0.7486
  184SOPE  C31121120   0.160   0.987   8.031  0.0773 -0.0595  0.5441
  184SOPE  H11X21121   0.268   0.977   8.056  0.2953 -0.0045 -0.3303
  184SOPE  H11Y21122   0.109   0.889   8.022  0.4562 -0.2433  0.3854
  184SOPE  C31221123   0.091   1.063   8.151  0.2470 -0.2206  0.5689
  184SOPE  H12X21124   0.139   1.162   8.168 -0.5626  0.2900 -0.0831
  184SOPE  H12Y21125   0.118   1.011   8.246 -0.0479 -0.8599  0.3008
  184SOPE  C31321126  -0.062   1.059   8.150  0.1482 -0.3049 -0.1870
  184SOPE  H13X21127  -0.104   0.961   8.118 -0.2393  0.3259 -1.6733
  184SOPE  H13Y21128  -0.101   1.128   8.072 -1.3134 -0.5759  0.3034
  184SOPE  C31421129  -0.113   1.097   8.284 -0.1701  0.0450  0.4024
  184SOPE  H14X21130  -0.088   1.204   8.301 -1.5286  0.5858 -0.9197
  184SOPE  H14Y21131  -0.048   1.037   8.352  0.4975 -0.6828 -0.8743
  184SOPE  C31521132  -0.268   1.089   8.292 -0.0982  0.9207 -0.6930
  184SOPE  H15X21133  -0.297   0.982   8.281 -0.7182  0.8388  1.5498
  184SOPE  H15Y21134  -0.318   1.132   8.202 -1.7437 -1.4416 -0.9734
  184SOPE  C31621135  -0.324   1.153   8.420 -0.6637 -0.5421  0.2265
  184SOPE  H16X21136  -0.284   1.085   8.499 -1.9845 -0.3503  1.0791
  184SOPE  H16Y21137  -0.435   1.140   8.416 -0.4523 -1.7933 -2.7563
  184SOPE  C31721138  -0.279   1.295   8.462  0.6271  0.1932  0.1163
  184SOPE  H17X21139  -0.174   1.286   8.499 -0.2288  0.7964  2.8717
  184SOPE  H17Y21140  -0.338   1.316   8.554  2.2210 -4.2926  2.2856
  184SOPE  C31821141  -0.290   1.413   8.370 -0.0210 -0.2719 -0.0758
  184SOPE  H18X21142  -0.398   1.416   8.345 -0.1047 -1.0591  0.1532
  184SOPE  H18Y21143  -0.233   1.391   8.277 -0.7355 -0.4323 -0.4790
  184SOPE  H18Z21144  -0.249   1.500   8.425 -2.5095  0.3943  0.7603
  185SAPI   C1221145   3.038   4.024  11.010  0.5127 -0.6242 -0.0675
  185SAPI    H221146   3.005   3.985  10.911  1.7255 -0.5578 -0.5129
  185SAPI    O221147   2.955   3.983  11.119 -0.5582 -0.0831 -0.0541
  185SAPI   HO221148   2.869   3.984  11.077 -0.4478 -0.6665 -0.3051
  185SAPI   C1321149   3.178   3.972  11.027  0.1440  0.4288  0.0012
  185SAPI    H321150   3.241   4.014  10.946  0.3093  1.7615  0.8085
  185SAPI    O321151   3.182   3.824  11.010 -0.4621 -0.0915  0.0457
  185SAPI   HO321152   3.244   3.806  10.938 -2.1771  2.6632 -2.1975
  185SAPI   C1421153   3.242   4.024  11.156 -0.1443  0.1864  0.3575
  185SAPI    H421154   3.165   3.991  11.229 -2.6848 -0.8961 -2.7352
  185SAPI    O421155   3.370   3.977  11.183  0.1918  0.1535 -0.0016
  185SAPI   HO421156   3.428   4.027  11.125  0.4249  0.7292  0.7148
  185SAPI   C1521157   3.243   4.175  11.155  0.1168  0.0827 -0.2555
  185SAPI    H521158   3.303   4.205  11.067  0.4502  1.5082  0.4339
  185SAPI    O521159   3.300   4.237  11.273 -0.0016  0.1542 -0.3716
  185SAPI   HO521160   3.352   4.307  11.232 -1.0954  0.0742 -1.9295
  185SAPI   C1621161   3.103   4.236  11.135 -0.4250 -0.2931 -0.0640
  185SAPI    H621162   3.035   4.203  11.215 -0.9938 -1.4534 -1.0198
  185SAPI    O621163   3.105   4.375  11.122  0.1351  0.6408  0.3484
  185SAPI   HO621164   3.022   4.405  11.083  0.5939 -1.0268 -2.0242
  185SAPI   C1121165   3.047   4.176  11.001  0.8445 -0.6618 -0.1384
  185SAPI    H121166   3.114   4.209  10.919 -1.3709  1.7790 -1.0492
  185SAPI     P21167   2.861   4.338  10.872 -0.2150  0.0746  0.0166
  185SAPI   O1321168   2.922   4.459  10.926 -0.3328 -0.0457  0.4046
  185SAPI   O1421169   2.714   4.328  10.876  0.2434  0.1330 -0.1178
  185SAPI   O1221170   2.911   4.215  10.971 -0.0058 -0.3114  0.6759
  185SAPI   O1121171   2.920   4.287  10.728 -0.2440 -0.2089 -0.2142
  185SAPI    C121172   2.836   4.227  10.633  0.0777 -0.0661 -0.0253
  185SAPI    HA21173   2.727   4.240  10.648 -0.0509 -1.4561  0.2893
  185SAPI    HB21174   2.855   4.264  10.530 -1.8182  1.9769  0.3272
  185SAPI    C221175   2.855   4.077  10.636 -0.0436  0.7673  0.5740
  185SAPI    HS21176   2.844   4.053  10.744  3.3990 -1.3793  0.5351
  185SAPI   O2121177   2.981   4.040  10.578 -0.0539  0.2817 -0.4023
  185SAPI   C2121178   3.032   3.924  10.627 -0.2128 -0.1945 -0.2949
  185SAPI   O2221179   2.970   3.847  10.704  0.0865  0.8533 -0.4772
  185SAPI   C2221180   3.166   3.902  10.556  0.6523  0.2917  0.4225
  185SAPI   H2R21181   3.199   3.802  10.589  2.4243  0.7748  0.1474
  185SAPI   H2S21182   3.150   3.905  10.446 -2.2449 -1.6042  0.7319
  185SAPI    C321183   2.749   4.006  10.553  0.4647 -0.7373 -0.0855
  185SAPI    HX21184   2.648   4.032  10.592  0.6486  0.4810 -0.3936
  185SAPI    HY21185   2.755   3.896  10.566  0.8781 -0.7672 -0.5248
  185SAPI   O3121186   2.760   4.058  10.417  0.6852 -0.3904 -0.0931
  185SAPI   C3121187   2.810   3.966  10.338 -0.0744  0.1229 -0.2634
  185SAPI   O3221188   2.854   3.866  10.384  0.0628 -0.3781  0.0848
  185SAPI   C3221189   2.817   4.009  10.194 -0.1811 -0.2699 -0.5805
  185SAPI   H2X21190   2.920   3.989  10.160 -0.4815  1.4052 -2.5353
  185SAPI   H2Y21191   2.799   4.117  10.177 -0.9559 -0.3483 -0.3162
  185SAPI   C2321192   3.274   4.009  10.603  0.0725 -0.1922 -0.5452
  185SAPI   H3R21193   3.272   3.998  10.714 -0.0550  0.8711 -0.4402
  185SAPI   H3S21194   3.234   4.109  10.578  1.6224  0.6798  0.3340
  185SAPI   C2421195   3.410   3.981  10.540  0.1506  0.3275 -0.4593
  185SAPI   H4R21196   3.434   3.873  10.534  0.3337  0.3309  0.2700
  185SAPI   H4S21197   3.493   4.014  10.606 -1.3583  0.3466  1.4762
  185SAPI   C2521198   3.401   4.040  10.402 -0.4724  0.2973 -0.3983
  185SAPI   H5R21199   3.427   4.147  10.401 -1.0635  0.4408 -0.5312
  185SAPI   C2621200   3.368   3.979  10.285  1.0350 -0.0574  0.2930
  185SAPI   H6R21201   3.366   4.041  10.194  2.5043  1.2948  1.1616
  185SAPI   C2721202   3.330   3.835  10.254 -0.7027 -0.1676  0.3944
  185SAPI   H7R21203   3.222   3.835  10.226 -0.3500  1.6993 -1.0954
  185SAPI   H7S21204   3.331   3.779  10.349 -1.8394  0.6904  0.9320
  185SAPI   C2821205   3.403   3.767  10.140 -0.2187  0.6975  0.0773
  185SAPI   H8R21206   3.477   3.695  10.178 -1.8300 -0.5938  0.8335
  185SAPI   C2921207   3.394   3.782  10.003 -0.2363  0.8760 -0.4878
  185SAPI   H9R21208   3.467   3.726   9.944  1.8040  2.2757  0.6274
  185SAPI  C21021209   3.290   3.865   9.932 -0.2317 -0.4886 -0.8866
  185SAPI  H10R21210   3.350   3.906   9.848 -1.3123  0.6176 -1.1372
  185SAPI  H10S21211   3.273   3.960   9.987 -2.6490 -0.7463 -1.1409
  185SAPI  C21121212   3.170   3.779   9.893 -0.3536  0.3924 -0.5699
  185SAPI  H11R21213   3.093   3.784   9.971 -0.4490  1.4898 -0.7348
  185SAPI  C21221214   3.144   3.706   9.785  0.4906  0.0708  0.1340
  185SAPI  H12R21215   3.046   3.658   9.791  0.2930  0.6816  1.9729
  185SAPI  C21321216   3.232   3.695   9.666  0.0664 -0.0862  0.2313
  185SAPI  H13R21217   3.335   3.729   9.689 -1.1132  1.6528  3.1853
  185SAPI  H13S21218   3.208   3.777   9.595  0.3848  1.7945  2.2454
  185SAPI  C21421219   3.227   3.555   9.606  0.3894 -0.0691  0.1684
  185SAPI  H14R21220   3.264   3.475   9.672  0.2396  0.4601  0.9021
  185SAPI  C21521221   3.194   3.516   9.482  0.3078  0.3581  0.1581
  185SAPI  H15R21222   3.203   3.410   9.455  2.4304  0.3226  0.9492
  185SAPI  C21621223   3.158   3.614   9.373  0.4649 -0.6726  0.1548
  185SAPI  H16R21224   3.230   3.698   9.363 -0.3445 -0.0862 -0.6816
  185SAPI  H16S21225   3.059   3.659   9.394 -0.3824 -2.7476  0.8355
  185SAPI  C21721226   3.145   3.554   9.235  0.0090 -0.3177  0.4737
  185SAPI  H17R21227   3.117   3.628   9.157  1.0826  0.8676  1.2133
  185SAPI  H17S21228   3.065   3.478   9.246 -1.2478  0.8138 -0.6754
  185SAPI  C21821229   3.271   3.488   9.174  0.3671 -0.4089 -0.0100
  185SAPI  H18R21230   3.313   3.398   9.222  1.3948 -0.0651 -0.2619
  185SAPI  H18S21231   3.349   3.567   9.176  1.4220 -1.4577  0.6373
  185SAPI  C21921232   3.262   3.438   9.030 -0.6653 -0.4132  0.3685
  185SAPI  H19R21233   3.366   3.443   8.991 -1.8203  1.7591 -2.6892
  185SAPI  H19S21234   3.216   3.513   8.961  1.6465 -0.5656 -1.3772
  185SAPI  C22021235   3.193   3.304   9.010  0.2470 -0.1473 -0.1577
  185SAPI  H20R21236   3.250   3.225   9.063  0.5335 -0.8093 -1.4245
  185SAPI  H20S21237   3.184   3.288   8.900 -0.1617 -0.2578 -0.1099
  185SAPI  H20T21238   3.087   3.310   9.045 -0.7576  0.8276 -3.2191
  185SAPI   C3321239   2.720   3.920  10.117  0.1039 -0.4755  0.8693
  185SAPI   H3X21240   2.614   3.950  10.131  0.1561  1.4675 -2.3547
  185SAPI   H3Y21241   2.730   3.818  10.159 -0.1083 -0.4750  0.9252
  185SAPI   C3421242   2.758   3.916   9.964 -0.3414  0.5927  0.0411
  185SAPI   H4X21243   2.867   3.895   9.959 -0.6512 -0.5219 -3.6377
  185SAPI   H4Y21244   2.747   4.020   9.924 -1.6317 -0.6780 -3.0842
  185SAPI   C3521245   2.676   3.818   9.872 -0.6916 -0.3988  0.2284
  185SAPI   H5X21246   2.575   3.861   9.864 -1.0130 -0.9756  1.1520
  185SAPI   H5Y21247   2.667   3.716   9.915 -1.4381  0.3911  1.9858
  185SAPI   C3621248   2.728   3.794   9.724 -0.0417  0.3383 -0.1493
  185SAPI   H6X21249   2.836   3.767   9.731 -0.3941 -0.8711  0.9360
  185SAPI   H6Y21250   2.722   3.887   9.664 -0.8315  0.3812 -0.0085
  185SAPI   C3721251   2.661   3.690   9.629  0.8234 -0.4545 -0.1339
  185SAPI   H7X21252   2.565   3.736   9.596  0.6273 -1.2336 -0.6648
  185SAPI   H7Y21253   2.635   3.604   9.694 -1.7513  0.6938  0.4421
  185SAPI   C3821254   2.756   3.651   9.513 -0.3380  1.1226  0.4436
  185SAPI   H8X21255   2.846   3.594   9.542 -1.9813 -1.4227  0.7382
  185SAPI   H8Y21256   2.795   3.742   9.463 -1.6235  0.9089 -1.0150
  185SAPI   C3921257   2.692   3.563   9.399  0.2231  0.8244  0.2600
  185SAPI   H9X21258   2.591   3.593   9.363 -0.4274 -1.9418 -0.3953
  185SAPI   H9Y21259   2.661   3.465   9.441 -0.4032  0.6992 -0.4710
  185SAPI  C31021260   2.776   3.543   9.280 -0.1241 -1.0172 -0.1425
  185SAPI  H10X21261   2.859   3.472   9.299 -0.0210 -1.3953 -1.9992
  185SAPI  H10Y21262   2.826   3.634   9.240 -0.5747 -0.8987 -0.4422
  185SAPI  C31121263   2.707   3.466   9.170  0.2604 -0.0918  0.0310
  185SAPI  H11X21264   2.611   3.518   9.148  0.4405 -0.4966 -1.8503
  185SAPI  H11Y21265   2.688   3.358   9.193  0.2453  0.1066  0.9776
  185SAPI  C31221266   2.802   3.460   9.051 -0.0473  0.1499 -0.6149
  185SAPI  H12X21267   2.901   3.435   9.094 -1.0152 -1.9327  0.4186
  185SAPI  H12Y21268   2.825   3.554   8.996 -0.4842 -0.3195 -1.6171
  185SAPI  C31321269   2.763   3.350   8.951 -0.3529  0.2466 -0.5205
  185SAPI  H13X21270   2.654   3.353   8.926 -0.2976  0.8809 -0.6981
  185SAPI  H13Y21271   2.776   3.255   9.008 -0.9422 -0.3199 -1.3214
  185SAPI  C31421272   2.851   3.343   8.831  0.4488 -0.4638  0.4487
  185SAPI  H14X21273   2.956   3.362   8.862  0.6579  2.7794 -1.9367
  185SAPI  H14Y21274   2.823   3.419   8.755 -1.3165  0.9837  2.4944
  185SAPI  C31521275   2.832   3.205   8.763  0.1075  0.1802 -0.7924
  185SAPI  H15X21276   2.725   3.175   8.757 -0.3291  1.6826 -0.6927
  185SAPI  H15Y21277   2.869   3.123   8.828  1.4422 -0.3577 -2.1935
  185SAPI  C31621278   2.895   3.200   8.625 -0.6566 -0.4428  0.6511
  185SAPI  H16X21279   2.967   3.116   8.633  0.2935  0.1852 -1.0856
  185SAPI  H16Y21280   2.946   3.297   8.607  0.7232 -0.7563  2.7188
  185SAPI  C31721281   2.788   3.170   8.519 -0.1872 -0.4474 -0.6817
  185SAPI  H17X21282   2.704   3.243   8.532 -0.9069 -1.3342 -0.3251
  185SAPI  H17Y21283   2.742   3.075   8.552  1.2370 -0.0599  2.6695
  185SAPI  C31821284   2.834   3.161   8.376 -0.4070 -0.8339 -0.8218
  185SAPI  H18X21285   2.755   3.117   8.312  1.7470 -0.6285 -3.7690
  185SAPI  H18Y21286   2.934   3.115   8.361  0.1721 -0.5552  1.9049
  185SAPI  H18Z21287   2.839   3.264   8.335 -0.5167 -1.0654 -1.4224
  186SAPI   C1221288   3.630   1.534  10.758  0.3824  0.5303  0.4236
  186SAPI    H221289   3.572   1.440  10.763  0.6454  0.4597  2.7171
  186SAPI    O221290   3.600   1.582  10.625  0.2228  0.3394 -0.1108
  186SAPI   HO221291   3.642   1.519  10.565 -0.6979 -0.5971  0.2112
  186SAPI   C1321292   3.578   1.633  10.856  0.6760  0.5905 -0.2334
  186SAPI    H321293   3.601   1.604  10.961  3.0824 -0.4552 -1.0250
  186SAPI    O321294   3.435   1.644  10.845 -0.3685 -0.0043  0.0150
  186SAPI   HO321295   3.412   1.675  10.756 -1.0223  1.4647  0.6691
  186SAPI   C1421296   3.651   1.761  10.847 -0.3407 -0.2582  0.4862
  186SAPI    H421297   3.624   1.798  10.746 -0.1814  0.4348  0.6962
  186SAPI    O421298   3.607   1.860  10.937 -0.2383 -0.2362 -0.5076
  186SAPI   HO421299   3.547   1.918  10.890  0.2642 -1.2867 -2.4845
  186SAPI   C1521300   3.803   1.746  10.844  0.0202  0.3254  0.4677
  186SAPI    H521301   3.827   1.698  10.941  0.7245  0.0612  0.1652
  186SAPI    O521302   3.866   1.877  10.834  0.0245 -0.2642 -0.2364
  186SAPI   HO521303   3.809   1.935  10.884  0.4226  1.1637 -1.4013
  186SAPI   C1621304   3.855   1.647  10.737  0.1415 -0.3531 -0.1034
  186SAPI    H621305   3.821   1.691  10.641 -0.8165 -1.6805 -0.3806
  186SAPI    O621306   3.994   1.629  10.736  0.0566  0.9197  0.0815
  186SAPI   HO621307   4.009   1.539  10.706  0.8860  1.0495  0.1176
  186SAPI   C1121308   3.779   1.516  10.762 -0.0863 -0.2355 -0.4972
  186SAPI    H121309   3.802   1.488  10.867  0.5449  4.1706  0.6160
  186SAPI     P21310   3.808   1.254  10.696  0.0195 -0.3583  0.2827
  186SAPI   O1321311   3.682   1.211  10.646 -0.0033  0.1494 -0.9243
  186SAPI   O1421312   3.824   1.224  10.842  0.0715 -0.2181  0.7186
  186SAPI   O1221313   3.831   1.421  10.673 -0.1170 -0.2712  0.3631
  186SAPI   O1121314   3.925   1.179  10.617  0.1536  0.0244  0.1735
  186SAPI    C121315   4.064   1.201  10.627  0.3958  0.4011  0.1216
  186SAPI    HA21316   4.095   1.278  10.701  1.8021 -0.1831  0.1555
  186SAPI    HB21317   4.105   1.105  10.666  0.9355  1.2656  1.7222
  186SAPI    C221318   4.128   1.237  10.494  0.3042  0.6390  0.3324
  186SAPI    HS21319   4.236   1.262  10.504  0.8997 -1.7979  0.2021
  186SAPI   O2121320   4.052   1.331  10.411  0.1047 -0.1238  0.5645
  186SAPI   C2121321   4.099   1.448  10.418  0.5644 -0.5831  0.1205
  186SAPI   O2221322   4.196   1.484  10.486 -0.1871  0.1029 -0.4468
  186SAPI   C2221323   4.024   1.545  10.324 -0.3779 -0.1263  0.8179
  186SAPI   H2R21324   3.937   1.580  10.383 -1.6044 -1.2813 -0.2566
  186SAPI   H2S21325   4.099   1.625  10.305 -2.8393  2.0654  0.0757
  186SAPI    C321326   4.146   1.105  10.406 -1.1191 -0.0987  0.0925
  186SAPI    HX21327   4.056   1.044  10.385  0.4091 -1.0833 -4.2370
  186SAPI    HY21328   4.217   1.043  10.463 -1.6258  0.9265  1.8687
  186SAPI   O3121329   4.206   1.141  10.281 -0.6650  0.7483  0.1556
  186SAPI   C3121330   4.146   1.132  10.168 -0.0755  0.5322  0.2453
  186SAPI   O3221331   4.026   1.104  10.155  0.3126  0.0286 -0.5365
  186SAPI   C3221332   4.242   1.151  10.058 -0.2397  0.7999  0.1126
  186SAPI   H2X21333   4.242   1.058   9.997  1.2211  0.1977  0.9922
  186SAPI   H2Y21334   4.347   1.145  10.096 -1.0759  1.5257  2.5693
  186SAPI   C2321335   3.961   1.479  10.196  0.1469 -0.1480  0.4317
  186SAPI   H3R21336   3.890   1.401  10.232  1.3513 -1.8579 -0.8503
  186SAPI   H3S21337   4.045   1.421  10.152  0.8408  0.4901  0.9050
  186SAPI   C2421338   3.914   1.575  10.083 -0.0805  0.8857 -0.1896
  186SAPI   H4R21339   3.873   1.512  10.000  2.2996  0.1899 -0.8843
  186SAPI   H4S21340   4.004   1.627  10.043  0.4606 -0.6200 -0.9763
  186SAPI   C2521341   3.818   1.666  10.145 -0.3028 -0.5202 -0.6036
  186SAPI   H5R21342   3.742   1.616  10.207 -1.2620  2.1106  0.3961
  186SAPI   C2621343   3.823   1.799  10.150 -0.2561 -0.2537 -0.1749
  186SAPI   H6R21344   3.761   1.860  10.217 -0.4881 -2.3160  1.5362
  186SAPI   C2721345   3.941   1.870  10.080  0.3971 -0.3426 -0.6838
  186SAPI   H7R21346   3.900   1.948  10.013 -0.4042  0.5713  0.8442
  186SAPI   H7S21347   3.982   1.808   9.997  0.1916  0.0284 -1.0641
  186SAPI   C2821348   4.039   1.933  10.181  0.7121 -0.3525  0.4262
  186SAPI   H8R21349   4.096   1.854  10.233 -0.0275 -0.1989  1.4913
  186SAPI   C2921350   4.040   2.057  10.234 -0.1675  0.7079 -0.1271
  186SAPI   H9R21351   4.121   2.077  10.304 -1.9307 -1.0102  2.4766
  186SAPI  C21021352   3.951   2.177  10.207  0.0845 -0.3397 -0.0768
  186SAPI  H10R21353   3.965   2.255  10.286  2.1612 -3.3260  2.6293
  186SAPI  H10S21354   3.845   2.143  10.209 -0.6010  1.7484  1.0339
  186SAPI  C21121355   3.969   2.219  10.067 -0.3795  0.8944 -0.3314
  186SAPI  H11R21356   4.025   2.150  10.002  1.0400  1.6189  0.1072
  186SAPI  C21221357   3.921   2.329  10.005 -0.6168 -0.6110  0.2938
  186SAPI  H12R21358   3.938   2.348   9.898  0.1202  0.7100  0.6250
  186SAPI  C21321359   3.849   2.439  10.075 -0.2296  0.0188 -0.2575
  186SAPI  H13R21360   3.808   2.412  10.175 -0.6884 -1.0837 -0.7429
  186SAPI  H13S21361   3.758   2.473  10.021 -1.0441  0.4816  1.3491
  186SAPI  C21421362   3.952   2.549  10.105  0.0947  0.1006 -0.2179
  186SAPI  H14R21363   4.024   2.515  10.180 -0.0168  0.4887  0.0612
  186SAPI  C21521364   3.963   2.671  10.055 -0.2116 -0.3889  0.6302
  186SAPI  H15R21365   4.053   2.727  10.084 -0.7851  0.6461  0.4350
  186SAPI  C21621366   3.874   2.735   9.953  0.8878  0.2437 -0.3672
  186SAPI  H16R21367   3.866   2.846   9.957  2.5490  0.4244 -1.5194
  186SAPI  H16S21368   3.767   2.711   9.971  1.0966 -0.7964 -0.4703
  186SAPI  C21721369   3.901   2.702   9.804  0.1870  0.2365 -0.9654
  186SAPI  H17R21370   3.972   2.616   9.803  0.4065  0.4165 -1.1647
  186SAPI  H17S21371   3.952   2.788   9.753  2.5574 -0.9792 -0.7369
  186SAPI  C21821372   3.764   2.655   9.736  0.1283  0.0547  0.5191
  186SAPI  H18R21373   3.717   2.752   9.711  0.1107 -0.2395 -0.6260
  186SAPI  H18S21374   3.713   2.595   9.814 -4.3673 -1.2085 -3.1081
  186SAPI  C21921375   3.785   2.570   9.616  0.0483  0.7617  0.8148
  186SAPI  H19R21376   3.697   2.517   9.574  1.7051  1.0759 -3.2771
  186SAPI  H19S21377   3.854   2.492   9.654  1.1297  0.2160 -2.1407
  186SAPI  C22021378   3.851   2.639   9.498 -0.5643 -0.1411  0.0293
  186SAPI  H20R21379   3.960   2.650   9.513 -0.1248 -1.2965 -2.1445
  186SAPI  H20S21380   3.803   2.734   9.467 -1.0624  0.0182  1.2476
  186SAPI  H20T21381   3.834   2.570   9.412 -0.5499 -2.4791  1.8530
  186SAPI   C3321382   4.218   1.276   9.972 -0.5039 -0.3716 -0.4926
  186SAPI   H3X21383   4.195   1.374  10.019  0.3104 -1.1170  1.5082
  186SAPI   H3Y21384   4.124   1.260   9.914 -0.6722 -0.7152 -0.1248
  186SAPI   C3421385   4.331   1.313   9.877 -0.1316  0.3480 -0.4692
  186SAPI   H4X21386   4.427   1.337   9.928 -0.1569  0.0812 -0.2945
  186SAPI   H4Y21387   4.321   1.411   9.824  0.4107  2.2331  2.7614
  186SAPI   C3521388   4.348   1.202   9.771  0.0169  0.4977 -0.3083
  186SAPI   H5X21389   4.255   1.173   9.718  0.8259 -0.7114 -1.0957
  186SAPI   H5Y21390   4.380   1.114   9.832 -1.5635  1.2175  1.5974
  186SAPI   C3621391   4.458   1.240   9.675 -0.1893  0.0572 -0.5024
  186SAPI   H6X21392   4.556   1.235   9.727  0.5308  2.2471 -1.5748
  186SAPI   H6Y21393   4.449   1.340   9.628  0.3468  0.1374 -0.4402
  186SAPI   C3721394   4.463   1.130   9.560  0.3659  0.2198 -0.0168
  186SAPI   H7X21395   4.366   1.142   9.508 -0.5642  0.1235  1.6779
  186SAPI   H7Y21396   4.472   1.027   9.602  0.3423 -0.8691 -2.5466
  186SAPI   C3821397   4.582   1.150   9.461  0.2199  0.2856  0.0641
  186SAPI   H8X21398   4.674   1.116   9.514 -1.0748  0.6071  2.6114
  186SAPI   H8Y21399   4.603   1.258   9.445  1.5263 -0.0800 -0.7561
  186SAPI   C3921400   4.572   1.081   9.319 -0.5558  0.5500 -0.8691
  186SAPI   H9X21401   4.520   0.983   9.328  0.4833 -0.1649 -2.3239
  186SAPI   H9Y21402   4.678   1.057   9.292 -0.3133 -0.4860  0.9329
  186SAPI  C31021403   4.509   1.177   9.214  0.7152 -0.2957 -0.3224
  186SAPI  H10X21404   4.555   1.277   9.227 -1.9296  1.3745 -3.1392
  186SAPI  H10Y21405   4.400   1.185   9.234  1.1499  4.2214  0.7534
  186SAPI  C31121406   4.526   1.131   9.075 -0.1944  0.4533  0.5923
  186SAPI  H11X21407   4.490   1.025   9.075  0.3482  0.2577 -1.0710
  186SAPI  H11Y21408   4.632   1.132   9.041 -0.3976  0.3324 -0.0471
  186SAPI  C31221409   4.423   1.202   8.983 -0.0939  0.3103  0.0176
  186SAPI  H12X21410   4.440   1.309   8.959  1.3728  0.2512  0.7816
  186SAPI  H12Y21411   4.320   1.194   9.023 -0.1620  0.2576 -0.1666
  186SAPI  C31321412   4.408   1.121   8.851 -0.5456  0.1510 -0.7703
  186SAPI  H13X21413   4.343   1.034   8.875  0.9555  0.0710  3.4607
  186SAPI  H13Y21414   4.504   1.082   8.809  0.4835  1.5744  0.2287
  186SAPI  C31421415   4.355   1.218   8.739 -0.7523  0.4992  0.0652
  186SAPI  H14X21416   4.448   1.277   8.730 -0.3198  0.1439  2.0077
  186SAPI  H14Y21417   4.272   1.287   8.765 -0.2250  1.1502  0.0340
  186SAPI  C31521418   4.329   1.157   8.603  0.2283  0.1369 -0.1207
  186SAPI  H15X21419   4.246   1.083   8.595 -1.3885  1.8953  0.2254
  186SAPI  H15Y21420   4.423   1.104   8.576  0.0424 -0.2983  0.0821
  186SAPI  C31621421   4.307   1.279   8.509  0.9067  0.5147  0.4382
  186SAPI  H16X21422   4.396   1.343   8.491  0.5461  0.5169 -1.3719
  186SAPI  H16Y21423   4.215   1.326   8.549  1.7032  0.7201  2.0702
  186SAPI  C31721424   4.281   1.233   8.363  0.4838 -0.3237 -0.2412
  186SAPI  H17X21425   4.181   1.185   8.353  0.2352 -0.0109  0.7504
  186SAPI  H17Y21426   4.363   1.170   8.322 -0.2966 -1.0137 -0.7710
  186SAPI  C31821427   4.275   1.353   8.268  0.0254  0.3162  0.0699
  186SAPI  H18X21428   4.278   1.328   8.159 -0.9999  0.5506 -0.0209
  186SAPI  H18Y21429   4.352   1.431   8.285  0.6090 -0.5533  1.4364
  186SAPI  H18Z21430   4.177   1.404   8.285 -1.9056 -4.0385  2.7461
  187SAPI   C1221431   0.593   3.005   6.448 -0.1492  0.8367  0.7205
  187SAPI    H221432   0.666   2.972   6.525 -1.0731 -0.7322  0.9469
  187SAPI    O221433   0.598   2.926   6.330  0.3471  0.4187 -0.4035
  187SAPI   HO221434   0.639   2.845   6.362 -1.7354  0.4135  2.4100
  187SAPI   C1321435   0.457   2.981   6.514 -0.9244  0.6498  0.5410
  187SAPI    H321436   0.463   3.042   6.606  0.6346  2.2292 -0.5726
  187SAPI    O321437   0.450   2.844   6.560  0.4243 -0.2283  0.5605
  187SAPI   HO321438   0.452   2.785   6.484 -0.0316 -0.4798  0.7454
  187SAPI   C1421439   0.337   3.017   6.438 -0.1270  0.6733  0.6497
  187SAPI    H421440   0.324   2.950   6.350  2.8239  0.2329  0.4773
  187SAPI    O421441   0.218   3.017   6.519  0.4445 -0.6416 -0.0279
  187SAPI   HO421442   0.214   3.092   6.578 -2.0040  1.6557 -2.9657
  187SAPI   C1521443   0.359   3.164   6.380  0.0160 -0.2924 -0.1564
  187SAPI    H521444   0.363   3.231   6.468  1.0372  2.6831 -2.4000
  187SAPI    O521445   0.250   3.194   6.288  0.1240  0.2639  0.3420
  187SAPI   HO521446   0.258   3.287   6.268  1.4215 -0.9205 -5.3283
  187SAPI   C1621447   0.491   3.183   6.310  0.3172  0.0158  0.3776
  187SAPI    H621448   0.494   3.115   6.222  0.3174  2.0605 -1.2608
  187SAPI    O621449   0.498   3.322   6.260  0.4180 -0.1482  0.4936
  187SAPI   HO621450   0.537   3.380   6.325 -0.2840 -0.2025  0.9686
  187SAPI   C1121451   0.602   3.146   6.403  0.0785 -0.8943 -0.2013
  187SAPI    H121452   0.596   3.206   6.497 -2.5107 -0.6947 -0.4588
  187SAPI     P21453   0.813   3.303   6.334  0.1022 -0.0330 -0.0834
  187SAPI   O1321454   0.719   3.409   6.372 -0.0345 -0.0596 -0.6198
  187SAPI   O1421455   0.873   3.316   6.195 -0.1219  0.8960 -0.1041
  187SAPI   O1221456   0.730   3.160   6.349 -0.1665 -0.0075  0.1683
  187SAPI   O1121457   0.928   3.308   6.437 -0.7944 -0.3626  0.1182
  187SAPI    C121458   0.970   3.191   6.499  0.1074 -0.2570 -0.4818
  187SAPI    HA21459   0.968   3.110   6.424 -0.4583 -0.6575 -0.0396
  187SAPI    HB21460   1.076   3.194   6.530 -0.5314  0.5388  1.7344
  187SAPI    C221461   0.893   3.165   6.629 -0.6763 -0.6875 -0.2573
  187SAPI    HS21462   0.786   3.151   6.603 -0.4919 -2.3831 -0.1706
  187SAPI   O2121463   0.902   3.281   6.720  0.2585 -0.1216 -0.5417
  187SAPI   C2121464   0.803   3.306   6.796  0.4787  0.8401  0.4404
  187SAPI   O2221465   0.696   3.242   6.800 -0.4344 -0.1544 -0.8564
  187SAPI   C2221466   0.828   3.445   6.855  0.1732  0.0667  0.1500
  187SAPI   H2R21467   0.800   3.522   6.780  1.3336  0.4544  0.1056
  187SAPI   H2S21468   0.749   3.460   6.932 -0.0315  0.3842 -0.1233
  187SAPI    C321469   0.943   3.033   6.704  0.9644 -0.1042  0.5365
  187SAPI    HX21470   1.054   3.030   6.701  0.9616 -1.5534  1.5983
  187SAPI    HY21471   0.907   2.948   6.643 -1.6079 -0.5324  2.5306
  187SAPI   O3121472   0.890   3.030   6.843  0.0853  0.5275  0.1119
  187SAPI   C3121473   0.792   2.946   6.871 -0.3561 -0.7682  0.3881
  187SAPI   O3221474   0.736   2.880   6.786 -0.0144 -0.4688  0.7083
  187SAPI   C3221475   0.762   2.951   7.016 -0.8727 -0.6223  0.3651
  187SAPI   H2X21476   0.748   3.058   7.042 -0.0538 -0.2101 -0.8326
  187SAPI   H2Y21477   0.858   2.925   7.066 -0.3478 -1.1526 -0.8991
  187SAPI   C2321478   0.967   3.468   6.909 -0.4163  0.4518 -0.5628
  187SAPI   H3R21479   1.042   3.437   6.833 -0.8610 -1.2283 -0.3341
  187SAPI   H3S21480   0.992   3.411   7.001 -2.4173  0.5775  0.0808
  187SAPI   C2421481   0.984   3.619   6.937 -0.6613  0.8806  0.1456
  187SAPI   H4R21482   0.887   3.654   6.976 -1.8315 -2.7393  0.7277
  187SAPI   H4S21483   1.003   3.662   6.836 -0.7600  0.5801 -0.0015
  187SAPI   C2521484   1.092   3.659   7.028 -0.3279  0.3156  0.2931
  187SAPI   H5R21485   1.183   3.676   6.969 -0.7400  0.0562 -0.4262
  187SAPI   C2621486   1.088   3.663   7.154  0.0254  0.1598 -0.1459
  187SAPI   H6R21487   1.171   3.707   7.210 -0.1709  1.0806 -0.5551
  187SAPI   C2721488   0.964   3.637   7.234 -0.1026  0.5441 -0.3016
  187SAPI   H7R21489   0.891   3.575   7.177 -0.1094  0.0179  0.2761
  187SAPI   H7S21490   0.908   3.732   7.251  0.9332  1.5022 -2.0752
  187SAPI   C2821491   0.981   3.566   7.366 -0.7000  0.1096  0.9386
  187SAPI   H8R21492   1.049   3.480   7.360  0.3647  1.0641 -1.5495
  187SAPI   C2921493   0.931   3.600   7.482 -0.1591  0.4149  0.0204
  187SAPI   H9R21494   0.949   3.535   7.568 -0.0069  1.9199  1.1506
  187SAPI  C21021495   0.857   3.730   7.511 -0.1651 -0.3836  0.3561
  187SAPI  H10R21496   0.779   3.737   7.432 -0.8925 -1.5963  0.9414
  187SAPI  H10S21497   0.927   3.814   7.496 -1.1338  0.6950  1.7336
  187SAPI  C21121498   0.795   3.737   7.652 -0.4125  0.7177 -0.1017
  187SAPI  H11R21499   0.843   3.676   7.730 -2.2506 -0.8654 -0.1683
  187SAPI  C21221500   0.687   3.811   7.692 -0.0537  0.3463 -0.8138
  187SAPI  H12R21501   0.668   3.817   7.800  0.0376 -0.3065 -0.7618
  187SAPI  C21321502   0.602   3.895   7.598 -0.9778 -0.1744 -0.8546
  187SAPI  H13R21503   0.663   3.933   7.513 -0.4477  2.7141  0.7774
  187SAPI  H13S21504   0.581   3.983   7.662  0.3715 -0.2904 -0.2342
  187SAPI  C21421505   0.478   3.822   7.553  0.0828  0.2818  0.3197
  187SAPI  H14R21506   0.408   3.796   7.634 -1.6927  2.3513 -0.5280
  187SAPI  C21521507   0.457   3.778   7.427 -0.1778 -0.9785  0.0351
  187SAPI  H15R21508   0.360   3.727   7.411 -0.9739 -0.7186  3.6784
  187SAPI  C21621509   0.542   3.794   7.299  0.0213 -0.4206 -0.2051
  187SAPI  H16R21510   0.597   3.700   7.278  0.3027 -0.2550 -0.2133
  187SAPI  H16S21511   0.608   3.883   7.306  0.6784 -1.1353  3.6221
  187SAPI  C21721512   0.436   3.801   7.187  0.0613  0.4222 -0.0579
  187SAPI  H17R21513   0.370   3.885   7.218  1.9997  2.2994 -0.9078
  187SAPI  H17S21514   0.387   3.701   7.188  1.7811 -0.4588 -1.1423
  187SAPI  C21821515   0.483   3.841   7.049 -0.8617 -0.2516  0.6868
  187SAPI  H18R21516   0.555   3.925   7.060 -2.7840  1.5978 -0.2919
  187SAPI  H18S21517   0.397   3.869   6.983 -0.5210  0.4727  0.5410
  187SAPI  C21921518   0.546   3.716   6.970  0.0050  1.0364 -0.4724
  187SAPI  H19R21519   0.605   3.658   7.043 -0.2054  0.7167 -0.5570
  187SAPI  H19S21520   0.618   3.757   6.896  2.4779 -0.9790  0.7864
  187SAPI  C22021521   0.440   3.629   6.910  0.1324  0.1629 -0.2088
  187SAPI  H20R21522   0.384   3.578   6.991 -1.3016 -1.7066 -2.2908
  187SAPI  H20S21523   0.494   3.557   6.844 -2.2481 -1.2984 -0.6378
  187SAPI  H20T21524   0.368   3.686   6.846  1.7971  2.9244  0.3007
  187SAPI   C3321525   0.644   2.866   7.075 -0.2870 -0.7893  0.2563
  187SAPI   H3X21526   0.645   2.776   7.010 -1.2472  1.1374 -2.5406
  187SAPI   H3Y21527   0.540   2.902   7.058  0.4752  0.6185 -1.6122
  187SAPI   C3421528   0.671   2.822   7.223 -0.2750  0.2340  0.4203
  187SAPI   H4X21529   0.781   2.814   7.239 -0.5418  0.4685  2.5743
  187SAPI   H4Y21530   0.613   2.727   7.226  1.6116 -0.9777 -0.8319
  187SAPI   C3521531   0.622   2.915   7.338 -0.9565  0.2664 -0.3624
  187SAPI   H5X21532   0.511   2.925   7.333 -1.0458 -0.0942  0.7509
  187SAPI   H5Y21533   0.663   3.015   7.315 -0.2512  0.2851  0.9244
  187SAPI   C3621534   0.662   2.869   7.470 -0.6474  0.2806 -0.2352
  187SAPI   H6X21535   0.623   2.952   7.532 -1.3994 -0.8791  0.8694
  187SAPI   H6Y21536   0.773   2.867   7.475 -0.4636  0.5884 -2.9680
  187SAPI   C3721537   0.611   2.732   7.508  0.2195  0.1610  0.0244
  187SAPI   H7X21538   0.659   2.658   7.441 -0.7732  2.0025 -2.7772
  187SAPI   H7Y21539   0.501   2.719   7.499 -0.0132  2.6467 -0.9037
  187SAPI   C3821540   0.664   2.702   7.653  0.9834 -0.0702 -0.1786
  187SAPI   H8X21541   0.620   2.771   7.729 -0.7211 -0.2172 -0.9912
  187SAPI   H8Y21542   0.765   2.747   7.646 -0.8667  4.2167 -1.1491
  187SAPI   C3921543   0.653   2.561   7.688 -0.0548  0.4929  0.5486
  187SAPI   H9X21544   0.714   2.491   7.626 -3.0290  0.3455 -2.3491
  187SAPI   H9Y21545   0.552   2.543   7.645  0.3012  0.8404 -0.4628
  187SAPI  C31021546   0.662   2.534   7.836 -0.3726 -0.0899  1.1486
  187SAPI  H10X21547   0.649   2.427   7.863 -1.0870 -0.0707  0.9107
  187SAPI  H10Y21548   0.576   2.590   7.878 -1.1685  0.9125 -1.6822
  187SAPI  C31121549   0.792   2.594   7.899  0.4559 -0.1731  0.2794
  187SAPI  H11X21550   0.792   2.704   7.882  1.6367 -0.2943 -0.5227
  187SAPI  H11Y21551   0.878   2.554   7.842 -1.0100 -0.9409 -1.4245
  187SAPI  C31221552   0.799   2.573   8.051  0.2585 -0.0743  0.0801
  187SAPI  H12X21553   0.760   2.473   8.079  1.6451  0.7110  5.3502
  187SAPI  H12Y21554   0.740   2.651   8.104 -0.1259 -0.3589  0.0717
  187SAPI  C31321555   0.941   2.579   8.112 -0.4701 -0.3848  0.2652
  187SAPI  H13X21556   0.983   2.676   8.078 -0.3982 -0.6087 -0.2703
  187SAPI  H13Y21557   1.011   2.496   8.087  0.3225  0.3514  0.0225
  187SAPI  C31421558   0.941   2.592   8.270 -0.4990 -0.2246 -0.1179
  187SAPI  H14X21559   0.903   2.497   8.315  0.5428 -0.9241 -0.6864
  187SAPI  H14Y21560   0.872   2.677   8.291 -0.6672  0.8117 -4.3164
  187SAPI  C31521561   1.081   2.613   8.319 -0.0073 -0.0060 -0.0445
  187SAPI  H15X21562   1.075   2.683   8.405 -1.7012 -1.4060  1.0217
  187SAPI  H15Y21563   1.149   2.645   8.237  0.4626  1.1079  0.7634
  187SAPI  C31621564   1.128   2.495   8.391 -0.4155  1.1748 -0.4828
  187SAPI  H16X21565   1.152   2.409   8.324  1.1191  0.5597  0.8315
  187SAPI  H16Y21566   1.050   2.470   8.466  0.1533  0.9402  0.0328
  187SAPI  C31721567   1.252   2.526   8.479  0.8863 -0.0931  0.9284
  187SAPI  H17X21568   1.208   2.591   8.558  0.4859  0.3862  0.3170
  187SAPI  H17Y21569   1.313   2.591   8.412  1.4111 -0.9089  0.6061
  187SAPI  C31821570   1.339   2.418   8.532 -0.2216  0.9554  0.0684
  187SAPI  H18X21571   1.429   2.466   8.577  0.2594 -1.3740  1.6924
  187SAPI  H18Y21572   1.361   2.343   8.453  2.3717  0.5566  1.0965
  187SAPI  H18Z21573   1.286   2.366   8.615  1.6275 -2.2075 -0.6468
  188SAPI   C1221574   2.385   0.197   6.368 -0.3593  0.4855 -0.3489
  188SAPI    H221575   2.352   0.193   6.474  0.8093 -0.0744 -0.0035
  188SAPI    O221576   2.292   0.278   6.292 -0.3130 -0.1906  1.2202
  188SAPI   HO221577   2.209   0.231   6.297 -1.0476  1.1754  2.0649
  188SAPI   C1321578   2.526   0.252   6.368 -0.1502 -0.2201  0.4208
  188SAPI    H321579   2.579   0.174   6.427  0.5712 -0.2259 -0.2315
  188SAPI    O321580   2.524   0.379   6.438 -0.6071 -0.0242  0.5507
  188SAPI   HO321581   2.611   0.384   6.479  0.6735  2.8662 -2.3466
  188SAPI   C1421582   2.580   0.265   6.226  0.5179  0.5131  0.0666
  188SAPI    H421583   2.515   0.329   6.163 -0.3508 -2.4001 -2.0931
  188SAPI    O421584   2.713   0.322   6.217  0.1007 -0.1343  0.4002
  188SAPI   HO421585   2.771   0.247   6.202 -0.4881 -0.1196 -2.2657
  188SAPI   C1521586   2.575   0.121   6.160  1.1465  0.0156  0.0680
  188SAPI    H521587   2.641   0.055   6.221 -0.8811 -1.3772  0.7814
  188SAPI    O521588   2.627   0.129   6.034  0.0162  0.5156  0.3996
  188SAPI   HO521589   2.695   0.061   6.028 -1.6754 -1.3553  1.7462
  188SAPI   C1621590   2.438   0.056   6.169  0.5546 -0.4072 -0.0586
  188SAPI    H621591   2.367   0.108   6.102 -1.5718 -0.1436  2.3230
  188SAPI    O621592   2.452  -0.080   6.125 -0.0559  0.0650  1.0476
  188SAPI   HO621593   2.411  -0.131   6.196  1.4525 -1.0913  1.1246
  188SAPI   C1121594   2.387   0.054   6.307 -0.2930 -0.9485  0.5433
  188SAPI    H121595   2.460  -0.005   6.366 -0.0408 -0.2992  0.8969
  188SAPI     P21596   2.227  -0.145   6.372  0.1424  0.0245  0.0237
  188SAPI   O1321597   2.343  -0.230   6.334  0.8913 -0.0470  0.2265
  188SAPI   O1421598   2.092  -0.189   6.324 -0.5834  0.1996  0.0662
  188SAPI   O1221599   2.256   0.009   6.316 -0.0916  0.2925 -0.0288
  188SAPI   O1121600   2.229  -0.116   6.529  0.2620 -0.3251  0.4742
  188SAPI    C121601   2.145  -0.011   6.578  0.2919  0.3057  0.4991
  188SAPI    HA21602   2.171   0.090   6.540 -2.2024  1.0441  0.6263
  188SAPI    HB21603   2.041  -0.020   6.540  0.4422  1.1131 -0.1072
  188SAPI    C221604   2.151  -0.003   6.734 -1.0017 -0.6631  0.4149
  188SAPI    HS21605   2.095   0.091   6.754 -0.3100 -0.2771  0.5697
  188SAPI   O2121606   2.289   0.005   6.780 -0.4327 -0.9710 -0.1686
  188SAPI   C2121607   2.345   0.119   6.764 -0.6792  0.1864  0.0398
  188SAPI   O2221608   2.288   0.226   6.727  0.2155  0.0101  0.0169
  188SAPI   C2221609   2.501   0.105   6.772  0.0182 -0.6656  0.4017
  188SAPI   H2R21610   2.518   0.054   6.869 -0.0075  2.1263  1.8928
  188SAPI   H2S21611   2.536   0.043   6.686 -2.8785 -0.8712 -0.6698
  188SAPI    C321612   2.080  -0.124   6.791  0.4857  0.1814  0.1684
  188SAPI    HX21613   2.133  -0.215   6.754  1.2283  1.2000 -1.3363
  188SAPI    HY21614   1.976  -0.123   6.753 -1.0935 -0.7144  4.1741
  188SAPI   O3121615   2.077  -0.138   6.936 -0.4313  0.0868 -0.6588
  188SAPI   C3121616   2.038  -0.043   7.014 -0.2501  0.2719 -0.2641
  188SAPI   O3221617   2.000   0.063   6.974 -0.0337 -0.2869  0.7763
  188SAPI   C3221618   2.046  -0.099   7.159 -0.4236 -0.2716  0.3070
  188SAPI   H2X21619   2.134  -0.167   7.159 -0.0058  0.2390 -1.7988
  188SAPI   H2Y21620   1.958  -0.164   7.178 -2.3502  1.3833 -2.4907
  188SAPI   C2321621   2.575   0.240   6.783  0.2052  0.4570  0.3874
  188SAPI   H3R21622   2.539   0.319   6.712  1.2504  0.4583 -0.1437
  188SAPI   H3S21623   2.675   0.220   6.739 -0.3543  1.6710 -1.5194
  188SAPI   C2421624   2.598   0.290   6.926  0.5017 -0.4788 -0.1860
  188SAPI   H4R21625   2.661   0.382   6.929 -1.3004  0.7057  2.9539
  188SAPI   H4S21626   2.657   0.212   6.979  2.2494  1.3494  0.6153
  188SAPI   C2521627   2.472   0.325   7.000  0.4287  0.1150  0.8455
  188SAPI   H5R21628   2.398   0.381   6.942  0.5043 -1.6468 -1.0185
  188SAPI   C2621629   2.436   0.274   7.115  0.4905  0.4979  0.2496
  188SAPI   H6R21630   2.342   0.313   7.157 -0.9158 -0.3452 -1.9845
  188SAPI   C2721631   2.511   0.174   7.203  0.0046 -0.0776  0.6107
  188SAPI   H7R21632   2.554   0.094   7.139 -0.1217  1.3079 -1.2521
  188SAPI   H7S21633   2.443   0.117   7.269 -2.1260  1.9822  0.2590
  188SAPI   C2821634   2.623   0.218   7.292 -0.0996  0.1593  0.6838
  188SAPI   H8R21635   2.721   0.207   7.242 -0.7409 -1.1639 -0.3051
  188SAPI   C2921636   2.613   0.254   7.421  0.5605 -0.0286 -0.6987
  188SAPI   H9R21637   2.715   0.284   7.448  0.7907 -0.6710 -0.8329
  188SAPI  C21021638   2.492   0.255   7.510 -0.6757 -0.4069  0.4206
  188SAPI  H10R21639   2.454   0.150   7.509 -1.9207  0.0401 -0.1879
  188SAPI  H10S21640   2.418   0.322   7.463  0.6226  1.6502  1.2263
  188SAPI  C21121641   2.523   0.315   7.642  0.2447  0.1925 -0.8010
  188SAPI  H11R21642   2.572   0.413   7.641  0.6960 -0.0345 -0.8335
  188SAPI  C21221643   2.480   0.264   7.761 -0.3092 -0.2174  0.2797
  188SAPI  H12R21644   2.516   0.323   7.847 -0.5720  0.2232  0.0910
  188SAPI  C21321645   2.407   0.132   7.792 -0.5245  0.0213 -0.7703
  188SAPI  H13R21646   2.430   0.057   7.713  2.3884 -0.0354  0.0501
  188SAPI  H13S21647   2.300   0.158   7.786 -0.6845 -0.2565  0.7643
  188SAPI  C21421648   2.440   0.067   7.919  0.1279  0.3912 -0.4029
  188SAPI  H14R21649   2.511  -0.016   7.906 -0.6491 -0.5966  1.4661
  188SAPI  C21521650   2.405   0.097   8.047  0.6531 -0.5270 -0.2761
  188SAPI  H15R21651   2.448   0.040   8.130 -1.8802  0.6692  1.9543
  188SAPI  C21621652   2.309   0.204   8.081 -0.4192  0.1770  0.0002
  188SAPI  H16R21653   2.230   0.200   8.003  0.4983  0.3003 -0.9494
  188SAPI  H16S21654   2.354   0.306   8.079  2.5108 -1.0980 -0.5711
  188SAPI  C21721655   2.244   0.188   8.224 -0.3004  0.0983  0.3698
  188SAPI  H17R21656   2.198   0.088   8.239 -0.9645  0.7123  2.5908
  188SAPI  H17S21657   2.167   0.269   8.226  0.0227  0.3938  0.9998
  188SAPI  C21821658   2.325   0.206   8.353 -0.1471  0.3733  0.0527
  188SAPI  H18R21659   2.349   0.314   8.368 -0.7007  0.3129  1.4029
  188SAPI  H18S21660   2.424   0.158   8.342 -1.7021 -2.1706 -3.8448
  188SAPI  C21921661   2.259   0.121   8.461 -0.6280 -0.2431 -0.4151
  188SAPI  H19R21662   2.286   0.015   8.445 -0.8622 -0.1857 -1.2404
  188SAPI  H19S21663   2.148   0.122   8.457 -0.6229  0.0858 -0.5364
  188SAPI  C22021664   2.301   0.160   8.604 -0.0920  0.2195  0.6130
  188SAPI  H20R21665   2.290   0.270   8.611  0.6070  0.3122  0.2692
  188SAPI  H20S21666   2.407   0.132   8.621 -0.3130 -1.1797 -0.2187
  188SAPI  H20T21667   2.242   0.103   8.679 -0.2010 -0.2561  0.1707
  188SAPI   C3321668   2.063   0.018   7.255  0.6181 -0.5073 -0.4138
  188SAPI   H3X21669   1.964   0.061   7.281  0.4704 -1.5490  0.8180
  188SAPI   H3Y21670   2.120   0.101   7.208  0.1838  0.3669  0.5896
  188SAPI   C3421671   2.132  -0.015   7.390 -0.2504  1.0066  0.3593
  188SAPI   H4X21672   2.176   0.081   7.426  1.5959  1.6732 -3.4983
  188SAPI   H4Y21673   2.206  -0.097   7.380 -1.9119 -0.5269  0.3767
  188SAPI   C3521674   2.027  -0.073   7.488 -0.2821 -0.3735  0.9953
  188SAPI   H5X21675   1.957  -0.129   7.423 -0.8737  1.6614 -0.1844
  188SAPI   H5Y21676   1.963   0.003   7.538 -1.5947 -1.3708  0.8277
  188SAPI   C3621677   2.075  -0.177   7.595  0.8750 -0.0226 -0.3157
  188SAPI   H6X21678   2.114  -0.265   7.538  2.2137  0.1957  0.2567
  188SAPI   H6Y21679   1.985  -0.195   7.657  2.1754 -1.4748  1.1860
  188SAPI   C3721680   2.175  -0.118   7.690 -0.5071  0.4229  0.4614
  188SAPI   H7X21681   2.146  -0.021   7.737  1.2526  0.7760  0.8315
  188SAPI   H7Y21682   2.268  -0.087   7.638 -1.0329  0.0948 -0.6718
  188SAPI   C3821683   2.221  -0.215   7.794  0.2578  0.5030 -0.9400
  188SAPI   H8X21684   2.328  -0.201   7.821  0.1806  0.9675 -0.8650
  188SAPI   H8Y21685   2.215  -0.319   7.754  0.6743  0.8274 -1.8615
  188SAPI   C3921686   2.131  -0.210   7.926 -0.3250  0.4269  0.5401
  188SAPI   H9X21687   2.031  -0.250   7.901 -0.8686  2.4737 -0.6957
  188SAPI   H9Y21688   2.132  -0.104   7.960 -3.6672  1.2479 -1.6972
  188SAPI  C31021689   2.195  -0.294   8.042 -0.0255 -0.0038  0.8300
  188SAPI  H10X21690   2.303  -0.267   8.033  0.1520 -1.7121 -3.1841
  188SAPI  H10Y21691   2.173  -0.402   8.028 -1.8078  0.5474 -0.8418
  188SAPI  C31121692   2.139  -0.269   8.177 -0.4235 -0.0632  0.7051
  188SAPI  H11X21693   2.033  -0.303   8.179 -0.4089 -0.3368 -2.1197
  188SAPI  H11Y21694   2.140  -0.159   8.191 -0.0615 -0.0019  0.2031
  188SAPI  C31221695   2.220  -0.329   8.289 -0.0057  0.4058  0.7827
  188SAPI  H12X21696   2.325  -0.297   8.271 -0.4120 -0.6247 -4.0304
  188SAPI  H12Y21697   2.221  -0.439   8.272 -0.6199  0.4519  0.4201
  188SAPI  C31321698   2.189  -0.295   8.433  0.5557 -0.2132  0.3503
  188SAPI  H13X21699   2.110  -0.365   8.466 -0.5997  1.4106  1.0962
  188SAPI  H13Y21700   2.129  -0.202   8.433 -0.8099 -1.0911  0.4560
  188SAPI  C31421701   2.311  -0.293   8.531  0.2978 -0.1298 -0.1641
  188SAPI  H14X21702   2.283  -0.265   8.634 -0.8185 -2.8044  0.3154
  188SAPI  H14Y21703   2.382  -0.218   8.491  0.4310 -0.1782 -0.0202
  188SAPI  C31521704   2.363  -0.430   8.545 -0.3009 -0.0911 -0.4757
  188SAPI  H15X21705   2.402  -0.459   8.446 -0.8736  0.1138 -0.7666
  188SAPI  H15Y21706   2.285  -0.509   8.552  0.0797 -0.4144  0.1242
  188SAPI  C31621707   2.485  -0.454   8.638  0.2340 -0.0952 -0.9161
  188SAPI  H16X21708   2.464  -0.412   8.739  2.8918 -2.9580  0.9238
  188SAPI  H16Y21709   2.561  -0.394   8.584 -0.0533  0.4972 -0.6693
  188SAPI  C31721710   2.519  -0.603   8.650 -0.2991 -0.4668  0.3255
  188SAPI  H17X21711   2.624  -0.618   8.682  0.6597  2.4006 -1.2474
  188SAPI  H17Y21712   2.527  -0.654   8.551  1.4367 -0.5399  0.4987
  188SAPI  C31821713   2.415  -0.667   8.736  0.0116  0.2124  0.5539
  188SAPI  H18X21714   2.426  -0.634   8.841 -0.7614  2.1661  0.0444
  188SAPI  H18Y21715   2.431  -0.777   8.723  2.7636  0.7126 -0.6162
  188SAPI  H18Z21716   2.314  -0.641   8.695  0.3312 -0.4254 -0.6749
  189POPC     N21717   1.669   1.063  11.159 -0.8728  0.3470  1.1737
  189POPC   C1221718   1.788   1.140  11.098 -0.1850 -0.6103 -0.3829
  189POPC  H12A21719   1.767   1.147  10.992  1.6012  2.7309 -0.5786
  189POPC  H12B21720   1.868   1.068  11.100  0.9434  0.6468  0.9469
  189POPC   C1321721   1.688   1.020  11.298 -0.6978 -0.1676  0.1803
  189POPC  H13A21722   1.772   0.953  11.296 -1.4067 -1.0591 -0.2448
  189POPC  H13B21723   1.716   1.106  11.358  1.1228 -1.3436  1.0225
  189POPC  H13C21724   1.595   0.977  11.333  0.4100 -1.2606  1.7766
  189POPC   C1421725   1.545   1.146  11.156  0.5638  0.1197  0.0415
  189POPC  H14A21726   1.449   1.099  11.166  0.7578 -0.4257 -0.6138
  189POPC  H14B21727   1.559   1.228  11.225  0.6106 -0.7237  1.0332
  189POPC  H14C21728   1.529   1.198  11.062  1.5918  1.3615  0.5326
  189POPC   C1521729   1.657   0.943  11.074  0.2005 -0.0532  0.2254
  189POPC  H15A21730   1.744   0.880  11.081  0.0058 -0.2861  0.5667
  189POPC  H15B21731   1.642   0.981  10.974  0.1955 -1.0991 -0.1770
  189POPC  H15C21732   1.573   0.886  11.113 -1.4542  2.4190  0.4150
  189POPC   C1121733   1.831   1.279  11.150  0.0834  0.0066  0.5933
  189POPC  H11A21734   1.937   1.298  11.120  0.2760 -0.8818  0.7128
  189POPC  H11B21735   1.836   1.279  11.261 -1.3089 -1.2987  0.6674
  189POPC     P21736   1.686   1.410  10.967  0.1401 -0.0136  0.1902
  189POPC   O1321737   1.727   1.552  10.942 -0.5026  0.4313  0.7159
  189POPC   O1421738   1.542   1.386  10.957  0.2169 -0.4975  0.5729
  189POPC   O1221739   1.732   1.375  11.111  0.4277 -0.6153  0.3069
  189POPC   O1121740   1.757   1.308  10.870 -0.1507 -0.3036  0.0335
  189POPC    C121741   1.884   1.328  10.799 -0.4748 -1.1686 -0.1402
  189POPC    HA21742   1.927   1.227  10.783  2.0881 -0.6858  3.2175
  189POPC    HB21743   1.956   1.381  10.864  0.4174 -0.3364 -1.7603
  189POPC    C221744   1.865   1.399  10.659  0.6480 -0.3965 -0.7735
  189POPC    HS21745   1.759   1.433  10.657  0.0683 -2.1111 -0.0072
  189POPC   O2121746   1.882   1.299  10.554 -0.1831 -0.1041  0.5258
  189POPC   C2121747   1.800   1.309  10.452 -0.1758  0.4217 -0.3876
  189POPC   O2221748   1.726   1.403  10.430  0.2546  0.0451 -0.2500
  189POPC   C2221749   1.815   1.182  10.363 -0.1637 -0.1332  0.4391
  189POPC   H2R21750   1.804   1.096  10.432 -2.1728 -1.4642 -1.4686
  189POPC   H2S21751   1.911   1.189  10.307  0.4877 -0.9451  1.4311
  189POPC    C321752   1.967   1.516  10.647  0.4223  0.1107 -0.2010
  189POPC    HX21753   2.069   1.472  10.642  1.6757  3.0439 -1.8359
  189POPC    HY21754   1.941   1.574  10.738 -2.0544 -0.2249 -0.6864
  189POPC   O3121755   1.939   1.596  10.529  0.4208 -0.7759 -0.2005
  189POPC   C3121756   2.016   1.583  10.419 -0.9944 -0.2872 -0.4431
  189POPC   O3221757   2.121   1.521  10.407 -0.1155 -0.2979  0.4111
  189POPC   C3221758   1.960   1.675  10.307 -0.5850 -0.4984  0.1922
  189POPC   H2X21759   2.029   1.761  10.319 -0.0800 -0.9982  0.9365
  189POPC   H2Y21760   1.851   1.697  10.318 -0.4833  1.3786 -2.2572
  189POPC   C2321761   1.703   1.169  10.261  0.6138 -0.4436 -0.3819
  189POPC   H3R21762   1.733   1.113  10.170  0.7562 -2.1378  0.6839
  189POPC   H3S21763   1.673   1.272  10.234 -0.4069 -0.1552  1.7319
  189POPC   C2421764   1.591   1.082  10.317  0.1065 -0.2600 -1.5826
  189POPC   H4R21765   1.563   1.128  10.413  0.4703 -2.8918 -0.1652
  189POPC   H4S21766   1.628   0.980  10.343  0.1428  0.3677  0.8921
  189POPC   C2521767   1.463   1.074  10.238  0.8146 -0.1653 -0.0023
  189POPC   H5R21768   1.425   1.171  10.199 -0.0314 -0.4372  0.1528
  189POPC   H5S21769   1.383   1.041  10.308  1.0313 -1.1069 -0.1942
  189POPC   C2621770   1.465   0.975  10.124 -0.5794  0.2617  0.5189
  189POPC   H6R21771   1.477   0.872  10.165 -1.3215 -1.0886 -2.5419
  189POPC   H6S21772   1.558   0.985  10.064 -1.3404 -0.2045 -0.7489
  189POPC   C2721773   1.343   0.979  10.033  0.3492 -0.6073 -0.0596
  189POPC   H7R21774   1.342   1.076   9.979 -0.8703 -1.7387 -2.1749
  189POPC   H7S21775   1.246   0.970  10.086 -0.4708 -0.7078 -1.5419
  189POPC   C2821776   1.345   0.875   9.920 -0.1025  0.3924  0.2270
  189POPC   H8R21777   1.451   0.862   9.892 -0.7934 -1.7158 -1.5313
  189POPC   H8S21778   1.305   0.912   9.822  1.2126 -0.5793 -0.6927
  189POPC   C2921779   1.274   0.742   9.951 -0.5234 -0.3517  1.1892
  189POPC   H9121780   1.211   0.748  10.041  1.1964 -0.0132  2.3941
  189POPC  C21021781   1.308   0.627   9.891  0.5142  0.0979 -0.0024
  189POPC  H10121782   1.263   0.530   9.916  1.4310 -0.0467  1.1439
  189POPC  C21121783   1.416   0.602   9.787 -1.6050 -0.5199  0.6111
  189POPC  H11R21784   1.473   0.512   9.817 -1.1885 -0.6947 -0.6606
  189POPC  H11S21785   1.486   0.687   9.801 -2.2972  0.6522 -2.6433
  189POPC  C21221786   1.374   0.585   9.643 -0.1146  0.0129 -0.6747
  189POPC  H12R21787   1.286   0.518   9.642 -0.1220  0.0070 -2.4421
  189POPC  H12S21788   1.462   0.541   9.590  2.4933  1.0996  2.6080
  189POPC  C21321789   1.336   0.718   9.570  0.0877  0.3084 -0.0744
  189POPC  H13R21790   1.404   0.801   9.599  1.9036 -1.3539  0.5209
  189POPC  H13S21791   1.229   0.730   9.593  0.2428 -1.3425  1.6114
  189POPC  C21421792   1.357   0.701   9.412  0.0883  0.4459 -0.5125
  189POPC  H14R21793   1.440   0.628   9.400 -0.8374 -0.9150  1.0606
  189POPC  H14S21794   1.407   0.792   9.373 -0.9319  0.9967 -0.5525
  189POPC  C21521795   1.239   0.654   9.327  0.5727 -0.3226  0.3994
  189POPC  H15R21796   1.150   0.718   9.339 -0.7944 -2.1784  0.4566
  189POPC  H15S21797   1.215   0.553   9.368  0.2362  0.5672  2.4409
  189POPC  C21621798   1.284   0.642   9.185 -0.2028 -0.1710 -0.3803
  189POPC  H16R21799   1.381   0.588   9.189 -0.1499  0.0149  1.2740
  189POPC  H16S21800   1.306   0.742   9.142 -1.2742  0.3868  0.3285
  189POPC  C21721801   1.170   0.565   9.115 -0.2016 -0.0115  0.0728
  189POPC  H17R21802   1.072   0.616   9.129 -0.5183 -0.4375 -0.5793
  189POPC  H17S21803   1.160   0.461   9.152 -0.4883 -0.8079 -2.2214
  189POPC  C21821804   1.193   0.552   8.965  0.5635  0.3354 -0.0126
  189POPC  H18R21805   1.144   0.637   8.914  0.2116 -0.2082 -0.5813
  189POPC  H18S21806   1.147   0.458   8.928 -1.6206  0.7928  1.4564
  189POPC  H18T21807   1.302   0.553   8.940  0.5524 -2.0404 -0.3082
  189POPC   C3321808   1.969   1.607  10.169 -0.1903 -0.1859  0.2380
  189POPC   H3X21809   1.899   1.520  10.163 -0.6045  0.2649 -1.7637
  189POPC   H3Y21810   2.072   1.584  10.133 -1.3976 -2.4532 -1.9356
  189POPC   C3421811   1.912   1.706  10.064 -0.2167 -0.0826  0.3931
  189POPC   H4X21812   1.971   1.800  10.052 -1.3181  0.7529  1.4115
  189POPC   H4Y21813   1.816   1.741  10.107  0.9113  4.1977 -0.2450
  189POPC   C3521814   1.900   1.628   9.937  0.5658 -0.3104  0.1616
  189POPC   H5X21815   1.843   1.536   9.959  1.7729 -1.3246 -0.9217
  189POPC   H5Y21816   2.002   1.595   9.908 -0.0042 -2.4518  0.5500
  189POPC   C3621817   1.843   1.715   9.825 -0.1655  0.1467  0.9682
  189POPC   H6X21818   1.917   1.794   9.801 -0.1085 -0.0774  0.3900
  189POPC   H6Y21819   1.746   1.757   9.860 -0.8082 -0.5860  0.0775
  189POPC   C3721820   1.815   1.623   9.702  0.2736 -0.2511 -0.1103
  189POPC   H7X21821   1.747   1.679   9.635  0.5722 -2.1531 -2.0623
  189POPC   H7Y21822   1.753   1.533   9.722 -1.1229  0.8986  0.7927
  189POPC   C3821823   1.940   1.594   9.612  0.0670  0.5565 -0.3157
  189POPC   H8X21824   2.009   1.530   9.670  1.6938 -0.6092 -3.4129
  189POPC   H8Y21825   2.004   1.681   9.584 -2.3952  3.1866  1.8836
  189POPC   C3921826   1.883   1.525   9.485 -0.4385 -1.0908 -0.1298
  189POPC   H9X21827   1.824   1.601   9.430 -0.1101  0.2503  1.3201
  189POPC   H9Y21828   1.826   1.436   9.517 -1.6200 -0.5655 -0.7603
  189POPC  C31021829   1.998   1.483   9.391 -0.1794 -0.5559 -0.4165
  189POPC  H10X21830   2.072   1.429   9.454  0.1058  0.7149  0.3653
  189POPC  H10Y21831   2.042   1.575   9.347  0.9670 -0.0658  1.6552
  189POPC  C31121832   1.960   1.398   9.267  0.2263 -0.1197 -0.6788
  189POPC  H11X21833   1.871   1.450   9.227 -1.0824 -1.0383  0.9777
  189POPC  H11Y21834   1.909   1.309   9.308 -4.4932  1.5346 -2.5883
  189POPC  C31221835   2.073   1.392   9.162 -0.6948  0.5597 -1.1195
  189POPC  H12X21836   2.148   1.327   9.212 -1.5325  0.8272  0.5371
  189POPC  H12Y21837   2.125   1.489   9.149  0.1699  0.0478 -1.4497
  189POPC  C31321838   2.020   1.328   9.030 -0.3030  0.3524  0.0053
  189POPC  H13X21839   1.942   1.256   9.063  2.2182 -2.1953  0.6267
  189POPC  H13Y21840   2.104   1.267   8.990 -1.8306 -1.4942 -0.4860
  189POPC  C31421841   1.972   1.435   8.926 -0.2348  0.5340 -0.6087
  189POPC  H14X21842   2.040   1.522   8.920 -2.2101  1.9699 -3.1634
  189POPC  H14Y21843   1.869   1.467   8.952 -0.5987 -1.1456  0.1569
  189POPC  C31521844   1.978   1.379   8.780 -0.4841 -0.1401 -0.2626
  189POPC  H15X21845   2.025   1.281   8.761  0.3852 -0.6423  4.0396
  189POPC  H15Y21846   2.051   1.449   8.734  0.4948 -0.5231  0.6707
  189POPC  C31621847   1.841   1.380   8.712 -0.5041  0.2947 -0.1657
  189POPC  H16X21848   1.807   1.483   8.691 -0.2412  0.2929 -0.6062
  189POPC  H16Y21849   1.768   1.335   8.783  0.9932 -0.3205  1.0267
  189POPC  H16Z21850   1.842   1.315   8.621  0.6595  0.8277 -0.5443
  190POPC     N21851   4.332   3.407  11.312 -0.3099  0.5382 -0.0840
  190POPC   C1221852   4.269   3.361  11.189 -0.3593  0.3756  0.7363
  190POPC  H12A21853   4.314   3.269  11.156 -1.6648 -0.0556  0.1183
  190POPC  H12B21854   4.275   3.435  11.110 -0.2094  1.0932  1.4203
  190POPC   C1321855   4.472   3.439  11.274  0.0978  0.4705 -0.6836
  190POPC  H13A21856   4.540   3.455  11.357  0.5000 -3.3852 -0.2050
  190POPC  H13B21857   4.513   3.349  11.232  0.4796  0.1446  0.3712
  190POPC  H13C21858   4.483   3.506  11.190  1.5368 -0.9072 -1.6230
  190POPC   C1421859   4.271   3.522  11.383 -0.3951  0.0663  0.2400
  190POPC  H14A21860   4.327   3.551  11.470  2.8615 -1.7024 -1.1682
  190POPC  H14B21861   4.268   3.615  11.328  0.1392 -0.5697 -0.8757
  190POPC  H14C21862   4.167   3.500  11.402 -0.4667 -0.4218 -0.6985
  190POPC   C1521863   4.343   3.300  11.415 -0.0111  0.3254 -1.0572
  190POPC  H15A21864   4.247   3.285  11.462 -1.8169  2.1828 -3.9567
  190POPC  H15B21865   4.422   3.321  11.486 -1.3549  1.4232  0.1347
  190POPC  H15C21866   4.379   3.206  11.377 -0.4181 -1.0973  1.9464
  190POPC   C1121867   4.120   3.333  11.194 -0.3622  0.6455 -0.2812
  190POPC  H11A21868   4.095   3.245  11.257  1.3107  0.2029 -0.2244
  190POPC  H11B21869   4.095   3.304  11.090 -2.0664  2.0760 -0.2844
  190POPC     P21870   3.884   3.444  11.209 -0.2176 -0.2102  0.0882
  190POPC   O1321871   3.821   3.563  11.274 -0.1010 -0.2212 -0.0061
  190POPC   O1421872   3.840   3.316  11.259  0.2169  0.0200 -0.2144
  190POPC   O1221873   4.040   3.446  11.234 -0.2006 -0.0875 -0.2197
  190POPC   O1121874   3.878   3.457  11.053  0.0466  0.6902  0.2666
  190POPC    C121875   3.962   3.565  11.008  0.3100 -0.1104 -0.1558
  190POPC    HA21876   4.068   3.556  11.040 -0.5267 -0.4698  2.6740
  190POPC    HB21877   3.919   3.662  11.040  2.0984  0.9201 -0.8252
  190POPC    C221878   3.963   3.554  10.851 -0.0534 -0.2007  0.3994
  190POPC    HS21879   4.036   3.633  10.823  1.5219 -0.5568  3.2937
  190POPC   O2121880   3.836   3.574  10.783  0.1813  0.3375  0.5780
  190POPC   C2121881   3.808   3.698  10.760  0.5392 -0.3619  0.7786
  190POPC   O2221882   3.862   3.798  10.808 -0.4362 -0.2989 -0.2055
  190POPC   C2221883   3.695   3.716  10.657  0.2718 -0.0781 -0.1005
  190POPC   H2R21884   3.664   3.822  10.671  0.7937  0.1030 -0.2679
  190POPC   H2S21885   3.620   3.636  10.675 -0.5737  0.5515 -0.8581
  190POPC    C321886   4.032   3.425  10.806 -0.6393 -0.0573  0.7712
  190POPC    HX21887   3.964   3.342  10.834  1.2784 -1.4086  1.5887
  190POPC    HY21888   4.131   3.420  10.858 -0.4241 -1.0291  0.2739
  190POPC   O3121889   4.048   3.423  10.657  0.0696 -0.6891 -0.1117
  190POPC   C3121890   4.135   3.323  10.622  0.2306 -0.3686  1.0685
  190POPC   O3221891   4.185   3.249  10.705 -0.4293  0.0985 -0.3346
  190POPC   C3221892   4.154   3.318  10.469  0.0598  0.1759  0.2869
  190POPC   H2X21893   4.155   3.420  10.426  1.1827 -0.5793 -1.5466
  190POPC   H2Y21894   4.067   3.259  10.431  0.2023 -0.9952  1.7470
  190POPC   C2321895   3.752   3.711  10.511 -0.0785  0.3924 -0.1579
  190POPC   H3R21896   3.847   3.769  10.504  0.0962  0.2096  0.7086
  190POPC   H3S21897   3.673   3.766  10.454 -1.4828  0.0961  1.4905
  190POPC   C2421898   3.759   3.563  10.469  0.0546 -0.2339 -0.2434
  190POPC   H4R21899   3.670   3.505  10.501  0.2554 -1.2581 -1.5061
  190POPC   H4S21900   3.847   3.513  10.515 -0.0726  1.0740  1.4703
  190POPC   C2521901   3.776   3.552  10.319 -0.2966 -0.5830 -0.1926
  190POPC   H5R21902   3.878   3.591  10.297 -0.1799  0.2256  1.6459
  190POPC   H5S21903   3.704   3.619  10.268 -0.5885 -0.9213 -0.2229
  190POPC   C2621904   3.761   3.408  10.266  0.0190  0.2587  0.0478
  190POPC   H6R21905   3.652   3.401  10.247  0.0286 -1.7606  0.6649
  190POPC   H6S21906   3.806   3.327  10.327 -0.4697 -0.0493 -0.0014
  190POPC   C2721907   3.819   3.405  10.129 -0.0675 -0.7946 -0.3460
  190POPC   H7R21908   3.798   3.504  10.085  0.9975 -0.1474  0.5773
  190POPC   H7S21909   3.754   3.339  10.068 -0.1879  1.1804 -2.3940
  190POPC   C2821910   3.972   3.381  10.112  0.4363  0.8997 -0.6418
  190POPC   H8R21911   4.034   3.430  10.191  2.1026 -0.5713 -1.0006
  190POPC   H8S21912   3.995   3.445  10.024  1.2173  1.9600  0.3158
  190POPC   C2921913   3.997   3.236  10.099 -0.4659 -0.4858 -0.2947
  190POPC   H9121914   3.960   3.184  10.189  0.4760 -0.3529  0.1724
  190POPC  C21021915   4.048   3.167  10.001  0.6146  0.0416  0.6525
  190POPC  H10121916   4.049   3.059  10.018 -1.0330 -0.2872 -1.1657
  190POPC  C21121917   4.091   3.221   9.869 -0.6076  0.1738  0.2291
  190POPC  H11R21918   4.197   3.253   9.871 -0.1849 -1.2410  1.1261
  190POPC  H11S21919   4.035   3.312   9.837  1.7014  1.4137 -0.3572
  190POPC  C21221920   4.078   3.132   9.746  1.3016 -0.6036 -0.6555
  190POPC  H12R21921   4.136   3.038   9.756 -1.2130 -2.1462 -0.2691
  190POPC  H12S21922   4.131   3.195   9.671  0.3299 -0.7560 -1.4831
  190POPC  C21321923   3.934   3.106   9.718 -0.4284 -0.2376 -0.1452
  190POPC  H13R21924   3.869   3.196   9.733  2.0200  1.4786  0.4819
  190POPC  H13S21925   3.891   3.026   9.781  0.4277 -2.4970 -2.3715
  190POPC  C21421926   3.901   3.057   9.569 -0.8472 -0.5028 -0.3000
  190POPC  H14R21927   3.790   3.061   9.570 -0.8528 -0.7738 -0.0688
  190POPC  H14S21928   3.949   2.959   9.551  1.0542  0.1530  0.9525
  190POPC  C21521929   3.949   3.148   9.451  0.1483 -0.3837  0.0782
  190POPC  H15R21930   4.060   3.148   9.454  0.1732  0.5596 -0.5685
  190POPC  H15S21931   3.918   3.251   9.479  0.8518  0.1550 -1.0993
  190POPC  C21621932   3.912   3.102   9.314 -0.4849 -0.7361 -0.4952
  190POPC  H16R21933   3.935   3.179   9.237 -0.5072 -1.4498 -1.2152
  190POPC  H16S21934   3.801   3.092   9.317 -0.5281 -0.4143 -1.0784
  190POPC  C21721935   3.983   2.976   9.272 -0.3118 -0.3377  0.0333
  190POPC  H17R21936   3.964   2.897   9.348 -1.7089  1.0252  1.1208
  190POPC  H17S21937   4.092   2.997   9.277 -0.4739  0.4760  0.2285
  190POPC  C21821938   3.959   2.938   9.128  0.0222  0.0716 -0.9649
  190POPC  H18R21939   3.854   2.907   9.106 -0.4631 -0.1050  1.5064
  190POPC  H18S21940   4.017   2.847   9.102 -0.2029 -0.3954  0.1587
  190POPC  H18T21941   3.992   3.013   9.053 -1.4225  0.9607 -0.7475
  190POPC   C3321942   4.286   3.259  10.429 -0.5576 -0.2100  0.2466
  190POPC   H3X21943   4.283   3.149  10.414  0.1417 -0.1838 -0.1304
  190POPC   H3Y21944   4.367   3.267  10.504  1.5381 -2.0394 -1.7310
  190POPC   C3421945   4.342   3.316  10.296 -0.5023  0.8830 -0.3375
  190POPC   H4X21946   4.389   3.415  10.314 -0.2055  0.7909 -0.6154
  190POPC   H4Y21947   4.262   3.318  10.219  0.5593 -2.8269 -1.6209
  190POPC   C3521948   4.455   3.226  10.227  0.7441  0.0840  0.2668
  190POPC   H5X21949   4.426   3.124  10.195  2.3195 -0.0160 -0.9015
  190POPC   H5Y21950   4.528   3.208  10.310  0.3772  0.3160  0.6422
  190POPC   C3621951   4.529   3.294  10.110  0.1848 -0.4448 -0.4212
  190POPC   H6X21952   4.628   3.246  10.102 -0.8084 -2.4205 -1.2235
  190POPC   H6Y21953   4.549   3.401  10.131 -0.0910 -0.6891  1.1425
  190POPC   C3721954   4.448   3.270   9.985  0.5229  0.1612  0.3813
  190POPC   H7X21955   4.354   3.322  10.012  0.4395 -0.1361  0.6702
  190POPC   H7Y21956   4.422   3.163   9.970  2.1931 -0.4066  1.3701
  190POPC   C3821957   4.519   3.328   9.866 -1.5651 -0.3439  0.8584
  190POPC   H8X21958   4.627   3.335   9.888 -1.3246 -1.1528 -0.0288
  190POPC   H8Y21959   4.501   3.435   9.845  0.8385 -0.5357 -2.3949
  190POPC   C3921960   4.491   3.258   9.735  0.0795  0.3411  0.4950
  190POPC   H9X21961   4.381   3.250   9.724  0.2005  1.0965 -1.7551
  190POPC   H9Y21962   4.555   3.167   9.739 -0.3113  0.1326  1.9393
  190POPC  C31021963   4.541   3.345   9.617 -0.0737  0.0722 -0.2850
  190POPC  H10X21964   4.638   3.387   9.652 -0.7509 -0.6143  2.4551
  190POPC  H10Y21965   4.477   3.435   9.600 -4.1110 -3.0418 -2.3219
  190POPC  C31121966   4.559   3.274   9.480  0.2333 -0.2036  0.0224
  190POPC  H11X21967   4.631   3.190   9.493 -0.2942 -0.5279  0.8513
  190POPC  H11Y21968   4.606   3.356   9.422 -0.9279  0.8231  0.5158
  190POPC  C31221969   4.425   3.235   9.416  0.2469  0.9638  0.4781
  190POPC  H12X21970   4.345   3.312   9.426  0.1309  0.6836  1.8110
  190POPC  H12Y21971   4.378   3.147   9.465  0.6804  0.3203 -0.2387
  190POPC  C31321972   4.446   3.188   9.267  0.0773 -0.0286 -0.3395
  190POPC  H13X21973   4.488   3.086   9.262  2.3173  0.8671 -0.3545
  190POPC  H13Y21974   4.530   3.253   9.233 -1.3142  2.0487  0.0757
  190POPC  C31421975   4.324   3.210   9.181  0.9720  0.2014 -0.5337
  190POPC  H14X21976   4.280   3.311   9.196  0.8307 -0.0101  0.5422
  190POPC  H14Y21977   4.245   3.137   9.207  1.4688 -0.5386 -1.0745
  190POPC  C31521978   4.349   3.205   9.032 -0.1464 -0.7725 -0.3433
  190POPC  H15X21979   4.407   3.112   9.015 -2.0722 -2.5770  2.4828
  190POPC  H15Y21980   4.416   3.288   9.003  0.7349 -0.3348  2.7183
  190POPC  C31621981   4.229   3.209   8.940 -0.3308  0.8254  0.3055
  190POPC  H16X21982   4.161   3.287   8.980  0.9282  0.7457  2.6713
  190POPC  H16Y21983   4.170   3.115   8.946 -0.2460  0.8191  1.0674
  190POPC  H16Z21984   4.260   3.238   8.837  0.2884  0.3048  0.3401
  191POPC     N21985   3.962   6.181   6.325  0.5838 -0.2385  0.4685
  191POPC   C1221986   4.034   6.150   6.449  0.1134  0.0305 -0.0898
  191POPC  H12A21987   3.972   6.196   6.524  1.9719  1.0142  0.8849
  191POPC  H12B21988   4.128   6.202   6.458  0.0806  0.2399 -0.9243
  191POPC   C1321989   3.922   6.329   6.321 -0.5818  0.0317 -0.9045
  191POPC  H13A21990   3.856   6.353   6.403  1.2934  1.1604  0.2996
  191POPC  H13B21991   4.007   6.395   6.327 -2.4122  2.2747  2.1829
  191POPC  H13C21992   3.869   6.357   6.231 -0.3184  0.6600 -0.8661
  191POPC   C1421993   4.047   6.151   6.202  0.4401 -0.1055 -0.2666
  191POPC  H14A21994   4.072   6.046   6.207 -1.2371 -0.5263 -0.4118
  191POPC  H14B21995   4.003   6.176   6.106  0.3200  0.3629 -0.0939
  191POPC  H14C21996   4.144   6.199   6.207  0.1816  0.4957 -0.9158
  191POPC   C1521997   3.839   6.093   6.315  0.1597 -0.2090  0.8031
  191POPC  H15A21998   3.792   6.130   6.225 -0.1596 -0.9469  0.6623
  191POPC  H15B21999   3.780   6.111   6.404 -0.9159  0.1117  0.0340
  191POPC  H15C22000   3.868   5.991   6.298 -0.4079 -0.0441 -1.2807
  191POPC   C1122001   4.068   6.009   6.485 -0.0352 -0.0249  0.0956
  191POPC  H11A22002   3.974   5.950   6.498 -0.1047  0.0041 -0.2654
  191POPC  H11B22003   4.130   6.007   6.577  0.1916  1.1729 -0.0359
  191POPC     P22004   4.289   5.914   6.379  0.2999  0.2975  0.2291
  191POPC   O1322005   4.366   6.043   6.385  0.1893 -0.0066  0.1183
  191POPC   O1422006   4.319   5.828   6.266 -0.0938 -0.6842  0.3500
  191POPC   O1222007   4.137   5.940   6.382 -0.2751 -0.1177 -0.2880
  191POPC   O1122008   4.320   5.824   6.508 -0.0835 -0.7474  0.1611
  191POPC    C122009   4.248   5.706   6.544  0.2695  1.0968  0.0872
  191POPC    HA22010   4.288   5.613   6.499 -1.3689  0.1085  0.6113
  191POPC    HB22011   4.140   5.707   6.516  0.9636  1.1231 -2.7096
  191POPC    C222012   4.240   5.697   6.706  0.0495  0.1812  0.5384
  191POPC    HS22013   4.189   5.599   6.718 -2.7409  1.0638 -3.0353
  191POPC   O2122014   4.154   5.803   6.760 -0.0149  0.1879  0.0402
  191POPC   C2122015   4.028   5.778   6.760  0.6798  0.0208  0.1974
  191POPC   O2222016   3.974   5.682   6.705 -0.4244 -0.2762  0.5480
  191POPC   C2222017   3.939   5.878   6.845  0.2825 -0.1334  0.1607
  191POPC   H2R22018   3.918   5.817   6.935  0.4488 -1.2746 -0.5616
  191POPC   H2S22019   3.842   5.893   6.792 -0.1858  1.6249  1.4524
  191POPC    C322020   4.380   5.715   6.769 -0.9813 -0.3596  0.6499
  191POPC    HX22021   4.422   5.806   6.723  0.5832 -0.9327  0.9306
  191POPC    HY22022   4.446   5.633   6.734 -0.1570  0.2351  0.7959
  191POPC   O3122023   4.373   5.723   6.915  0.0408  0.4713 -0.4287
  191POPC   C3122024   4.350   5.624   6.989 -0.0443 -0.8181 -0.2431
  191POPC   O3222025   4.324   5.513   6.952  0.3163  0.1604  0.3226
  191POPC   C3222026   4.375   5.658   7.136  0.1459 -0.0956 -0.0415
  191POPC   H2X22027   4.291   5.723   7.169 -0.1983 -2.3624  3.8585
  191POPC   H2Y22028   4.461   5.728   7.133 -1.2435  1.5799 -2.5322
  191POPC   C2322029   4.002   6.015   6.872  0.0526 -0.0363  0.0810
  191POPC   H3R22030   4.031   6.071   6.780  3.1031 -0.4221  0.7513
  191POPC   H3S22031   4.101   5.991   6.918 -0.3301  0.5549  1.2142
  191POPC   C2422032   3.930   6.112   6.965 -0.1207  0.3531  0.7869
  191POPC   H4R22033   3.824   6.120   6.931 -0.4396 -1.0321  1.4070
  191POPC   H4S22034   3.983   6.209   6.972  0.6386 -0.0594  0.7860
  191POPC   C2522035   3.929   6.064   7.113 -0.4756 -0.5821 -0.1976
  191POPC   H5R22036   3.887   5.962   7.125 -1.2058 -0.2814 -0.1693
  191POPC   H5S22037   3.857   6.133   7.161 -0.2305  0.1637 -0.8728
  191POPC   C2622038   4.065   6.072   7.177 -0.1571  0.5991  0.4827
  191POPC   H6R22039   4.088   6.180   7.187  0.2458  0.6092 -0.5112
  191POPC   H6S22040   4.143   6.026   7.113 -0.2734 -0.1406  0.8679
  191POPC   C2722041   4.070   5.995   7.311  0.4964 -0.5933 -0.3719
  191POPC   H7R22042   4.171   6.015   7.351 -0.4528  2.9380  0.3620
  191POPC   H7S22043   4.038   5.889   7.302 -0.1168 -0.5075  0.8102
  191POPC   C2822044   3.963   6.042   7.415  0.0129  0.1586 -0.1634
  191POPC   H8R22045   3.862   6.044   7.369  0.5247 -0.7082 -1.3691
  191POPC   H8S22046   3.994   6.148   7.426 -0.2035  0.2359 -0.2947
  191POPC   C2922047   3.968   5.969   7.544  0.1581 -0.1504  0.3489
  191POPC   H9122048   3.920   5.870   7.534 -0.3761  0.1125  0.3303
  191POPC  C21022049   4.008   6.010   7.668 -0.3578  0.4735  0.7074
  191POPC  H10122050   3.982   5.949   7.755  0.1541 -1.0424 -0.1815
  191POPC  C21122051   4.059   6.145   7.707 -0.2185 -0.9712 -0.3740
  191POPC  H11R22052   4.002   6.227   7.659  1.1376  0.5127  0.4961
  191POPC  H11S22053   4.163   6.150   7.668 -0.0900 -4.8864 -0.7066
  191POPC  C21222054   4.057   6.178   7.863  0.0350 -0.3364  0.3581
  191POPC  H12R22055   3.952   6.182   7.898  0.8686  0.0324  2.9502
  191POPC  H12S22056   4.085   6.285   7.875  0.4722 -0.6905  2.9585
  191POPC  C21322057   4.151   6.094   7.952  0.2698 -0.2595  0.8036
  191POPC  H13R22058   4.244   6.152   7.971  0.6107 -1.0549  1.5663
  191POPC  H13S22059   4.159   5.994   7.904 -1.5207  0.2069 -0.5475
  191POPC  C21422060   4.087   6.077   8.090  0.6817  0.3225  0.5467
  191POPC  H14R22061   3.978   6.060   8.076  0.9131 -0.5978 -0.2126
  191POPC  H14S22062   4.107   6.174   8.139 -0.1380 -0.0875  1.7189
  191POPC  C21522063   4.143   5.961   8.174 -0.2862 -0.0616  0.3873
  191POPC  H15R22064   4.253   5.978   8.179 -0.2510 -0.1333 -0.1489
  191POPC  H15S22065   4.144   5.860   8.129 -0.3118  1.1989 -2.5135
  191POPC  C21622066   4.100   5.965   8.320  0.0932 -1.0457  0.5361
  191POPC  H16R22067   4.104   6.072   8.352  0.8505 -1.1578  0.8211
  191POPC  H16S22068   4.187   5.916   8.368  0.9630 -1.2511 -1.2051
  191POPC  C21722069   3.970   5.890   8.352  0.1078 -0.1146 -0.8182
  191POPC  H17R22070   3.979   5.787   8.311  0.1376 -1.9011  3.4134
  191POPC  H17S22071   3.883   5.942   8.306 -1.3688 -0.8990  1.0205
  191POPC  C21822072   3.943   5.869   8.500  0.0657  0.5454 -0.1627
  191POPC  H18R22073   4.005   5.787   8.543 -0.2063  1.2383  1.5886
  191POPC  H18S22074   3.841   5.832   8.524  0.4728  0.2926  1.2359
  191POPC  H18T22075   3.959   5.960   8.562  1.6597 -0.8411  1.5614
  191POPC   C3322076   4.393   5.533   7.216  0.6959 -0.4061  0.3506
  191POPC   H3X22077   4.471   5.466   7.173  2.4297  1.7338  0.0573
  191POPC   H3Y22078   4.299   5.475   7.216  0.6335 -0.3157  1.8744
  191POPC   C3422079   4.441   5.582   7.356  0.0736 -0.8495 -0.6361
  191POPC   H4X22080   4.515   5.665   7.363  1.6455 -2.2806 -0.0390
  191POPC   H4Y22081   4.512   5.507   7.397  1.3662  1.0542  0.7063
  191POPC   C3522082   4.322   5.615   7.445 -0.5649  0.6585 -0.2376
  191POPC   H5X22083   4.253   5.528   7.444  0.8193 -0.4418 -0.3318
  191POPC   H5Y22084   4.257   5.701   7.417 -0.1173  1.5370  1.3267
  191POPC   C3622085   4.350   5.623   7.602 -0.0544  0.5672  0.5286
  191POPC   H6X22086   4.376   5.727   7.629 -1.4947  1.0704  0.0582
  191POPC   H6Y22087   4.429   5.551   7.630  0.2125  0.6863  0.0813
  191POPC   C3722088   4.234   5.588   7.700 -0.8413  0.5320 -0.7016
  191POPC   H7X22089   4.221   5.478   7.698 -1.6320  0.6111 -0.0451
  191POPC   H7Y22090   4.144   5.642   7.664 -1.3907 -0.8887 -1.4654
  191POPC   C3822091   4.264   5.646   7.843 -0.2093  0.4118  0.0190
  191POPC   H8X22092   4.266   5.757   7.843 -0.7040  0.4318  0.9577
  191POPC   H8Y22093   4.363   5.608   7.878  0.4419  2.5363  0.5546
  191POPC   C3922094   4.145   5.601   7.936  0.6987  0.3476 -0.0692
  191POPC   H9X22095   4.167   5.637   8.038  0.1835  2.0078 -0.5362
  191POPC   H9Y22096   4.147   5.490   7.929  1.8830  0.2600  1.3929
  191POPC  C31022097   4.010   5.659   7.887 -0.0098 -0.3500  0.2060
  191POPC  H10X22098   3.952   5.576   7.840  2.1167 -0.7564 -1.8137
  191POPC  H10Y22099   4.027   5.734   7.807  1.3909 -1.2249 -0.3290
  191POPC  C31122100   3.917   5.721   7.992  0.3836  0.4635  0.9299
  191POPC  H11X22101   3.832   5.772   7.941 -1.0080 -0.0537  2.6902
  191POPC  H11Y22102   3.976   5.803   8.040  2.8837  0.1683 -1.4871
  191POPC  C31222103   3.857   5.619   8.090  0.2071  0.2589  0.3995
  191POPC  H12X22104   3.947   5.578   8.140 -1.0663 -1.8217  1.0235
  191POPC  H12Y22105   3.812   5.539   8.029 -0.3616  1.1812 -0.4056
  191POPC  C31322106   3.753   5.671   8.198  0.1357  0.4190  0.5120
  191POPC  H13X22107   3.790   5.768   8.238  1.0012 -0.7839  2.7022
  191POPC  H13Y22108   3.751   5.603   8.286  2.6228  1.0679  1.1055
  191POPC  C31422109   3.616   5.699   8.137 -0.7345 -0.7329 -0.1166
  191POPC  H14X22110   3.575   5.614   8.078 -1.7088 -0.4482  0.1397
  191POPC  H14Y22111   3.611   5.776   8.058  0.1479 -1.0144 -0.4577
  191POPC  C31522112   3.511   5.719   8.248  0.6416 -0.0709 -0.4142
  191POPC  H15X22113   3.424   5.760   8.192 -0.9651 -2.9990 -0.1261
  191POPC  H15Y22114   3.537   5.792   8.328  0.1064  0.5991 -0.8427
  191POPC  C31622115   3.465   5.592   8.321 -0.4230  0.2360 -0.4936
  191POPC  H16X22116   3.539   5.543   8.387  0.2304  0.7645 -0.8295
  191POPC  H16Y22117   3.411   5.526   8.249 -1.9764  1.8798 -0.8708
  191POPC  H16Z22118   3.395   5.639   8.394  0.3797 -0.0200  0.4542
  192POPC     N22119   3.129   1.576   6.098 -0.1090  0.2773 -0.3012
  192POPC   C1222120   3.165   1.699   6.190 -0.7424 -0.2218  0.2050
  192POPC  H12A22121   3.169   1.660   6.291 -0.7977 -2.3876 -0.5836
  192POPC  H12B22122   3.090   1.776   6.193 -1.5967 -1.0659  1.0321
  192POPC   C1322123   3.236   1.472   6.116 -0.4313 -0.5549  0.2656
  192POPC  H13A22124   3.332   1.512   6.087 -0.3364 -2.0528 -1.6725
  192POPC  H13B22125   3.236   1.431   6.216  0.6176  0.7926  0.8372
  192POPC  H13C22126   3.229   1.385   6.051  0.0682 -0.8071  0.5410
  192POPC   C1422127   2.994   1.525   6.139  0.3241  0.2111  0.7628
  192POPC  H14A22128   2.923   1.604   6.121 -0.5853 -0.9116 -0.7247
  192POPC  H14B22129   2.964   1.444   6.074 -1.7313  0.1757  1.7295
  192POPC  H14C22130   2.999   1.472   6.233  2.5990 -0.2375  0.4250
  192POPC   C1522131   3.133   1.619   5.954  0.2959  0.6998 -1.0035
  192POPC  H15A22132   3.094   1.534   5.899  1.0224  0.8376 -1.7452
  192POPC  H15B22133   3.235   1.643   5.926  1.6187 -0.9820  2.1519
  192POPC  H15C22134   3.064   1.702   5.954 -1.0590 -0.3328  2.1757
  192POPC   C1122135   3.290   1.774   6.145  0.0549 -0.7299 -0.1257
  192POPC  H11A22136   3.302   1.854   6.221  2.6706 -1.0089 -0.1700
  192POPC  H11B22137   3.267   1.816   6.045 -3.3137 -2.6911 -0.2450
  192POPC     P22138   3.522   1.706   6.233 -0.2625 -0.0805 -0.1983
  192POPC   O1322139   3.593   1.825   6.187  0.1338 -0.1963 -0.0834
  192POPC   O1422140   3.600   1.583   6.248  0.6184 -0.0929  0.2599
  192POPC   O1222141   3.405   1.690   6.126 -0.4546 -0.5139  0.3464
  192POPC   O1122142   3.447   1.742   6.369  0.6707  0.2246 -0.4656
  192POPC    C122143   3.401   1.631   6.451 -0.3144 -0.0467  0.3512
  192POPC    HA22144   3.384   1.537   6.394  0.0736 -0.2268  0.5319
  192POPC    HB22145   3.303   1.654   6.497 -0.8848 -1.0157 -0.3824
  192POPC    C222146   3.498   1.606   6.578 -0.8732 -0.5222  0.4956
  192POPC    HS22147   3.474   1.688   6.649 -1.9565 -1.2131  0.9445
  192POPC   O2122148   3.636   1.608   6.534 -0.2115 -0.4223  0.0850
  192POPC   C2122149   3.694   1.724   6.553 -0.6855 -0.4776  0.2746
  192POPC   O2222150   3.634   1.828   6.583  0.2796 -0.5010 -0.2882
  192POPC   C2222151   3.848   1.710   6.554  0.6973 -0.5723  0.3316
  192POPC   H2R22152   3.884   1.671   6.457  2.7044 -1.0872  1.2581
  192POPC   H2S22153   3.877   1.627   6.623 -0.3031 -1.2535 -0.0604
  192POPC    C322154   3.470   1.478   6.661  0.0327  0.5849 -0.9624
  192POPC    HX22155   3.482   1.384   6.602 -0.0224 -0.1939  0.2594
  192POPC    HY22156   3.361   1.482   6.683  0.1350  3.5191 -0.8886
  192POPC   O3122157   3.534   1.483   6.791 -0.0605 -0.1049  0.7729
  192POPC   C3122158   3.644   1.414   6.802 -0.1237  0.1228  0.1411
  192POPC   O3222159   3.699   1.350   6.713 -0.9405 -0.0918 -0.1985
  192POPC   C3222160   3.705   1.428   6.947 -0.8952  0.4164 -0.1446
  192POPC   H2X22161   3.796   1.489   6.929 -1.6690  0.8135 -2.9311
  192POPC   H2Y22162   3.736   1.324   6.971  2.1447  1.6510  1.5914
  192POPC   C2322163   3.927   1.840   6.597  0.1386 -0.2246  0.3710
  192POPC   H3R22164   3.907   1.876   6.700 -0.1680 -1.9874  0.9311
  192POPC   H3S22165   3.892   1.924   6.533 -0.0609 -0.7767 -0.2525
  192POPC   C2422166   4.084   1.831   6.583  1.3516  0.8620  0.0448
  192POPC   H4R22167   4.113   1.934   6.613  2.1712  0.1744  1.6828
  192POPC   H4S22168   4.105   1.815   6.475  1.0151 -2.3448  0.4006
  192POPC   C2522169   4.148   1.717   6.665 -0.1963  0.9044 -0.1464
  192POPC   H5R22170   4.255   1.706   6.640 -0.2158  3.5609 -1.6145
  192POPC   H5S22171   4.105   1.622   6.628  1.9369 -0.7824  1.5750
  192POPC   C2622172   4.131   1.735   6.812  0.1102  0.1657  0.5943
  192POPC   H6R22173   4.181   1.657   6.872  3.0709  0.2782 -1.6117
  192POPC   H6S22174   4.025   1.732   6.846 -0.5590  1.2032 -1.2666
  192POPC   C2722175   4.192   1.868   6.866 -0.6463  0.1170 -0.0346
  192POPC   H7R22176   4.132   1.955   6.834 -1.6955 -0.5355  0.1470
  192POPC   H7S22177   4.288   1.882   6.811  1.6040  1.1480  3.9837
  192POPC   C2822178   4.228   1.875   7.022 -0.3291 -0.4467 -0.8846
  192POPC   H8R22179   4.305   1.953   7.031 -0.1463 -0.6011 -1.0999
  192POPC   H8S22180   4.280   1.781   7.051 -1.7997 -1.2326 -0.7130
  192POPC   C2922181   4.115   1.897   7.112 -0.0387 -0.2371  0.8605
  192POPC   H9122182   4.064   1.991   7.087 -0.3755 -0.4895  0.5967
  192POPC  C21022183   4.073   1.813   7.206 -0.0025  0.2687 -0.0381
  192POPC  H10122184   3.987   1.839   7.269 -0.8506 -1.3764 -0.4776
  192POPC  C21122185   4.124   1.673   7.231  0.1420 -0.0911 -0.4007
  192POPC  H11R22186   4.173   1.630   7.141  2.1312 -0.4316  0.8245
  192POPC  H11S22187   4.031   1.614   7.244  0.3486 -0.0376  1.4451
  192POPC  C21222188   4.205   1.634   7.349  0.7357 -0.2795 -0.9021
  192POPC  H12R22189   4.305   1.680   7.334  0.8467 -0.5476 -0.9716
  192POPC  H12S22190   4.222   1.525   7.362  0.0869 -0.2733  0.1200
  192POPC  C21322191   4.138   1.673   7.482  0.1289 -0.2940 -0.2663
  192POPC  H13R22192   4.039   1.622   7.479  0.4106 -0.7942 -1.9263
  192POPC  H13S22193   4.145   1.784   7.480 -1.2937 -0.1959 -1.9076
  192POPC  C21422194   4.215   1.608   7.599 -0.5494  0.3530  0.3190
  192POPC  H14R22195   4.324   1.623   7.583 -0.7062  1.7410  0.5039
  192POPC  H14S22196   4.197   1.499   7.595  2.1766 -0.1824  1.2561
  192POPC  C21522197   4.166   1.662   7.733 -0.2806 -0.0674  0.5182
  192POPC  H15R22198   4.063   1.625   7.752  0.1785 -1.1003  1.0189
  192POPC  H15S22199   4.154   1.772   7.727 -3.9795 -0.5599 -3.0307
  192POPC  C21622200   4.262   1.638   7.843  0.7475  0.1711  0.0763
  192POPC  H16R22201   4.350   1.703   7.824  0.3230  0.6989 -0.1202
  192POPC  H16S22202   4.301   1.535   7.828 -0.7093 -0.2972 -0.5678
  192POPC  C21722203   4.195   1.648   7.983 -0.1160 -0.7491 -0.5603
  192POPC  H17R22204   4.151   1.548   8.003  0.2937 -0.3009  2.9067
  192POPC  H17S22205   4.118   1.728   7.989  0.2178 -0.5929  2.1262
  192POPC  C21822206   4.297   1.667   8.096  0.0248 -0.5218 -0.2120
  192POPC  H18R22207   4.248   1.692   8.192  1.2669 -1.5968  0.7122
  192POPC  H18S22208   4.363   1.753   8.073  1.3571 -1.3560  0.4334
  192POPC  H18T22209   4.363   1.579   8.110 -0.8010 -1.2165 -0.6016
  192POPC   C3322210   3.614   1.485   7.062 -0.8408  0.0153  0.2214
  192POPC   H3X22211   3.524   1.420   7.063 -0.9382  0.1574  0.8144
  192POPC   H3Y22212   3.579   1.583   7.025 -0.2504 -0.7437 -2.4295
  192POPC   C3422213   3.686   1.486   7.192 -0.3586 -0.3286  0.0896
  192POPC   H4X22214   3.784   1.537   7.178 -1.5771  2.7013  2.0911
  192POPC   H4Y22215   3.690   1.379   7.224 -1.0899 -1.2177 -2.7025
  192POPC   C3522216   3.610   1.552   7.303 -0.4086  0.4348 -0.1307
  192POPC   H5X22217   3.515   1.496   7.314  0.6660 -1.3445  0.4210
  192POPC   H5Y22218   3.577   1.656   7.283 -2.7218  0.5007  3.5239
  192POPC   C3622219   3.673   1.548   7.440  0.4682  0.1749  0.5038
  192POPC   H6X22220   3.608   1.591   7.519  1.3802  1.5566  0.5231
  192POPC   H6Y22221   3.772   1.598   7.431  1.8207 -2.0668  2.2543
  192POPC   C3722222   3.704   1.406   7.486 -0.0832  0.5101 -0.4173
  192POPC   H7X22223   3.796   1.366   7.438 -0.1111  2.3371 -2.0643
  192POPC   H7Y22224   3.629   1.335   7.446  1.3307 -0.7494 -0.8827
  192POPC   C3822225   3.717   1.384   7.636 -0.4567 -0.6891 -0.5089
  192POPC   H8X22226   3.796   1.457   7.664 -0.0998 -1.3787  0.2943
  192POPC   H8Y22227   3.759   1.283   7.652  1.6386  0.5954  2.7082
  192POPC   C3922228   3.592   1.406   7.728  1.1544 -0.0854  1.1840
  192POPC   H9X22229   3.527   1.321   7.699  1.5673  0.9137 -3.0526
  192POPC   H9Y22230   3.542   1.499   7.694 -1.1176 -0.9151  2.1769
  192POPC  C31022231   3.623   1.419   7.872  0.2405 -0.3331  0.3134
  192POPC  H10X22232   3.713   1.484   7.874 -0.3776  0.5846 -1.3946
  192POPC  H10Y22233   3.650   1.321   7.919 -0.9909 -1.6211 -1.6171
  192POPC  C31122234   3.507   1.487   7.939  0.3193 -0.7344  0.1818
  192POPC  H11X22235   3.435   1.545   7.877  0.1723  1.1784  2.0879
  192POPC  H11Y22236   3.534   1.577   7.998  0.3250  1.0321 -2.4324
  192POPC  C31222237   3.431   1.379   8.018 -0.5016 -0.7518  0.1628
  192POPC  H12X22238   3.498   1.311   8.074  0.6431  0.2906  0.0985
  192POPC  H12Y22239   3.381   1.317   7.941  0.5787 -2.1032  0.5308
  192POPC  C31322240   3.344   1.426   8.132  0.4476 -0.3658 -0.2721
  192POPC  H13X22241   3.262   1.490   8.093  0.9266 -0.1127 -0.8643
  192POPC  H13Y22242   3.400   1.480   8.211 -0.7357  0.6814 -0.1335
  192POPC  C31422243   3.277   1.300   8.203 -0.0659 -0.4695  0.0004
  192POPC  H14X22244   3.346   1.216   8.223 -1.3240 -1.4815  0.1414
  192POPC  H14Y22245   3.204   1.263   8.128  0.8948  1.1300 -1.7855
  192POPC  C31522246   3.208   1.338   8.337 -0.2043  0.3465  0.5433
  192POPC  H15X22247   3.290   1.356   8.410  1.0262 -1.8529 -0.2217
  192POPC  H15Y22248   3.142   1.256   8.371  1.5471 -1.1616  0.4066
  192POPC  C31622249   3.120   1.466   8.338  0.2072 -0.2045  0.0654
  192POPC  H16X22250   3.033   1.453   8.270 -0.5153 -1.7622  1.2735
  192POPC  H16Y22251   3.177   1.550   8.291  2.7884 -1.9636 -0.0310
  192POPC  H16Z22252   3.075   1.479   8.439  2.0339 -3.1631  1.3049
  193SOD    SOD22253   3.485   4.706   6.450  0.2710  0.4721 -0.2733
  194SOD    SOD22254   5.394   1.741   4.026  0.1482 -0.0631 -0.2233
  195SOD    SOD22255   2.793   1.720  10.842 -0.4287 -0.2292  0.1938
  196SOD    SOD22256   4.697   3.790   2.543 -0.4471 -0.4023 -0.0685
  197SOD    SOD22257   1.374   0.493   4.016  0.3770  0.1007  0.2014
  198SOD    SOD22258   3.657   3.747   6.406  0.0725  0.1919 -0.2746
  199SOD    SOD22259   1.596   5.701   0.009  0.1920  0.1626 -0.2462
  200SOD    SOD22260   1.584   2.108   0.341  0.3944  0.3736 -0.0154
  201SOD    SOD22261   3.535   0.756  10.672  0.4739  0.3602  0.2364
  202SOD    SOD22262   2.887   0.978  15.906  0.0961 -0.8735  0.0529
  203SOD    SOD22263   1.587   4.299  12.002  0.2938  0.2652 -0.3244
  204SOD    SOD22264   1.849   1.781   6.371  0.0617 -0.0043  0.3474
  205SOD    SOD22265   5.721   0.427  12.502 -0.3664  0.1057 -0.5108
  206SOD    SOD22266   4.845   3.123   0.175 -0.0141  0.2703  0.3328
  207SOD    SOD22267   0.696   6.659   3.302  0.4851 -0.5124 -0.0400
  208SOD    SOD22268   6.451   1.279  12.447  0.2190  0.4370  0.2569
  209SOD    SOD22269   0.549   0.323  11.379  0.1581 -0.5117 -0.2268
  210SOD    SOD22270   3.480   1.143  11.691 -0.2497  0.1173 -0.4027
  211SOD    SOD22271   1.711   3.806  11.008  0.4872 -0.2033  0.0995
  212SOD    SOD22272   1.407   6.036  11.072  0.1908 -0.4048  0.0432
  213SOD    SOD22273   2.812   3.139   1.375  0.3088 -0.9231 -0.0532
  214SOD    SOD22274   3.725   3.889   4.936 -0.3773  0.3346  0.3509
  215SOD    SOD22275   4.676   5.811   5.826 -0.0664 -0.3853 -0.1686
  216SOD    SOD22276   3.681   2.052   3.845  0.0379 -0.1453  0.6686
  217SOD    SOD22277   5.890   3.149  16.471 -0.4760 -0.2214  0.0571
  218SOD    SOD22278   1.137   0.622  14.768 -0.1211 -0.1097  0.4074
  219SOD    SOD22279   6.684   6.751  12.893 -0.6503  0.1513 -0.4513
  220SOD    SOD22280   2.530   6.682  10.770 -0.0735  0.1072 -0.3100
  221SOD    SOD22281   5.834   5.016  13.192 -0.4439 -0.0518  0.5065
  222SOD    SOD22282   1.907   6.545   1.762 -0.0776 -0.8732  0.6091
  223SOD    SOD22283   2.695   0.848   5.275 -0.2982  0.8315  0.0248
  224SOD    SOD22284   1.734   3.909   5.936 -0.3303 -0.1559 -0.2616
  225SOD    SOD22285   4.079   1.858  10.714 -0.0010 -0.1119  0.0725
  226SOD    SOD22286   6.168   0.305   2.828 -0.4363  0.1300 -0.0902
  227SOD    SOD22287   1.115   4.580   0.548  0.2836  0.2886 -0.4654
  228SOD    SOD22288   2.664   5.575  11.390  0.0149  0.5405 -0.6343
  229SOD    SOD22289   5.815   3.258   0.212  0.3876 -0.9261 -0.0400
  230SOD    SOD22290   6.333   2.234  14.044 -0.4362 -0.1952 -0.0958
  231SOD    SOD22291   4.886   3.173  14.666  0.0736  0.2215  0.1951
  232SOD    SOD22292   4.029   1.319  13.750  0.5013 -0.1503  0.4790
  233SOD    SOD22293   6.567   2.190   1.556  0.1964 -0.2410 -0.1659
  234SOD    SOD22294   2.092   6.211   6.196  0.0585  0.4837  0.3670
  235SOD    SOD22295   3.883   0.057  15.870 -0.1262 -0.0886 -0.4711
  236SOD    SOD22296   5.451   3.861   5.447 -0.4027  0.1444 -0.0547
  237SOD    SOD22297   6.436   3.862   1.011 -0.5033 -0.2925 -0.0791
  238SOD    SOD22298   3.085   5.467  14.187  0.1217 -0.3888 -0.6886
  239SOD    SOD22299   0.994   4.880   4.786  0.0261  0.1010 -0.6288
  240SOD    SOD22300   2.404   4.371   5.500  0.4524  0.9786  0.3862
  241SOD    SOD22301   6.203   1.405   2.185 -0.0547 -0.7730 -0.0745
  242SOD    SOD22302   1.552   3.575  16.680  0.2666 -0.4502  0.2481
  243SOD    SOD22303   0.195   3.903   4.065 -0.5904  0.2654 -0.1595
  244SOD    SOD22304   3.557   6.593   0.783  0.1571 -0.3086  0.4564
  245SOD    SOD22305   1.791   3.872  12.620 -0.1038  0.4399 -0.3822
  246SOD    SOD22306   3.530   2.063  15.264 -0.0787  0.1837  0.1560
  247SOD    SOD22307   2.527   0.436   4.358  0.0307 -0.3280  0.9585
  248SOD    SOD22308   0.582   6.295   4.668 -0.3417  0.3015 -0.3422
  249SOD    SOD22309   3.110   5.591   4.584 -0.0959  0.0801  0.4374
  250SOD    SOD22310   2.088   6.699   0.057 -0.2641  0.5634  0.0620
  251SOD    SOD22311   4.054   0.793  14.730  0.2766 -0.2775 -0.3509
  252SOD    SOD22312   0.117   5.582  12.672 -0.4162  0.2354  0.1852
  253SOD    SOD22313   1.001   2.777   5.018 -0.1356 -0.5928 -0.4922
  254SOD    SOD22314   5.881   4.195   6.083  0.5796 -0.6009  0.1838
  255SOD    SOD22315   6.090   4.482  15.309  0.2986 -0.3716 -0.2561
  256SOD    SOD22316   2.741   2.552   0.026 -0.2983  0.3163  0.6251
  257SOD    SOD22317   4.485   3.799   5.082  0.1308  0.3726  0.6438
  258SOD    SOD22318   0.126   4.218  10.700  0.7579 -0.0397  0.0523
  259SOD    SOD22319   5.414   3.053  12.113  0.0159  0.1855 -0.2242
  260SOD    SOD22320   3.424   1.726  12.411  0.2732  0.1787  0.0583
  261SOD    SOD22321   3.542   2.959  11.879 -0.4589 -0.1585  0.1199
  262SOD    SOD22322   4.796   4.623   3.090 -0.4506 -0.1805 -0.2929
  263SOD    SOD22323   6.686   6.285  10.937 -0.0704  0.6241 -0.0633
  264SOD    SOD22324   4.262   6.185  16.730 -0.1466 -0.1135 -0.3647
  265SOD    SOD22325   0.323   6.010   3.920  0.1201 -0.0898 -0.0851
  266SOD    SOD22326   1.982   5.745  14.903 -0.5276  0.2467  0.1518
  267SOD    SOD22327   0.655   2.696   6.699  0.1619  0.5516 -0.1738
  268SOD    SOD22328   4.850   5.495  10.825 -0.4065  0.1557 -0.1954
  269SOD    SOD22329   4.077   5.324  15.686  0.2194 -0.0112 -0.3981
  270CLA    CLA22330   4.939   0.756  12.724 -0.1749 -0.2780  0.2643
  271CLA    CLA22331   2.641   6.154   4.649  0.6561 -0.0406  0.3076
  272CLA    CLA22332   6.653   6.465   3.823 -0.3014 -0.2778  0.1783
  273CLA    CLA22333   5.334   6.560  12.391  0.1301  0.0558  0.0985
  274CLA    CLA22334   1.612   0.999   4.348  0.0491  0.4581 -0.1374
  275CLA    CLA22335   5.942   0.527   2.153 -0.1989  0.4008  0.3855
  276CLA    CLA22336   6.519   3.173  14.156 -0.2185 -0.2582 -0.0516
  277CLA    CLA22337   2.394   2.182   5.351 -0.3810 -0.1010  0.3298
  278CLA    CLA22338   2.116   3.541  13.466  0.0886  0.1944  0.1797
  279CLA    CLA22339   0.694   3.801  16.124 -0.1015 -0.1557 -0.0176
  280CLA    CLA22340   3.509   6.625  15.567 -0.0339 -0.2699 -0.0895
  281CLA    CLA22341   4.529   4.763  12.059  0.1784  0.0785 -0.1343
  282CLA    CLA22342   6.321   5.876  16.805  0.0168 -0.0026 -0.0253
  283CLA    CLA22343   0.250   3.939   4.925  0.3538 -0.0151 -0.3970
  284CLA    CLA22344   4.437   2.141  12.303  0.0140 -0.6165  0.2004
  285CLA    CLA22345   6.545   0.046  12.417 -0.0420 -0.3668  0.0084
  286CLA    CLA22346   6.299   1.849   3.224 -0.3920  0.4205 -0.3219
  287CLA    CLA22347   4.472   4.612   0.273 -0.0607  0.2554 -0.4994
  288CLA    CLA22348   5.399   1.891  14.073  0.2737 -0.1649  0.1188
  289CLA    CLA22349   5.747   3.887  13.890 -0.0651  0.0921  0.0143
  290CLA    CLA22350   1.838   6.564  17.239 -0.0562 -0.0779 -0.1314
  291CLA    CLA22351   0.232   6.509  13.310 -0.2064  0.3245  0.0077
  292CLA    CLA22352   6.220   2.809   2.140 -0.4865 -0.7293 -0.0916
  293CLA    CLA22353   6.606   5.982   4.882 -0.1185  0.0663 -0.0495
  294CLA    CLA22354   6.485   3.675   0.832 -0.1096 -0.2259  0.2071
  295CLA    CLA22355   4.753   5.911  17.094 -0.2483 -0.2578 -0.2149
  296CLA    CLA22356   0.828   4.485  14.770  0.0193  0.3439 -0.1834
  297CLA    CLA22357   1.710   1.088   0.903  0.2548 -0.2460 -0.0267
  298CLA    CLA22358   3.396   2.226  15.413 -0.2906 -0.0121 -0.1366
  299CLA    CLA22359   2.992   1.482  11.259  0.0260 -0.2007 -0.3115
  300CLA    CLA22360   0.170   5.065  13.053 -0.3795 -0.0867  0.1088
  301CLA    CLA22361   4.859   0.600  15.604  0.1053  0.1430  0.2162
  302CLA    CLA22362   1.081   4.796  16.635 -0.1747 -0.0882 -0.0327
  303CLA    CLA22363   4.373   4.083   2.797  0.4115  0.1439  0.4127
  304CLA    CLA22364   2.565   1.600  16.451 -0.0409  0.1182  0.0958
  305CLA    CLA22365   3.047   1.051   0.127 -0.0731 -0.3912  0.2756
  306CLA    CLA22366   1.794   0.492  16.552  0.1107  0.1177 -0.2397
  307CLA    CLA22367   4.122   1.640  15.255  0.3553 -0.1781  0.0076
  308CLA    CLA22368   5.485   3.525   0.523 -0.1502  0.0693  0.1759
  309CLA    CLA22369   0.583   3.580   4.188 -0.0167  0.3406  0.6245
  310CLA    CLA22370   6.366   4.440  16.517 -0.0085 -0.2094  0.1002
  311CLA    CLA22371   3.946   5.216   4.592 -0.0774 -0.5386 -0.1539
  312CLA    CLA22372   1.060   6.511  13.209  0.1197  0.5601 -0.0400
  313CLA    CLA22373   2.874   2.223   2.985 -0.2670  0.3584 -0.3968
  314CLA    CLA22374   3.795   0.369   0.953 -0.4419 -0.4655 -0.1319
  315CLA    CLA22375   3.022   2.940   1.908 -0.1184  0.1621 -0.1193
  316CLA    CLA22376   5.320   2.271   1.373  0.1981  0.1219  0.1861
  317CLA    CLA22377   6.769   2.455  16.957  0.2692 -0.1777 -0.2083
  318CLA    CLA22378   0.218   5.884  13.703  0.0752  0.1481  0.3889
  319CLA    CLA22379   0.732   4.892   0.111 -0.3064  0.1722  0.0266
  320CLA    CLA22380   4.653   6.700   2.350  0.1484 -0.0043 -0.4823
  321CLA    CLA22381   6.071   2.956   5.597 -0.1050 -0.0150  0.0773
  322CLA    CLA22382   6.324   4.905   1.997  0.0335 -0.1426  0.5185
  323TIP3   OH222383   3.804   2.915   3.680 -0.0913  0.3493 -0.1458
  323TIP3    H122384   3.836   2.967   3.606 -1.7204  1.5843 -0.0197
  323TIP3    H222385   3.768   2.836   3.641  1.2647 -0.1303 -0.4504
  324TIP3   OH222386   2.908   5.709   5.345  0.2557 -0.8365 -0.1781
  324TIP3    H122387   2.868   5.793   5.326  0.2268 -0.5843  0.9613
  324TIP3    H222388   2.926   5.712   5.439 -1.5080 -2.8440  0.2681
  325TIP3   OH222389   0.826   2.761  17.032  0.2656  0.0028 -0.2318
  325TIP3    H122390   0.881   2.838  17.050 -1.0760  0.4063  2.2188
  325TIP3    H222391   0.888   2.697  16.996  1.6066  1.8109 -1.2789
  326TIP3   OH222392   5.335   4.490  16.940 -0.4917  0.0955  0.3025
  326TIP3    H122393   5.309   4.582  16.945 -0.4069  0.1152  0.3854
  326TIP3    H222394   5.271   4.450  16.882 -0.6622  0.1611  0.4427
  327TIP3   OH222395   4.770   0.065  15.351  0.1690  0.0973  0.1051
  327TIP3    H122396   4.675   0.059  15.362  0.2695 -0.1153  0.8547
  327TIP3    H222397   4.788   0.159  15.352  0.1272  0.0998  1.3655
  328TIP3   OH222398   1.701   4.554  16.187  0.5041  0.0241  0.3196
  328TIP3    H122399   1.612   4.566  16.219  0.0221 -1.3235 -0.4906
  328TIP3    H222400   1.691   4.524  16.097  1.7925  0.4708  0.0152
  329TIP3   OH222401   3.100   1.606  16.353 -0.0407  0.1350  0.1576
  329TIP3    H122402   3.086   1.607  16.448 -0.9468 -1.7186  0.0654
  329TIP3    H222403   3.020   1.644  16.316  0.1375  0.4660  0.1055
  330TIP3   OH222404   1.311   4.328  13.520  0.1451  0.2471  0.1713
  330TIP3    H122405   1.291   4.256  13.581  0.6079 -0.1064 -0.0847
  330TIP3    H222406   1.396   4.361  13.550 -0.0372  0.6476  0.2475
  331TIP3   OH222407   6.608   2.146  14.387  0.1806  0.3893 -0.1090
  331TIP3    H122408   6.612   2.241  14.377  0.3628  0.4133  0.1903
  331TIP3    H222409   6.520   2.128  14.419  0.1314  0.4521 -0.2079
  332TIP3   OH222410   6.532   1.525  14.821  0.3059 -0.7270 -0.0144
  332TIP3    H122411   6.529   1.583  14.745 -0.6797 -2.1866 -1.1208
  332TIP3    H222412   6.573   1.577  14.890 -3.2693  2.3421 -0.0824
  333TIP3   OH222413   5.555   5.170   4.105  0.4218  0.5524  0.9129
  333TIP3    H122414   5.467   5.202   4.083  0.0620 -0.8833  0.1709
  333TIP3    H222415   5.552   5.156   4.199 -0.3768 -0.1045  0.8048
  334TIP3   OH222416   4.402   5.465   2.255  0.6423  0.5348  0.1656
  334TIP3    H122417   4.411   5.467   2.350  1.0113  1.0655  0.1229
  334TIP3    H222418   4.415   5.556   2.228  0.1895  0.4473 -0.3614
  335TIP3   OH222419   2.299   3.426  12.921 -0.2243 -0.3417  0.3618
  335TIP3    H122420   2.392   3.423  12.901 -0.0878  0.2740  0.8804
  335TIP3    H222421   2.269   3.507  12.880 -0.3056  0.0219  1.1332
  336TIP3   OH222422   3.006   5.065  13.521  0.0383  0.2254  0.5083
  336TIP3    H122423   3.095   5.069  13.485 -0.1182  0.7247  0.1645
  336TIP3    H222424   2.950   5.099  13.451 -0.9057 -3.6955 -0.7232
  337TIP3   OH222425   1.468   0.535   2.650 -0.2121 -0.1275 -0.3950
  337TIP3    H122426   1.438   0.451   2.616  0.7666  0.2696 -2.3072
  337TIP3    H222427   1.393   0.593   2.641 -1.0725 -0.9136  1.4596
  338TIP3   OH222428   3.659   6.784  15.997  0.4292 -0.2441  0.1120
  338TIP3    H122429   3.591   6.744  15.943 -0.1484  1.2345 -0.2778
  338TIP3    H222430   3.634   6.876  16.003  0.9578 -0.2242  2.2175
  339TIP3   OH222431   1.050   5.165   1.247  0.4389 -0.0780 -0.4287
  339TIP3    H122432   1.077   5.214   1.324 -1.2804 -0.8537  0.6922
  339TIP3    H222433   1.015   5.231   1.187  0.3093  0.3546  0.1192
  340TIP3   OH222434   4.325   3.688  13.609  0.1815 -0.0300 -0.4785
  340TIP3    H122435   4.280   3.606  13.631 -0.5674  0.4955 -0.0178
  340TIP3    H222436   4.383   3.664  13.537 -3.8008  0.1153 -3.9538
  341TIP3   OH222437   0.082   1.525   4.966  0.2318  0.1601 -0.1459
  341TIP3    H122438   0.155   1.570   4.924 -1.1186  1.3016 -1.3127
  341TIP3    H222439   0.075   1.442   4.919  0.7961  0.0274 -0.0028
  342TIP3   OH222440   1.665   3.038  12.135 -0.3422 -0.3218 -0.5152
  342TIP3    H122441   1.613   2.988  12.198 -1.1788  0.1986 -0.7902
  342TIP3    H222442   1.725   2.973  12.098 -0.5310 -0.8476  0.0858
  343TIP3   OH222443   6.157   6.343  16.986  0.4324  0.3520 -0.1236
  343TIP3    H122444   6.117   6.427  16.967 -1.1498 -0.3010  0.2552
  343TIP3    H222445   6.248   6.352  16.958  0.0370  1.8794 -0.9155
  344TIP3   OH222446   5.737   4.969   1.927  0.1126  0.2994  0.3363
  344TIP3    H122447   5.828   4.969   1.956 -0.1616  0.6913  1.2256
  344TIP3    H222448   5.721   4.879   1.896  0.6989  0.1436  0.4891
  345TIP3   OH222449   3.233   5.405  13.527 -0.2919 -0.3644  0.4093
  345TIP3    H122450   3.178   5.413  13.606 -1.3838 -0.1835 -0.3552
  345TIP3    H222451   3.170   5.402  13.455  0.7347  0.4477 -0.5295
  346TIP3   OH222452   5.845   6.174  15.415 -0.4237  0.2736 -0.7165
  346TIP3    H122453   5.795   6.210  15.489 -0.1975  0.5597 -0.7033
  346TIP3    H222454   5.803   6.090  15.397  0.5759 -0.5825  0.8403
  347TIP3   OH222455   1.730   5.940   2.063  0.4155 -0.0760  0.0607
  347TIP3    H122456   1.735   6.035   2.065  2.2858 -0.1572 -0.3835
  347TIP3    H222457   1.729   5.918   1.970  0.8147 -0.5356  0.1664
  348TIP3   OH222458   0.770   3.681  15.816 -0.0100 -0.1641  0.1482
  348TIP3    H122459   0.772   3.735  15.895 -1.6887 -0.2797  0.2876
  348TIP3    H222460   0.836   3.613  15.832  0.8099  0.7649  0.7496
  349TIP3   OH222461   5.867   6.007   2.401  0.2658  0.6550  0.1030
  349TIP3    H122462   5.804   6.042   2.464 -0.7916 -0.2726 -0.4293
  349TIP3    H222463   5.888   5.919   2.433  0.1701  0.4033 -0.5212
  350TIP3   OH222464   0.648   3.165  12.807  0.3289 -0.3172  0.8645
  350TIP3    H122465   0.686   3.247  12.837  1.3191  0.4004 -2.1322
  350TIP3    H222466   0.566   3.191  12.765  0.3627 -0.9279  0.4146
  351TIP3   OH222467   2.937   0.034   3.360 -0.2060 -0.9353 -0.7754
  351TIP3    H122468   2.955  -0.051   3.400  1.5046 -0.0446  0.4073
  351TIP3    H222469   2.967   0.097   3.425  1.2196  0.5608 -2.8418
  352TIP3   OH222470   3.718   1.399   3.337 -0.0001 -0.1841  0.1878
  352TIP3    H122471   3.772   1.338   3.287  0.1592 -0.4749  0.7126
  352TIP3    H222472   3.761   1.484   3.326  0.4983 -0.3918  0.5042
  353TIP3   OH222473   4.155   3.960   5.157  0.0327 -0.4434 -0.2314
  353TIP3    H122474   4.095   3.916   5.218  1.4164  0.9039  2.2031
  353TIP3    H222475   4.242   3.933   5.187  0.7755  1.2489 -0.8102
  354TIP3   OH222476   2.226   3.336   3.500  0.0636 -0.4427  0.1323
  354TIP3    H122477   2.154   3.381   3.457  0.7022  0.7653  0.2861
  354TIP3    H222478   2.185   3.282   3.567 -0.9348 -2.2511 -1.8860
  355TIP3   OH222479   3.524   2.402   0.359  0.5636  0.0493 -0.4824
  355TIP3    H122480   3.486   2.424   0.274 -2.4588  3.6608  1.6715
  355TIP3    H222481   3.616   2.382   0.339  0.3497  2.4132 -4.4075
  356TIP3   OH222482   1.704   3.721  14.544  0.0665  0.4490 -0.7139
  356TIP3    H122483   1.709   3.628  14.566  0.5026  0.6754  0.1930
  356TIP3    H222484   1.613   3.734  14.518 -0.3232  0.0093  0.3560
  357TIP3   OH222485   1.372   1.008   6.579  0.2351  0.0603  0.3307
  357TIP3    H122486   1.320   1.005   6.659  1.2783 -2.3222  0.9711
  357TIP3    H222487   1.448   1.062   6.602 -0.3933  0.9427  0.3506
  358TIP3   OH222488   3.902   3.268   1.687 -0.0658 -0.4618  0.1688
  358TIP3    H122489   3.971   3.222   1.735  0.1876 -0.0644  0.1868
  358TIP3    H222490   3.943   3.349   1.658 -1.0072  0.5532  1.6283
  359TIP3   OH222491   0.302   0.045  16.351 -0.1480  0.4859  0.1415
  359TIP3    H122492   0.300  -0.027  16.414 -0.3007  0.1183 -0.2750
  359TIP3    H222493   0.349   0.009  16.276  0.7177  1.1725  0.3467
  360TIP3   OH222494   6.026   5.159   1.359  0.0134  0.2582 -1.2229
  360TIP3    H122495   6.012   5.070   1.327 -1.5805  0.4066 -0.9589
  360TIP3    H222496   5.978   5.164   1.442 -1.0222  1.7754 -1.8925
  361TIP3   OH222497   6.452   3.357   3.520  0.2600 -0.5212  0.2399
  361TIP3    H122498   6.406   3.301   3.456  0.1454 -0.0647 -0.0777
  361TIP3    H222499   6.471   3.437   3.472  0.4830 -0.3096  0.6823
  362TIP3   OH222500   3.730   3.398   6.650  0.7791 -0.1418 -0.0262
  362TIP3    H122501   3.780   3.467   6.606  0.8751 -1.4943 -2.1418
  362TIP3    H222502   3.794   3.327   6.663 -0.2126 -1.3434 -1.4757
  363TIP3   OH222503   5.489   5.826  13.318 -0.0813  0.3382  0.3805
  363TIP3    H122504   5.464   5.901  13.264 -1.4890 -0.8064 -0.6175
  363TIP3    H222505   5.573   5.797  13.283 -0.6451  0.0462 -0.7758
  364TIP3   OH222506   3.186   0.605   0.197 -0.0702 -0.0218  0.1029
  364TIP3    H122507   3.130   0.633   0.270 -0.1713  0.6720 -0.2311
  364TIP3    H222508   3.184   0.679   0.136 -1.0396 -1.1363 -1.2283
  365TIP3   OH222509   1.832   1.085  14.000  0.4871  0.6288 -0.2433
  365TIP3    H122510   1.890   1.009  13.994  0.8119  0.9756 -1.9056
  365TIP3    H222511   1.866   1.136  14.073 -0.9536 -1.8180  2.2108
  366TIP3   OH222512   4.555   1.552  14.202  0.4347  0.6219  0.6682
  366TIP3    H122513   4.461   1.546  14.192  0.5930  1.5715 -1.5211
  366TIP3    H222514   4.587   1.463  14.187 -0.0794  0.3187  1.3268
  367TIP3   OH222515   5.602   5.059   1.188 -0.0918  0.4606 -0.4828
  367TIP3    H122516   5.619   5.147   1.220  1.9789  0.1962 -0.7922
  367TIP3    H222517   5.585   5.007   1.267  2.8274  0.2736  0.0731
  368TIP3   OH222518   1.477   0.530  11.564 -0.2450 -0.1597  0.5409
  368TIP3    H122519   1.532   0.601  11.530 -0.2986 -0.9880 -1.3335
  368TIP3    H222520   1.425   0.503  11.489  0.2626 -2.6585  1.0628
  369TIP3   OH222521   3.625   4.672   4.676 -0.3681  0.3722 -0.4705
  369TIP3    H122522   3.686   4.655   4.748 -2.6326  0.1823  1.4947
  369TIP3    H222523   3.660   4.749   4.632  1.1253  0.4285  0.7856
  370TIP3   OH222524   3.643   1.761  16.764  0.5039  0.6761  0.1777
  370TIP3    H122525   3.681   1.673  16.766  0.5276  0.5636 -2.4676
  370TIP3    H222526   3.552   1.749  16.793  0.2982 -0.3707 -0.8313
  371TIP3   OH222527   3.022   6.160  14.978 -0.3499  0.0686 -0.1844
  371TIP3    H122528   3.098   6.217  14.993 -0.2042 -0.1168 -0.2051
  371TIP3    H222529   3.011   6.160  14.883  1.3309 -2.0698 -0.4139
  372TIP3   OH222530   4.341   0.705  12.536 -0.0564 -0.0643  0.2811
  372TIP3    H122531   4.418   0.740  12.493 -0.7294  1.4305  0.2571
  372TIP3    H222532   4.287   0.669  12.466  1.4146 -2.7539  0.4734
  373TIP3   OH222533   4.179   0.038   4.360  0.0005  0.6397  0.4323
  373TIP3    H122534   4.216   0.124   4.340  3.3946 -1.1440 -1.2632
  373TIP3    H222535   4.126   0.053   4.439  2.6392  3.7479  1.7322
  374TIP3   OH222536   1.314   0.389  13.311  0.0963  0.4972  0.1414
  374TIP3    H122537   1.273   0.349  13.388  1.6033  0.0693  0.7456
  374TIP3    H222538   1.243   0.398  13.248 -1.1440  0.7752  1.5574
  375TIP3   OH222539   4.392   0.300   2.444 -0.0029 -0.2585 -0.6661
  375TIP3    H122540   4.424   0.340   2.525 -0.0219 -1.0464 -0.2588
  375TIP3    H222541   4.446   0.339   2.375  1.2543 -0.9075 -0.0764
  376TIP3   OH222542   4.987   3.711   0.260 -0.0141 -0.1000 -0.2226
  376TIP3    H122543   4.955   3.663   0.184 -1.8100 -0.5732  0.7955
  376TIP3    H222544   4.934   3.678   0.333  1.7222  0.2880  1.2406
  377TIP3   OH222545   3.399   1.009   1.588 -0.0021 -0.2496 -0.1947
  377TIP3    H122546   3.486   1.048   1.593  0.7739 -1.5554 -2.5790
  377TIP3    H222547   3.381   0.981   1.678  3.2796 -2.4920 -0.1233
  378TIP3   OH222548   3.446   4.717   3.957 -0.6698 -0.0502  0.1055
  378TIP3    H122549   3.362   4.673   3.945 -1.5059  1.6757 -0.5616
  378TIP3    H222550   3.437   4.763   4.040  1.0629 -2.9752  2.0081
  379TIP3   OH222551   1.036   3.024  11.189 -0.2004  0.4761  0.1677
  379TIP3    H122552   1.058   2.973  11.267 -0.8368 -0.3711 -0.2073
  379TIP3    H222553   1.110   3.085  11.179 -0.0675  0.5322  1.3693
  380TIP3   OH222554   6.266   1.634   4.531  0.3226  0.0805 -0.7514
  380TIP3    H122555   6.358   1.611   4.545  0.6123  0.8984 -1.2697
  380TIP3    H222556   6.231   1.560   4.481  0.5289 -0.5380  0.0096
  381TIP3   OH222557   4.048   6.615   0.118 -0.2437 -0.3847 -0.6737
  381TIP3    H122558   4.064   6.665   0.037 -2.1493  1.5634  0.1142
  381TIP3    H222559   3.968   6.653   0.155 -0.5154 -2.5765  1.1248
  382TIP3   OH222560   5.049   0.911   5.540 -0.3846  0.1146  0.4711
  382TIP3    H122561   5.120   0.904   5.604 -2.0284 -0.2754  2.2753
  382TIP3    H222562   5.050   0.827   5.494 -0.3653 -0.2988  1.2180
  383TIP3   OH222563   5.033   5.492  15.873  0.2376  0.1424  0.4752
  383TIP3    H122564   4.953   5.488  15.820  0.2260 -0.1264  0.5155
  383TIP3    H222565   5.042   5.585  15.895 -0.5965  0.0351  1.2888
  384TIP3   OH222566   6.357   4.532  11.208 -0.3029  0.3940  0.1703
  384TIP3    H122567   6.372   4.554  11.300  1.1036  1.0137 -0.2052
  384TIP3    H222568   6.371   4.614  11.161 -3.6107  0.7537 -0.3641
  385TIP3   OH222569   1.205   2.320   0.571  0.2461 -0.1475  0.0171
  385TIP3    H122570   1.170   2.376   0.641  1.6652  0.2955  0.3934
  385TIP3    H222571   1.207   2.376   0.494 -1.4735 -0.6839 -0.4436
  386TIP3   OH222572   4.616   1.182   4.878 -0.3378  0.6583 -0.0219
  386TIP3    H122573   4.595   1.094   4.847 -0.9187  1.3051 -1.4943
  386TIP3    H222574   4.531   1.223   4.894 -0.0726  1.0187  0.4888
  387TIP3   OH222575   2.951   6.658  13.198  0.2185  0.4421 -0.2291
  387TIP3    H122576   3.010   6.624  13.130 -0.2860 -3.1977  1.0141
  387TIP3    H222577   2.887   6.588  13.211 -0.8984  1.8933  2.5351
  388TIP3   OH222578   6.292   4.247   2.775  0.4133 -0.3662 -1.1680
  388TIP3    H122579   6.228   4.318   2.779  2.5609  1.5307  0.4893
  388TIP3    H222580   6.256   4.179   2.832 -0.7644  0.1275 -1.3149
  389TIP3   OH222581   5.839   6.283   5.565  0.1174 -0.5184  0.1665
  389TIP3    H122582   5.749   6.311   5.580  0.6402  1.8645 -0.8232
  389TIP3    H222583   5.880   6.286   5.651 -0.3255 -0.0015  0.3619
  390TIP3   OH222584   0.696   5.783   0.533  0.2181 -0.3979 -0.1762
  390TIP3    H122585   0.723   5.735   0.611  1.1393 -1.0288 -0.8786
  390TIP3    H222586   0.735   5.869   0.543  1.1514 -0.7929 -0.4123
  391TIP3   OH222587   1.181   5.612  13.676  0.5309 -0.6809  0.1964
  391TIP3    H122588   1.138   5.650  13.752  0.5613  0.1390 -0.1895
  391TIP3    H222589   1.213   5.527  13.706  0.4056 -0.4307  1.0484
  392TIP3   OH222590   4.811   3.713  12.004  0.6455  0.0693 -0.2401
  392TIP3    H122591   4.865   3.784  12.039 -2.3373  1.3484  1.9049
  392TIP3    H222592   4.823   3.641  12.066 -1.5554  1.0098  1.3316
  393TIP3   OH222593   2.546   6.231  15.226  0.2725  0.0890  0.4231
  393TIP3    H122594   2.493   6.305  15.195 -0.9542 -0.4234  1.2696
  393TIP3    H222595   2.628   6.271  15.255  1.5642  0.5744 -3.6089
  394TIP3   OH222596   2.604   0.243  14.035 -0.2890 -0.3148  0.2049
  394TIP3    H122597   2.638   0.331  14.015 -1.5331  0.3504  0.9592
  394TIP3    H222598   2.558   0.217  13.955  1.1249 -0.8138 -0.4674
  395TIP3   OH222599   5.432   2.131  14.894 -0.1916 -0.2631  0.3457
  395TIP3    H122600   5.355   2.123  14.951 -0.3674 -0.1312  0.1261
  395TIP3    H222601   5.459   2.041  14.877 -1.0208 -0.3537 -0.5550
  396TIP3   OH222602   1.752   5.776  14.982 -0.2922  0.6078  0.2933
  396TIP3    H122603   1.662   5.749  14.995 -0.0224 -0.1886  0.5438
  396TIP3    H222604   1.748   5.871  14.971 -1.0079  0.7419  1.6686
  397TIP3   OH222605   5.318   3.581   6.194 -0.5984  0.3511  0.0719
  397TIP3    H122606   5.412   3.579   6.176  0.0561 -0.2052  3.2003
  397TIP3    H222607   5.287   3.663   6.156  1.5150  1.4086  0.6108
  398TIP3   OH222608   5.814   5.612  13.433  0.1656  0.1445  0.0148
  398TIP3    H122609   5.750   5.649  13.494 -0.6471  0.7619 -1.1896
  398TIP3    H222610   5.774   5.531  13.402 -1.7701  2.3257 -3.5382
  399TIP3   OH222611   2.720   5.596  11.602 -0.2960  0.0079 -0.0156
  399TIP3    H122612   2.671   5.603  11.684  0.8200  1.1087  0.5758
  399TIP3    H222613   2.804   5.557  11.628 -0.2683 -0.4491 -0.7779
  400TIP3   OH222614   0.072   2.913   5.094  0.1160  0.2828  0.0886
  400TIP3    H122615   0.150   2.857   5.089  0.3731  0.5368  1.2044
  400TIP3    H222616   0.092   2.976   5.163 -1.1785  0.2042  0.5404
  401TIP3   OH222617   2.274   0.013   2.798  0.2636  0.3527 -0.1223
  401TIP3    H122618   2.269  -0.076   2.762  0.6765  0.5703 -0.7364
  401TIP3    H222619   2.218   0.011   2.875  0.6301 -0.5678  0.1243
  402TIP3   OH222620   2.518   2.695  13.853  0.3241 -0.5712  0.0938
  402TIP3    H122621   2.515   2.714  13.760 -0.0836 -0.1167  0.2012
  402TIP3    H222622   2.506   2.600  13.859  1.9690 -0.8343 -0.4118
  403TIP3   OH222623   1.292   4.891  14.430 -0.0253  0.0915  0.6858
  403TIP3    H122624   1.321   4.965  14.376 -0.7011  0.9709  1.5104
  403TIP3    H222625   1.280   4.929  14.517  1.0722 -1.3214  1.4715
  404TIP3   OH222626   2.306   2.929   5.656 -0.2403  0.1371 -0.2146
  404TIP3    H122627   2.255   2.861   5.612 -0.9632 -0.3576  1.3541
  404TIP3    H222628   2.283   2.920   5.749  0.6935  1.6342  0.1787
  405TIP3   OH222629   2.096   1.977  11.021  0.0657 -0.0512 -0.5457
  405TIP3    H122630   2.085   1.885  10.998 -1.0585  0.0568 -0.4501
  405TIP3    H222631   2.041   1.989  11.098 -2.0089  1.3666 -2.1990
  406TIP3   OH222632   5.690   1.369  12.800 -0.4539 -0.3006 -0.3749
  406TIP3    H122633   5.732   1.326  12.874 -1.9489 -0.6076  0.3277
  406TIP3    H222634   5.638   1.439  12.839 -0.9324 -0.2139 -1.1586
  407TIP3   OH222635   5.684   5.080  11.947 -0.4746  0.2724 -0.2224
  407TIP3    H122636   5.659   5.173  11.948 -0.9865  0.1897 -2.3141
  407TIP3    H222637   5.765   5.078  11.896 -0.8943 -0.5171 -0.8731
  408TIP3   OH222638   5.720   6.321   3.995 -0.0113 -0.0880 -0.5387
  408TIP3    H122639   5.629   6.301   4.016  0.2812 -1.5763 -0.5836
  408TIP3    H222640   5.717   6.408   3.955 -1.2789  0.3065  0.3895
  409TIP3   OH222641   1.672   6.487  13.765 -0.0935  0.8514 -0.4978
  409TIP3    H122642   1.640   6.402  13.734 -1.2084  1.6777 -1.6530
  409TIP3    H222643   1.611   6.511  13.835  0.0505  0.8307 -0.3663
  410TIP3   OH222644   1.079   4.647   3.388  0.1256  0.1859 -0.3065
  410TIP3    H122645   1.112   4.581   3.449 -0.2819 -0.3607 -0.6812
  410TIP3    H222646   1.127   4.631   3.307 -1.2020 -0.7487 -0.9213
  411TIP3   OH222647   6.238   1.134  11.877 -0.1213  0.0229 -1.2823
  411TIP3    H122648   6.256   1.042  11.893 -1.8227  0.0746  1.2514
  411TIP3    H222649   6.285   1.154  11.796  4.5442 -1.7067  0.8282
  412TIP3   OH222650   0.543   6.430  16.807 -0.0028 -0.0650 -0.0764
  412TIP3    H122651   0.456   6.459  16.835  0.5350  0.2137  1.3956
  412TIP3    H222652   0.552   6.462  16.718 -0.2837  2.4656  0.7661
  413TIP3   OH222653   4.640   2.153   0.801 -0.1797  0.2761  0.3692
  413TIP3    H122654   4.545   2.148   0.789 -0.2458 -1.3827  1.4480
  413TIP3    H222655   4.675   2.138   0.713 -0.8906 -0.6774  0.2361
  414TIP3   OH222656   3.483   4.489  14.865  0.2328  0.0016  0.0603
  414TIP3    H122657   3.409   4.537  14.827 -0.5219 -2.1978 -1.3723
  414TIP3    H222658   3.559   4.546  14.852 -0.7334  1.0453 -1.0569
  415TIP3   OH222659   0.612   4.078  14.799  0.4121 -0.1887  0.0462
  415TIP3    H122660   0.586   4.143  14.865 -0.2920  0.3509 -0.7434
  415TIP3    H222661   0.557   4.002  14.818 -0.5288  0.3344 -0.5523
  416TIP3   OH222662   0.441   5.434  14.317 -0.1951  0.0593  0.4199
  416TIP3    H122663   0.459   5.375  14.244 -2.0898 -0.7611  0.6046
  416TIP3    H222664   0.496   5.511  14.299 -0.9808  0.0864 -2.1241
  417TIP3   OH222665   2.337   3.373   3.992 -0.1808  0.5724 -0.0137
  417TIP3    H122666   2.335   3.278   4.006 -2.1330  0.5013 -0.5894
  417TIP3    H222667   2.290   3.409   4.067 -0.9734  0.9477 -0.6802
  418TIP3   OH222668   5.120   5.994   1.936  0.0172  0.0784 -0.3042
  418TIP3    H122669   5.096   5.902   1.945  0.1314  0.0567 -0.2098
  418TIP3    H222670   5.134   6.024   2.026  1.7374 -0.2957 -0.4248
  419TIP3   OH222671   3.774   0.366  12.073 -0.3419 -0.4990 -0.8920
  419TIP3    H122672   3.813   0.378  11.987 -0.4747  0.1799 -0.8589
  419TIP3    H222673   3.685   0.335  12.055 -0.5119  0.0587 -1.0044
  420TIP3   OH222674   4.616   1.897   1.477 -0.3338 -0.3576  0.0635
  420TIP3    H122675   4.706   1.883   1.508 -0.5627  0.6535  1.2403
  420TIP3    H222676   4.562   1.849   1.540 -0.5504 -2.2355 -1.5131
  421TIP3   OH222677   4.755   4.483   5.778  0.2904 -0.4253  0.4851
  421TIP3    H122678   4.702   4.496   5.700  0.6315 -0.6799  0.2077
  421TIP3    H222679   4.814   4.558   5.780  1.1962 -1.1098 -0.2506
  422TIP3   OH222680   0.325   4.180  13.031 -0.4943  0.2735  0.2003
  422TIP3    H122681   0.262   4.117  12.994  2.4600 -2.5488 -0.2339
  422TIP3    H222682   0.356   4.230  12.955  1.6550 -1.9586 -0.4650
  423TIP3   OH222683   5.898   1.245  14.374  0.2898 -0.1406 -0.0569
  423TIP3    H122684   5.890   1.203  14.288  0.2041 -0.4386  0.0965
  423TIP3    H222685   5.897   1.173  14.436 -0.2567  0.1189  0.2329
  424TIP3   OH222686   1.585   4.631  15.740 -1.1188  0.2203  0.3888
  424TIP3    H122687   1.551   4.718  15.759  0.0964  0.6370  0.7187
  424TIP3    H222688   1.679   4.645  15.725 -1.0311 -0.9370 -0.2063
  425TIP3   OH222689   6.371   6.442   4.863  0.1467 -0.5874 -0.0682
  425TIP3    H122690   6.342   6.405   4.946 -1.1936 -0.4691 -0.4643
  425TIP3    H222691   6.343   6.533   4.865  0.1721 -0.5625 -0.6012
  426TIP3   OH222692   3.805   4.970   0.002 -0.2919 -0.0625 -0.5264
  426TIP3    H122693   3.886   4.923   0.020  0.8254  1.4629 -1.5478
  426TIP3    H222694   3.786   5.017   0.083  0.4209  0.4292 -0.6436
  427TIP3   OH222695   2.308   4.246  13.619  0.2188  0.6827 -0.3176
  427TIP3    H122696   2.351   4.319  13.663  1.3891  0.9123 -1.7807
  427TIP3    H222697   2.239   4.218  13.679  1.5886  1.1509  1.5270
  428TIP3   OH222698   2.191   3.304  11.243  0.1432 -0.6920  0.2809
  428TIP3    H122699   2.228   3.272  11.161 -1.8057  2.0147 -1.7351
  428TIP3    H222700   2.104   3.266  11.247 -0.2578  0.2190  0.4162
  429TIP3   OH222701   0.522   6.648  12.272 -0.1923 -0.3770 -0.2013
  429TIP3    H122702   0.492   6.737  12.258  1.7506  0.2037 -0.7735
  429TIP3    H222703   0.453   6.593  12.235 -1.2380  0.8820 -0.1381
  430TIP3   OH222704   6.023   0.174   6.053  0.1784 -0.0122 -0.6439
  430TIP3    H122705   5.982   0.255   6.084  0.1749 -0.4227  0.4526
  430TIP3    H222706   6.083   0.202   5.985  0.6077  0.9984  0.1354
  431TIP3   OH222707   3.883   1.193  16.759  0.2186 -0.4019  0.3693
  431TIP3    H122708   3.804   1.170  16.808 -2.1150  1.3683 -2.4290
  431TIP3    H222709   3.885   1.131  16.686  1.0834 -0.0317  0.0726
  432TIP3   OH222710   6.493   2.869  14.267 -0.3016 -0.0869  0.2437
  432TIP3    H122711   6.542   2.872  14.350  0.6724 -0.0167 -0.3246
  432TIP3    H222712   6.509   2.955  14.227 -2.1701  0.5161  0.7696
  433TIP3   OH222713   0.050   0.702  14.824 -0.0123  0.0383 -0.6077
  433TIP3    H122714   0.123   0.665  14.775  0.4521  1.9674 -1.4119
  433TIP3    H222715   0.088   0.775  14.873 -0.6227 -1.3385  2.0425
  434TIP3   OH222716   2.792   2.017  12.503 -0.2557  0.5172  0.2358
  434TIP3    H122717   2.752   2.024  12.416 -0.7632 -0.4360  0.3823
  434TIP3    H222718   2.720   1.991  12.560  0.4703 -0.7483  0.5930
  435TIP3   OH222719   6.718   5.404  13.092 -0.4314 -0.0614  0.4967
  435TIP3    H122720   6.712   5.472  13.159  2.1389 -0.3263  1.0455
  435TIP3    H222721   6.781   5.341  13.127  0.0151 -0.8452 -1.6182
  436TIP3   OH222722   4.555   3.244  13.465  0.3631  0.3248  0.1281
  436TIP3    H122723   4.541   3.165  13.414 -0.3727  0.6789 -0.2238
  436TIP3    H222724   4.622   3.220  13.529 -0.4998 -0.8472  0.6056
  437TIP3   OH222725   1.768   1.757   3.433 -0.2780  0.1967 -0.2663
  437TIP3    H122726   1.778   1.812   3.511 -1.0041  0.3287 -0.2666
  437TIP3    H222727   1.793   1.815   3.360 -2.5245  1.0335 -0.4182
  438TIP3   OH222728   2.599   3.139  14.175  0.9392  0.4830  0.8028
  438TIP3    H122729   2.571   3.229  14.197  1.0769  0.3968  1.3308
  438TIP3    H222730   2.687   3.149  14.139  1.7873  0.3600  2.7665
  439TIP3   OH222731   5.916   4.740   3.385 -0.1326  0.2893  0.4115
  439TIP3    H122732   5.887   4.831   3.375  0.0629  0.3371  0.2781
  439TIP3    H222733   5.919   4.705   3.296 -0.9565 -0.0828  0.5315
  440TIP3   OH222734   2.781   3.931   1.026 -0.0937  0.0189 -0.1590
  440TIP3    H122735   2.862   3.975   1.051 -0.7501  0.7899  0.6575
  440TIP3    H222736   2.807   3.840   1.011  0.9082  0.2413  0.1757
  441TIP3   OH222737   1.206   0.905   2.296 -0.2046  0.4146 -0.1841
  441TIP3    H122738   1.245   0.823   2.265 -1.4324 -0.7218  1.1616
  441TIP3    H222739   1.139   0.926   2.231  0.9424  1.0325 -1.1831
  442TIP3   OH222740   0.506   4.733  13.545  0.1285 -0.6879 -0.5483
  442TIP3    H122741   0.414   4.743  13.520  0.1574 -1.8878 -1.1687
  442TIP3    H222742   0.530   4.645  13.514  0.8900 -1.2171  1.5048
  443TIP3   OH222743   0.002   4.864   5.947 -0.3810 -0.3758  0.2364
  443TIP3    H122744  -0.009   4.792   6.009  0.4416 -1.2263 -0.6013
  443TIP3    H222745   0.014   4.941   6.003 -2.6888 -0.6191  1.1623
  444TIP3   OH222746   1.752   6.781   3.557 -0.1733 -0.2203  0.3378
  444TIP3    H122747   1.727   6.691   3.576 -1.1841  0.1456  0.8184
  444TIP3    H222748   1.754   6.786   3.461 -1.1929 -0.4815  0.2950
  445TIP3   OH222749   1.210   3.597   6.675  0.2437  0.5479  0.0433
  445TIP3    H122750   1.211   3.684   6.635 -0.0421  0.1020 -0.9437
  445TIP3    H222751   1.298   3.563   6.659  0.7256  1.1067  1.4466
  446TIP3   OH222752   5.224   4.990   4.317 -0.0713 -0.5227 -0.3819
  446TIP3    H122753   5.169   4.971   4.241 -0.0826 -0.3127 -0.4284
  446TIP3    H222754   5.218   4.912   4.371  0.0351 -0.7200 -0.6557
  447TIP3   OH222755   1.717   3.314   5.681 -0.0052 -0.0255  0.0599
  447TIP3    H122756   1.763   3.397   5.686  0.5000 -0.3294  0.5217
  447TIP3    H222757   1.783   3.251   5.652  0.0057 -0.5639  1.2422
  448TIP3   OH222758   4.188   1.496  14.748  0.7628  0.2081 -0.1205
  448TIP3    H122759   4.247   1.566  14.719 -0.1660  0.9534 -0.2108
  448TIP3    H222760   4.105   1.539  14.765  0.9409 -0.3856  2.5429
  449TIP3   OH222761   0.787   6.145   0.329 -0.3923  0.2881 -0.2774
  449TIP3    H122762   0.729   6.184   0.263  1.6389 -0.6648 -2.7288
  449TIP3    H222763   0.834   6.219   0.367 -2.4458  0.9693  1.0506
  450TIP3   OH222764   6.115   5.962  15.626  0.1393  0.0930 -0.0806
  450TIP3    H122765   6.194   5.999  15.588  0.2686 -0.3925 -0.2937
  450TIP3    H222766   6.124   5.867  15.612 -0.1106 -0.0343  0.5823
  451TIP3   OH222767   5.373   4.320  14.276  0.2457  0.3122  0.0963
  451TIP3    H122768   5.400   4.232  14.252  0.4082  0.3789  0.0379
  451TIP3    H222769   5.407   4.376  14.206 -1.2149  0.2270 -0.6965
  452TIP3   OH222770   5.085   2.394   4.037 -0.1374  0.6344 -0.4431
  452TIP3    H122771   5.018   2.461   4.024 -2.6805 -1.5037  1.0232
  452TIP3    H222772   5.054   2.318   3.987  0.7047 -0.6986  0.9850
  453TIP3   OH222773   4.316   1.401  15.006 -0.0831 -0.1364  0.1787
  453TIP3    H122774   4.266   1.475  14.970 -0.8386 -0.5191  0.4384
  453TIP3    H222775   4.321   1.420  15.099  2.5284  1.2435 -0.2107
  454TIP3   OH222776   0.055   0.394   2.119 -0.4725 -0.6987  0.5878
  454TIP3    H122777   0.061   0.332   2.191 -2.4482 -0.3860  1.0472
  454TIP3    H222778  -0.038   0.394   2.094  0.1723 -0.7770 -1.9321
  455TIP3   OH222779   1.144   0.908  14.164 -0.3508  0.7401 -0.5457
  455TIP3    H122780   1.229   0.948  14.143 -0.2175  1.0142  0.4735
  455TIP3    H222781   1.129   0.844  14.095  0.3940  1.1421 -1.0769
  456TIP3   OH222782   6.099   3.586   1.258  1.1201  0.1539 -0.3632
  456TIP3    H122783   6.074   3.678   1.246  0.7336  0.3106  1.4566
  456TIP3    H222784   6.177   3.575   1.204 -0.1447  0.9476 -2.3704
  457TIP3   OH222785   6.165   3.944  12.717  0.1895 -0.1426 -0.0297
  457TIP3    H122786   6.114   3.868  12.688 -0.3165  0.3993 -0.5636
  457TIP3    H222787   6.205   3.916  12.799 -0.3839 -0.8224  0.0196
  458TIP3   OH222788   1.601   3.346   3.434  0.4002  0.0299  0.3905
  458TIP3    H122789   1.635   3.403   3.502 -0.8782  0.1763  0.9262
  458TIP3    H222790   1.590   3.261   3.476  0.4571 -0.1168  0.1162
  459TIP3   OH222791   0.749   3.563  10.637  0.1397  0.3752  0.2785
  459TIP3    H122792   0.712   3.631  10.693 -0.3187  1.1947 -1.0141
  459TIP3    H222793   0.841   3.557  10.664  0.4928  2.3885 -0.4846
  460TIP3   OH222794   0.151   6.096   1.407 -0.4440  0.0533 -0.2258
  460TIP3    H122795   0.091   6.026   1.382  1.5664 -1.5129 -0.7384
  460TIP3    H222796   0.124   6.171   1.354 -2.3214 -0.4425 -0.0060
  461TIP3   OH222797   5.879   6.302  12.145 -0.1283 -0.0293  0.1058
  461TIP3    H122798   5.817   6.299  12.218  0.2417 -0.7881  0.3996
  461TIP3    H222799   5.964   6.315  12.187  0.1918 -1.3020 -0.1080
  462TIP3   OH222800   0.044   0.479   0.184 -0.5639  0.0481  0.0938
  462TIP3    H122801  -0.030   0.539   0.189  0.2772  1.1828 -0.9043
  462TIP3    H222802   0.006   0.396   0.155 -1.4711  0.5644 -0.2188
  463TIP3   OH222803   2.533   4.846   4.867  0.1208 -0.3044  0.1746
  463TIP3    H122804   2.519   4.754   4.886  1.3949 -0.5019  0.2145
  463TIP3    H222805   2.554   4.885   4.952  1.3624 -0.3363 -0.0974
  464TIP3   OH222806   3.923   3.987   4.981 -0.0670 -0.0279 -0.1184
  464TIP3    H122807   3.982   3.968   5.054 -2.1467  0.9372  1.8635
  464TIP3    H222808   3.927   4.082   4.971 -0.9038 -0.0143 -0.3081
  465TIP3   OH222809   2.946   4.851   2.311  0.0095 -0.1895 -0.2681
  465TIP3    H122810   2.862   4.827   2.272  0.2018 -0.2090 -0.6623
  465TIP3    H222811   2.922   4.890   2.396 -0.3421 -1.1170  0.0664
  466TIP3   OH222812   0.499   2.256  13.799 -0.5558  0.1721 -0.3641
  466TIP3    H122813   0.549   2.190  13.847  0.8913  0.1483 -1.8527
  466TIP3    H222814   0.555   2.279  13.725 -2.2282  1.0617 -1.3838
  467TIP3   OH222815   6.379   0.977  11.502 -0.2751 -0.8263  0.1338
  467TIP3    H122816   6.400   1.032  11.427  0.8679  0.8846  1.6502
  467TIP3    H222817   6.284   0.968  11.499 -0.3199 -0.0857 -1.0585
  468TIP3   OH222818   2.708   3.417   3.655 -0.0443  0.3192  0.2002
  468TIP3    H122819   2.618   3.409   3.687 -1.0504  1.6945 -2.2035
  468TIP3    H222820   2.744   3.491   3.705 -1.0009  1.2376 -0.4436
  469TIP3   OH222821   3.058   4.251   5.060 -0.5946  0.3772 -0.2931
  469TIP3    H122822   3.064   4.172   5.006  0.3193  0.2578 -0.0296
  469TIP3    H222823   3.103   4.228   5.142 -1.2490  0.8269  0.1965
  470TIP3   OH222824   1.712   1.927  11.966  0.2738  0.9090 -0.0047
  470TIP3    H122825   1.738   1.947  11.876  0.3591  0.6829 -0.0295
  470TIP3    H222826   1.794   1.902  12.010  0.2065  0.8637  0.0941
  471TIP3   OH222827   4.099   2.222   2.665 -0.3120  0.5165 -0.5556
  471TIP3    H122828   4.181   2.192   2.625 -1.2392  0.3681 -2.4038
  471TIP3    H222829   4.096   2.176   2.749  1.5726  0.6499 -0.3952
  472TIP3   OH222830   2.153   0.378  13.093  0.1296  0.4080  0.6216
  472TIP3    H122831   2.100   0.387  13.014  0.8715 -1.5763 -0.1253
  472TIP3    H222832   2.092   0.347  13.160 -0.5180  2.1762  0.8865
  473TIP3   OH222833   0.459   2.781   1.269  0.2204 -0.1485  0.3939
  473TIP3    H122834   0.516   2.766   1.194 -0.6677  0.9553 -0.5122
  473TIP3    H222835   0.419   2.696   1.287 -1.7786  0.1929 -2.2175
  474TIP3   OH222836   4.997   5.516  14.708  0.0963 -0.8226  0.0828
  474TIP3    H122837   5.085   5.546  14.731  0.1511 -1.4002  0.6323
  474TIP3    H222838   4.985   5.544  14.617  0.1890  0.7689  0.5487
  475TIP3   OH222839   6.346   1.274   4.494 -0.2203 -0.1631 -0.0299
  475TIP3    H122840   6.316   1.355   4.453  1.1993  0.0089 -0.7479
  475TIP3    H222841   6.398   1.230   4.427 -1.5635 -2.0194  0.1231
  476TIP3   OH222842   6.056   3.750  12.287 -0.1667  0.3287  0.0916
  476TIP3    H122843   6.108   3.714  12.215  0.8574  0.6427  0.6751
  476TIP3    H222844   5.980   3.790  12.243  0.8133  1.1512 -0.8857
  477TIP3   OH222845   4.512   0.101  15.408 -0.1699 -0.4595 -0.1244
  477TIP3    H122846   4.518   0.152  15.488  0.5980 -0.6354 -0.0642
  477TIP3    H222847   4.487   0.164  15.340  2.5825  0.3953 -0.4221
  478TIP3   OH222848   1.669   0.747  11.491  0.4404 -0.0932 -0.2468
  478TIP3    H122849   1.699   0.809  11.558  0.1027 -1.7126  1.4354
  478TIP3    H222850   1.738   0.747  11.425  0.4325  2.0854 -0.2897
  479TIP3   OH222851   4.034   0.156  11.888 -0.1879 -0.1388 -0.5369
  479TIP3    H122852   4.106   0.096  11.902 -0.0199  0.4951  1.4305
  479TIP3    H222853   4.038   0.217  11.962 -2.2198  0.4137 -0.8455
  480TIP3   OH222854   2.825   3.050   5.326 -0.4152  0.0809 -0.4115
  480TIP3    H122855   2.889   3.119   5.348  0.1728 -1.3336  2.6345
  480TIP3    H222856   2.844   2.980   5.389 -2.3531 -2.0251 -2.1162
  481TIP3   OH222857   4.023   6.235  17.027  0.5485  0.1150  0.1391
  481TIP3    H122858   4.112   6.202  17.042 -0.5010 -2.3293  1.2107
  481TIP3    H222859   4.008   6.222  16.933 -0.1010 -3.2749  0.6480
  482TIP3   OH222860   6.399   1.128  17.101  0.1491 -0.7692  0.0583
  482TIP3    H122861   6.383   1.128  17.007 -0.9197  1.3080  0.1989
  482TIP3    H222862   6.480   1.177  17.112 -0.6302  0.4960  0.3165
  483TIP3   OH222863   5.339   2.244  15.515  0.0742 -0.0539  0.2906
  483TIP3    H122864   5.315   2.302  15.443 -0.5796 -0.9127 -0.2016
  483TIP3    H222865   5.434   2.255  15.524 -0.3074  2.5656  1.5270
  484TIP3   OH222866   4.039   6.393  14.820  0.2216  0.7583 -0.5055
  484TIP3    H122867   4.003   6.307  14.843 -0.7165  1.6270  1.3830
  484TIP3    H222868   4.012   6.407  14.730 -1.6654  0.0690 -0.0730
  485TIP3   OH222869   5.839   0.103  10.721  0.1767 -0.3769 -0.0232
  485TIP3    H122870   5.766   0.119  10.782  0.2207 -1.3813  0.3009
  485TIP3    H222871   5.846   0.184  10.671 -1.2057 -0.2832 -0.1007
  486TIP3   OH222872   5.216   0.850   4.817  0.1710 -0.2416 -0.3265
  486TIP3    H122873   5.133   0.897   4.824 -0.0620 -0.8087  0.8638
  486TIP3    H222874   5.266   0.899   4.752 -1.2438 -0.1215 -1.3581
  487TIP3   OH222875   2.111   5.341   3.880 -0.0595 -0.1597 -0.3956
  487TIP3    H122876   2.155   5.359   3.963 -0.4142 -1.2904  0.0456
  487TIP3    H222877   2.031   5.393   3.883  0.3374  0.4555 -0.3994
  488TIP3   OH222878   2.538   6.433  13.589 -0.4520  0.5467  0.0814
  488TIP3    H122879   2.619   6.429  13.639 -0.1536  1.7006 -0.2971
  488TIP3    H222880   2.479   6.485  13.644 -2.0954 -3.0834  1.9334
  489TIP3   OH222881   0.458   3.046  15.188  0.2745 -0.3744 -0.2000
  489TIP3    H122882   0.466   3.141  15.175  0.3396  0.1882  3.4582
  489TIP3    H222883   0.366   3.033  15.208  0.2240 -1.1516 -0.9188
  490TIP3   OH222884   0.511   6.274   3.284 -0.5363  0.7658 -0.1979
  490TIP3    H122885   0.543   6.214   3.351 -0.3029  0.9851 -0.1116
  490TIP3    H222886   0.462   6.219   3.223  1.5446  0.1465 -1.3172
  491TIP3   OH222887   2.940   4.770  11.806  0.8394 -0.0686 -0.7844
  491TIP3    H122888   2.969   4.801  11.721  2.4860  1.1371  0.1891
  491TIP3    H222889   2.980   4.831  11.869 -1.7374  0.1187  0.7555
  492TIP3   OH222890   0.650   5.810   4.814 -0.1020 -0.0472 -0.3546
  492TIP3    H122891   0.734   5.809   4.860  0.7906  1.7363 -1.8461
  492TIP3    H222892   0.590   5.852   4.875  0.1678 -1.0235  0.5977
  493TIP3   OH222893   5.182   5.238  14.943  0.1778  0.1945 -0.0665
  493TIP3    H122894   5.234   5.193  14.876 -0.4577 -0.5129 -0.1000
  493TIP3    H222895   5.199   5.189  15.024 -1.9699 -1.3004 -0.4735
  494TIP3   OH222896   4.564   2.834  15.073  0.2277  0.3459  0.7379
  494TIP3    H122897   4.551   2.740  15.085 -0.0449  0.5519  2.1610
  494TIP3    H222898   4.648   2.841  15.028 -0.1317 -0.6074 -0.0990
  495TIP3   OH222899   3.319   4.048  17.096 -0.3116  0.0823  0.2152
  495TIP3    H122900   3.278   3.997  17.026 -0.6236 -0.3249  0.6906
  495TIP3    H222901   3.258   4.120  17.114 -1.4659 -1.2605  1.8247
  496TIP3   OH222902   5.291   4.193   3.068  0.3412 -0.3168 -0.4241
  496TIP3    H122903   5.223   4.259   3.058 -0.4826 -1.4314 -2.5798
  496TIP3    H222904   5.349   4.228   3.136 -1.3846  1.4732  0.1767
  497TIP3   OH222905   0.788   0.072   0.139 -0.4136  0.2391 -0.1567
  497TIP3    H122906   0.881   0.070   0.117  0.0306 -0.8020  1.7306
  497TIP3    H222907   0.744   0.037   0.061  0.6759  1.6642 -1.4321
  498TIP3   OH222908   2.801   4.540  14.159  0.2363 -0.4070  0.8290
  498TIP3    H122909   2.863   4.475  14.191 -0.9046 -1.8404  0.1668
  498TIP3    H222910   2.748   4.493  14.094 -0.1262  1.3657 -0.1957
  499TIP3   OH222911   5.525   0.392  11.111  0.4629  0.0255  0.1957
  499TIP3    H122912   5.491   0.328  11.048  1.5837 -0.5099  0.1185
  499TIP3    H222913   5.452   0.409  11.170  0.5772 -2.4038  1.0772
  500TIP3   OH222914   3.570   1.115   4.023  0.1562 -0.0853 -0.4752
  500TIP3    H122915   3.625   1.038   4.038  0.2028 -0.0745 -0.5910
  500TIP3    H222916   3.564   1.122   3.928 -2.3103 -1.6959 -0.4658
  501TIP3   OH222917   2.939   0.648   2.376 -0.2809 -0.0625  0.3024
  501TIP3    H122918   2.959   0.563   2.414 -0.5414 -0.3815 -0.2779
  501TIP3    H222919   2.939   0.708   2.451  1.5762 -0.2755  0.4928
  502TIP3   OH222920   6.078   4.503   3.298  0.6266  0.8068  0.4474
  502TIP3    H122921   6.037   4.465   3.220 -2.2870  1.4076  1.6125
  502TIP3    H222922   6.107   4.428   3.349  0.6007  0.3541 -0.2004
  503TIP3   OH222923   0.301   0.883   3.804 -0.1141 -0.3327 -0.3051
  503TIP3    H122924   0.254   0.835   3.736 -1.4521  2.5922 -1.5150
  503TIP3    H222925   0.245   0.876   3.881 -1.6383  1.4728 -1.2105
  504TIP3   OH222926   5.676   4.775  12.580 -0.8697 -0.4275 -0.3633
  504TIP3    H122927   5.634   4.850  12.537  2.1698  1.5476 -0.0891
  504TIP3    H222928   5.759   4.765  12.533 -0.5660 -2.6697  0.6073
  505TIP3   OH222929   3.287   1.565  13.660 -0.2994  0.0400  0.3546
  505TIP3    H122930   3.292   1.634  13.727 -2.2882  0.2539  0.3048
  505TIP3    H222931   3.222   1.504  13.694 -0.2507 -0.6091 -0.7225
  506TIP3   OH222932   3.180   4.027  14.805  0.0190 -0.0922 -0.3116
  506TIP3    H122933   3.248   3.992  14.747 -1.0115  0.4745 -1.8894
  506TIP3    H222934   3.224   4.036  14.890  1.3534 -1.6032 -0.8068
  507TIP3   OH222935   0.401   2.614   3.376 -0.0453  0.4496 -0.3147
  507TIP3    H122936   0.484   2.577   3.345 -0.2577  0.3016 -0.7081
  507TIP3    H222937   0.362   2.654   3.298 -0.5774  0.0947 -0.2335
  508TIP3   OH222938   4.354   2.163   5.517  0.5400 -0.4074 -0.5419
  508TIP3    H122939   4.338   2.069   5.524  0.1315 -0.4863 -2.3185
  508TIP3    H222940   4.408   2.184   5.594 -0.1529 -1.8995  0.3790
  509TIP3   OH222941   1.183   4.925   1.675 -0.6310 -0.1929 -0.1054
  509TIP3    H122942   1.203   4.840   1.712  1.1333  0.7547  1.1676
  509TIP3    H222943   1.175   4.909   1.581  1.0981 -1.4997 -0.0377
  510TIP3   OH222944   6.468   3.218   1.113  0.5526  0.2992 -0.1724
  510TIP3    H122945   6.390   3.267   1.090 -1.0681 -2.2782 -0.3355
  510TIP3    H222946   6.465   3.210   1.208 -0.4797 -1.5036 -0.3334
  511TIP3   OH222947   2.006   3.737  16.594 -0.0576 -0.1151 -0.3993
  511TIP3    H122948   2.095   3.728  16.627 -0.3585 -0.5804  0.3000
  511TIP3    H222949   1.951   3.723  16.670 -0.7723 -1.2288 -1.1070
  512TIP3   OH222950   3.215   1.107  14.788 -0.0852 -0.0925  0.2440
  512TIP3    H122951   3.233   1.041  14.721  0.5999 -1.4970  1.7748
  512TIP3    H222952   3.128   1.141  14.765 -0.6456 -1.8290 -0.3178
  513TIP3   OH222953   3.303   3.235   0.905  0.5096 -0.5964 -0.2613
  513TIP3    H122954   3.285   3.326   0.881 -0.2526 -1.1949 -2.0502
  513TIP3    H222955   3.395   3.235   0.934  0.6058  0.6792 -0.5645
  514TIP3   OH222956   2.522   6.768  14.475 -0.5403 -0.4315 -0.2440
  514TIP3    H122957   2.511   6.731  14.388  2.3736 -0.3849 -0.6780
  514TIP3    H222958   2.575   6.846  14.462  0.5235 -0.8073  1.6102
  515TIP3   OH222959   4.714   3.559  13.240  0.8728 -0.0967  0.4728
  515TIP3    H122960   4.701   3.474  13.198  1.9626  0.3128 -0.7417
  515TIP3    H222961   4.775   3.540  13.312  1.7240 -0.2283 -0.2686
  516TIP3   OH222962   0.438   1.879   3.794 -0.5301 -0.0966 -0.4809
  516TIP3    H122963   0.388   1.878   3.875 -1.1147 -0.8753 -0.8390
  516TIP3    H222964   0.513   1.822   3.811  0.8933  1.9942  0.4442
  517TIP3   OH222965   3.890   3.025   4.926 -0.3156  0.3445 -0.6303
  517TIP3    H122966   3.892   3.108   4.878 -0.0556  1.0237  0.5503
  517TIP3    H222967   3.981   2.994   4.924 -0.6797 -0.7089 -2.4121
  518TIP3   OH222968   0.254   1.639   3.593 -0.0677 -0.1104 -0.2779
  518TIP3    H122969   0.202   1.711   3.558 -0.6091 -0.2153  0.3014
  518TIP3    H222970   0.335   1.641   3.543  0.1341  1.2256  0.1011
  519TIP3   OH222971   5.207   2.667   2.041  0.2626 -0.3916 -0.8081
  519TIP3    H122972   5.214   2.674   1.945 -0.2306 -0.9329 -0.8836
  519TIP3    H222973   5.189   2.575   2.057  0.4752 -0.3233 -0.1785
  520TIP3   OH222974   2.470   0.116  10.760 -0.2268  0.0538  0.0556
  520TIP3    H122975   2.377   0.127  10.743  0.1766  0.3839 -2.0560
  520TIP3    H222976   2.498   0.199  10.798 -0.6812  0.1271  0.2275
  521TIP3   OH222977   5.262   6.639  15.243  0.2953 -0.4029 -0.0405
  521TIP3    H122978   5.299   6.715  15.197  0.5042 -0.4790  0.0004
  521TIP3    H222979   5.187   6.613  15.190 -0.9559  1.0327  0.9780
  522TIP3   OH222980   5.617   0.978   3.396 -0.5707  0.4703  0.0850
  522TIP3    H122981   5.613   1.006   3.487 -0.1173  0.6994  0.0375
  522TIP3    H222982   5.706   0.944   3.385 -0.5418  0.6772 -0.3374
  523TIP3   OH222983   2.966   1.005   1.792  0.9450  0.5542 -0.2140
  523TIP3    H122984   3.012   1.068   1.737 -0.7672  0.4271 -1.8746
  523TIP3    H222985   2.988   0.920   1.755  0.4838  0.4051 -0.1486
  524TIP3   OH222986   2.270   5.627  13.760  0.8145  0.1592  0.3424
  524TIP3    H122987   2.291   5.632  13.667 -0.1640 -0.7428  0.0591
  524TIP3    H222988   2.238   5.537  13.773 -1.3061  0.9839  1.0615
  525TIP3   OH222989   1.565   5.016   2.771 -0.3590 -0.6430 -0.0710
  525TIP3    H122990   1.572   4.963   2.850  2.6409  1.0642  0.9032
  525TIP3    H222991   1.559   5.106   2.804  1.5133  0.1326 -1.7699
  526TIP3   OH222992   4.646   6.006   1.718 -0.1242  0.0212 -0.1261
  526TIP3    H122993   4.580   5.937   1.721  1.5059 -1.5320  0.9177
  526TIP3    H222994   4.722   5.965   1.678  0.3470  1.6915 -1.0035
  527TIP3   OH222995   1.373   6.697  11.419 -0.7845  0.5088 -0.2428
  527TIP3    H122996   1.425   6.672  11.343  1.3061  2.3074  0.5532
  527TIP3    H222997   1.323   6.618  11.441  1.3317 -1.1546 -1.2526
  528TIP3   OH222998   2.444   3.175   2.676  0.4552 -0.6567  0.3223
  528TIP3    H122999   2.426   3.159   2.769 -0.6103 -0.9746  0.0656
  528TIP3    H223000   2.414   3.265   2.661  1.1576 -0.3978  0.4073
  529TIP3   OH223001   4.824   0.639  17.225 -0.0577  0.0504  0.1138
  529TIP3    H123002   4.877   0.590  17.287  1.7253  1.7396 -0.0056
  529TIP3    H223003   4.773   0.700  17.279 -1.4047 -1.1175  0.1766
  530TIP3   OH223004   1.518   1.716   1.531 -0.2480  0.2609  0.6672
  530TIP3    H123005   1.600   1.667   1.525 -1.2891 -1.6817  1.4853
  530TIP3    H223006   1.538   1.803   1.497  2.1468 -0.1743  0.9013
  531TIP3   OH223007   5.221   5.102  15.545 -0.7948  0.0975 -0.3733
  531TIP3    H123008   5.192   5.168  15.482  1.0970  0.2774 -1.0881
  531TIP3    H223009   5.281   5.149  15.603 -0.7616 -0.6018  0.1596
  532TIP3   OH223010   0.208   6.435   2.600 -0.0548 -0.0997 -0.8540
  532TIP3    H123011   0.232   6.482   2.520  1.5236 -0.7416 -0.7835
  532TIP3    H223012   0.216   6.343   2.577  0.6748 -0.2847  0.1089
  533TIP3   OH223013   6.738   0.981   1.383  0.0148  0.1600  0.5207
  533TIP3    H123014   6.680   0.925   1.433  1.0319 -1.0386  0.3920
  533TIP3    H223015   6.706   0.975   1.293 -2.2365  2.8586  1.0731
  534TIP3   OH223016   1.021   0.834   3.191  0.9694 -0.6909  0.3308
  534TIP3    H123017   1.072   0.851   3.111  1.1162 -0.7508  0.4134
  534TIP3    H223018   1.031   0.914   3.243  0.2628 -0.3509 -0.0424
  535TIP3   OH223019   2.188   5.563  16.238  0.1415 -0.0719  0.6634
  535TIP3    H123020   2.206   5.500  16.169  0.8077  0.6572  0.1578
  535TIP3    H223021   2.115   5.616  16.204 -1.1633 -1.2696  1.5540
  536TIP3   OH223022   3.609   0.834   4.533  0.0993 -0.1048  0.3624
  536TIP3    H123023   3.526   0.823   4.487  0.5008  0.2103 -0.4432
  536TIP3    H223024   3.673   0.787   4.479  0.7247  0.9909  0.1287
  537TIP3   OH223025   2.359   1.195   5.206 -0.0869 -0.3572 -0.7169
  537TIP3    H123026   2.328   1.136   5.274 -1.7947  0.0862 -1.0930
  537TIP3    H223027   2.334   1.283   5.236 -2.4533 -0.2957 -2.7072
  538TIP3   OH223028   2.439   6.327   6.250 -0.0722 -0.5290  0.3575
  538TIP3    H123029   2.531   6.329   6.277  0.5008  0.7927 -1.5871
  538TIP3    H223030   2.409   6.417   6.261 -0.8159 -0.7208 -0.0705
  539TIP3   OH223031   2.737   4.641   1.844  0.6057  0.2516 -0.0836
  539TIP3    H123032   2.703   4.730   1.838  1.4961  0.4672 -2.5430
  539TIP3    H223033   2.674   4.587   1.796  2.4710  0.3287 -2.7601
  540TIP3   OH223034   2.936   0.423   4.599  0.2785 -0.0543 -0.5662
  540TIP3    H123035   2.948   0.451   4.508  0.2649 -0.9879 -0.8600
  540TIP3    H223036   2.871   0.484   4.634  0.5117  0.5095 -1.0860
  541TIP3   OH223037   5.785   5.623   2.631  0.1259 -0.1288 -0.2887
  541TIP3    H123038   5.838   5.577   2.565  1.5079  0.7438  0.1980
  541TIP3    H223039   5.821   5.712   2.633  0.5423 -0.3091  2.1004
  542TIP3   OH223040   5.783   3.248   2.432 -0.5480 -0.1054 -0.1668
  542TIP3    H123041   5.867   3.204   2.415  0.3142  1.1750  0.6989
  542TIP3    H223042   5.773   3.244   2.527 -0.4429  1.5707 -0.0676
  543TIP3   OH223043   2.924   2.493   2.046  0.5429 -0.1873 -0.4481
  543TIP3    H123044   2.962   2.417   2.090 -0.1785 -0.7202 -0.7449
  543TIP3    H223045   2.999   2.551   2.030  0.6451  0.5761  2.5615
  544TIP3   OH223046   4.558   2.420  12.168  0.4156 -0.2159  0.2583
  544TIP3    H123047   4.592   2.346  12.219 -0.8205 -0.9252  0.0684
  544TIP3    H223048   4.483   2.451  12.218  0.1430  0.0801 -0.3338
  545TIP3   OH223049   3.652   3.816  13.816 -0.5871 -0.2580 -0.3828
  545TIP3    H123050   3.695   3.746  13.865 -1.7326 -0.5216  0.2540
  545TIP3    H223051   3.652   3.891  13.875 -0.2240  0.0112 -0.7142
  546TIP3   OH223052   0.462   1.490   2.818 -0.4056 -0.0766 -0.2088
  546TIP3    H123053   0.451   1.402   2.854 -0.2987 -0.0872 -0.2014
  546TIP3    H223054   0.488   1.476   2.727  0.9498 -0.0684  0.1698
  547TIP3   OH223055   0.317   5.983  12.667 -0.6312 -1.7142 -0.2323
  547TIP3    H123056   0.312   6.060  12.724  1.5029 -0.3434 -1.8192
  547TIP3    H223057   0.243   5.992  12.607 -1.5396 -1.9698  0.8206
  548TIP3   OH223058   0.774   3.034   3.171  0.0955  0.5415 -0.5275
  548TIP3    H123059   0.770   2.939   3.169 -1.6620  0.5702  0.9902
  548TIP3    H223060   0.770   3.060   3.078  3.6307 -0.9231 -1.1645
  549TIP3   OH223061   1.097   1.664   5.553  0.1722 -0.1243 -0.1099
  549TIP3    H123062   1.125   1.598   5.490  1.5050  0.9448 -0.6818
  549TIP3    H223063   1.172   1.723   5.560 -0.8141  1.0498  0.7501
  550TIP3   OH223064   0.017   2.602   5.685 -0.0211  0.2023  0.1813
  550TIP3    H123065   0.100   2.586   5.641  0.9956  1.8299  1.4763
  550TIP3    H223066  -0.025   2.516   5.689  1.6232 -0.6403 -0.4008
  551TIP3   OH223067   0.108   0.618  11.126  0.2732  0.0706 -0.5930
  551TIP3    H123068   0.098   0.713  11.137  2.0050  0.0203  1.8818
  551TIP3    H223069   0.183   0.608  11.068  1.2083  0.1975  0.5956
  552TIP3   OH223070   2.451   6.075  16.980 -0.1484 -1.0313 -0.4205
  552TIP3    H123071   2.478   6.093  16.890  1.3302  2.5343  0.6376
  552TIP3    H223072   2.357   6.060  16.975 -0.3154  0.5346 -2.3934
  553TIP3   OH223073   0.484   5.649  16.923  0.3565 -0.4748 -0.2485
  553TIP3    H123074   0.391   5.625  16.918  0.1611  0.4589 -1.2946
  553TIP3    H223075   0.488   5.716  16.992  0.4894 -1.5375  0.7953
  554TIP3   OH223076   1.662   1.382  16.218 -0.0484 -0.4506 -0.7201
  554TIP3    H123077   1.623   1.303  16.180 -2.2288  0.4840 -0.5250
  554TIP3    H223078   1.648   1.372  16.312 -0.4772  0.2507 -0.7118
  555TIP3   OH223079   3.109   4.787   5.828 -0.6310 -0.1850  0.4826
  555TIP3    H123080   3.038   4.830   5.875  0.1523  0.7883  0.7876
  555TIP3    H223081   3.185   4.845   5.840  0.2390 -1.2525  0.2435
  556TIP3   OH223082   0.656   5.816   0.930  0.4974  0.6116  0.5501
  556TIP3    H123083   0.605   5.869   0.869 -0.6505 -1.4426 -0.3354
  556TIP3    H223084   0.741   5.806   0.887  0.5202  1.2400  0.4466
  557TIP3   OH223085   6.586   6.019   1.098 -0.2292 -0.1994  0.1647
  557TIP3    H123086   6.662   6.071   1.122  0.1059 -0.0885 -1.1159
  557TIP3    H223087   6.539   6.072   1.035 -0.8720 -0.6740  0.2319
  558TIP3   OH223088   5.626   5.874   2.867  0.8159 -0.2985 -0.3580
  558TIP3    H123089   5.670   5.794   2.896 -0.7367  0.1215  3.3091
  558TIP3    H223090   5.548   5.880   2.922 -1.0795  1.7782 -3.1438
  559TIP3   OH223091   0.230   6.713   0.577  0.0566 -0.3249 -0.7093
  559TIP3    H123092   0.227   6.763   0.496  0.1662  2.2429  0.8079
  559TIP3    H223093   0.310   6.660   0.570  0.3069  0.2142 -2.0563
  560TIP3   OH223094   3.664   0.219  14.909  0.3051 -0.2730  0.3032
  560TIP3    H123095   3.636   0.146  14.965  1.5085  1.5671  3.4005
  560TIP3    H223096   3.734   0.262  14.958  0.3092  2.3980 -1.9160
  561TIP3   OH223097   1.820   0.296  17.056 -0.2271  0.1811  0.1610
  561TIP3    H123098   1.801   0.206  17.027 -2.0279  0.7248 -0.3773
  561TIP3    H223099   1.768   0.351  16.997  0.9271  1.5892  0.4428
  562TIP3   OH223100   0.690   5.356   0.545 -0.5327 -0.3495 -0.1072
  562TIP3    H123101   0.689   5.319   0.456  1.8461 -1.7840  0.4146
  562TIP3    H223102   0.770   5.320   0.585 -1.9595 -0.3393  2.8760
  563TIP3   OH223103   3.559   2.605  10.728 -0.4487  0.4899 -0.5888
  563TIP3    H123104   3.565   2.687  10.778  0.2813  0.8196 -1.2093
  563TIP3    H223105   3.465   2.592  10.715 -0.7273 -0.1391  1.7279
  564TIP3   OH223106   5.025   5.541   3.928  0.4379 -0.4408  0.4655
  564TIP3    H123107   5.051   5.633   3.931  0.1047 -0.3405  0.3846
  564TIP3    H223108   5.107   5.493   3.917  0.5340 -0.0941 -0.4430
  565TIP3   OH223109   5.226   3.542  11.165  0.4312  0.6158  0.2652
  565TIP3    H123110   5.162   3.532  11.094 -0.3336 -0.2148  1.0735
  565TIP3    H223111   5.208   3.629  11.201 -2.0487 -0.6903  2.2596
  566TIP3   OH223112   0.035   3.758   2.186 -0.0394 -0.2161 -0.0739
  566TIP3    H123113   0.034   3.827   2.253 -0.1497  0.3917 -0.6919
  566TIP3    H223114   0.128   3.748   2.164 -0.1207  0.5608 -0.8111
  567TIP3   OH223115   5.995   5.256  14.431 -0.4993 -0.2373 -0.2175
  567TIP3    H123116   6.077   5.303  14.450 -0.8167  0.3938 -0.3951
  567TIP3    H223117   6.021   5.186  14.371 -0.2357  0.5133 -0.9787
  568TIP3   OH223118   3.166   6.133  13.379 -0.1085  0.1383 -0.0289
  568TIP3    H123119   3.093   6.160  13.434 -0.0734  2.1704 -0.9086
  568TIP3    H223120   3.237   6.114  13.440 -1.1377 -1.0989  0.7917
  569TIP3   OH223121   4.483   1.404  11.119  0.3566 -0.4639 -0.4356
  569TIP3    H123122   4.556   1.402  11.181  0.1476  0.1429 -0.1632
  569TIP3    H223123   4.469   1.312  11.096 -1.3953 -1.0271  2.6005
  570TIP3   OH223124   0.088   3.384   3.220  0.4761  0.5391 -0.3336
  570TIP3    H123125   0.167   3.438   3.220  1.8607 -1.4443  0.8533
  570TIP3    H223126   0.055   3.391   3.130  1.7767  1.7193 -0.7342
  571TIP3   OH223127   2.745   5.759  11.276 -0.2044  0.3214 -0.1758
  571TIP3    H123128   2.683   5.831  11.267  1.0455  1.4116 -0.2237
  571TIP3    H223129   2.764   5.733  11.186 -0.7405 -0.1563 -0.1560
  572TIP3   OH223130   6.057   3.177   1.928  0.3674  0.9116  0.8355
  572TIP3    H123131   6.003   3.098   1.936 -0.9724  1.9454  2.4283
  572TIP3    H223132   6.144   3.145   1.904 -1.0128 -0.7763 -2.2489
  573TIP3   OH223133   6.475   0.150  13.815  0.2041 -0.3170 -0.3971
  573TIP3    H123134   6.523   0.111  13.742  2.6490  0.0837  0.9585
  573TIP3    H223135   6.491   0.244  13.808  1.1845 -0.3492  1.1298
  574TIP3   OH223136   4.356   2.355  13.782 -0.1179  0.3096  0.2218
  574TIP3    H123137   4.321   2.421  13.722  0.1448  0.7992  0.6043
  574TIP3    H223138   4.358   2.275  13.730 -3.2232 -0.0988  0.6317
  575TIP3   OH223139   2.492   3.183   2.063  0.5265  0.5480  0.0285
  575TIP3    H123140   2.564   3.139   2.109 -0.4654 -0.4306  0.6690
  575TIP3    H223141   2.526   3.270   2.043  1.3752  0.6098  1.6449
  576TIP3   OH223142   0.742   0.139   6.445 -0.4055  0.0839  0.0901
  576TIP3    H123143   0.736   0.051   6.408  0.6118  0.2519 -0.4915
  576TIP3    H223144   0.708   0.130   6.534 -0.5125 -0.8477 -0.0377
  577TIP3   OH223145   2.160   6.646   4.402  0.5789 -0.5288  0.5279
  577TIP3    H123146   2.119   6.702   4.467  1.1307  0.2268  0.2240
  577TIP3    H223147   2.221   6.591   4.452  1.4640  0.4863  0.5696
  578TIP3   OH223148   0.467   0.674   2.712  0.0920  0.4314 -0.3146
  578TIP3    H123149   0.522   0.678   2.635 -0.0480 -1.5376 -0.5280
  578TIP3    H223150   0.527   0.657   2.785 -0.2152 -1.9471 -0.5780
  579TIP3   OH223151   5.143   5.825   4.819  0.3272  0.2973 -0.3944
  579TIP3    H123152   5.200   5.814   4.896 -0.0445 -0.0598 -0.1641
  579TIP3    H223153   5.075   5.759   4.831 -0.3898  1.0212 -0.4330
  580TIP3   OH223154   6.532   4.408   2.889  0.0313  0.5548 -0.5718
  580TIP3    H123155   6.614   4.382   2.846  0.5748  4.4451 -2.1098
  580TIP3    H223156   6.466   4.350   2.852  1.7470 -1.2060 -0.9340
  581TIP3   OH223157   6.588   5.646   4.850 -0.3537 -0.0030  0.5168
  581TIP3    H123158   6.564   5.738   4.861  0.8193  0.5136 -0.9535
  581TIP3    H223159   6.676   5.640   4.888  0.5339  0.0535 -1.4332
  582TIP3   OH223160   0.906   0.578   3.900 -0.2825  0.1381 -1.3314
  582TIP3    H123161   0.828   0.565   3.953  0.7964 -0.2928  0.2004
  582TIP3    H223162   0.905   0.671   3.878 -0.7516  0.3292 -0.5360
  583TIP3   OH223163   1.491   0.435   3.008 -0.2579  0.1438  0.6745
  583TIP3    H123164   1.453   0.356   3.044 -0.5147 -0.6029 -1.1795
  583TIP3    H223165   1.580   0.409   2.982  0.0968  0.8018  1.2011
  584TIP3   OH223166   1.356   2.616   1.568  0.0762 -0.2062  0.0685
  584TIP3    H123167   1.374   2.686   1.631  0.1018 -0.3787  0.2535
  584TIP3    H223168   1.292   2.654   1.508  2.5322  1.1603 -1.8260
  585TIP3   OH223169   3.453   1.517   1.324 -0.8345 -0.6323  0.4932
  585TIP3    H123170   3.429   1.533   1.416 -0.7183 -3.3676  1.0348
  585TIP3    H223171   3.374   1.479   1.285 -1.4785  2.1139 -1.0563
  586TIP3   OH223172   5.306   2.758  13.483  0.3750 -0.1265 -0.0271
  586TIP3    H123173   5.365   2.831  13.503  1.5404 -0.9135 -0.5220
  586TIP3    H223174   5.300   2.757  13.387 -0.0175 -0.3781 -0.0015
  587TIP3   OH223175   0.859   4.988   1.051  0.5671  1.1214  0.7015
  587TIP3    H123176   0.807   5.008   1.128 -1.5122 -1.3730 -0.0193
  587TIP3    H223177   0.802   5.009   0.977  0.0512 -2.8380 -0.0952
  588TIP3   OH223178   0.331   4.760   0.704 -0.1341 -0.0861  0.0673
  588TIP3    H123179   0.263   4.822   0.730  0.4257  0.0698  1.1878
  588TIP3    H223180   0.284   4.678   0.689 -0.6990  0.2765 -0.1319
  589TIP3   OH223181   2.919   0.600   5.716 -0.6581 -0.0774 -0.3708
  589TIP3    H123182   2.841   0.644   5.684  0.0258  1.1466 -0.3973
  589TIP3    H223183   2.958   0.559   5.639  0.2202  1.6634 -0.8693
  590TIP3   OH223184   2.544   0.726   2.520 -0.3075  0.2065 -0.1463
  590TIP3    H123185   2.516   0.670   2.448 -1.4706 -0.0046  0.4467
  590TIP3    H223186   2.626   0.688   2.550 -0.3997 -0.3796 -0.6264
  591TIP3   OH223187   4.194   1.990   2.099  0.1307  0.2778  0.0474
  591TIP3    H123188   4.231   1.921   2.044 -0.6703 -0.5939  0.5841
  591TIP3    H223189   4.140   1.943   2.163 -3.1411  1.6240 -1.6553
  592TIP3   OH223190   4.081   6.439   4.877  0.7190  0.1525  0.2379
  592TIP3    H123191   4.162   6.431   4.928 -0.3963 -1.9927  1.7206
  592TIP3    H223192   4.021   6.486   4.935  0.2040 -0.1855 -0.0215
  593TIP3   OH223193   2.700   2.883   0.236  0.4577 -0.5809 -0.1252
  593TIP3    H123194   2.621   2.927   0.205  1.0728  0.0602 -0.7957
  593TIP3    H223195   2.724   2.931   0.315  0.6252 -0.2777 -0.3612
  594TIP3   OH223196   0.193   2.377   4.864 -0.2269 -1.1658 -0.2789
  594TIP3    H123197   0.101   2.352   4.879  0.0550 -1.6639  0.6955
  594TIP3    H223198   0.243   2.298   4.888  0.5899 -0.2035  1.2669
  595TIP3   OH223199   1.281   3.013   2.736  0.1809 -0.0845  0.0942
  595TIP3    H123200   1.194   3.023   2.695 -0.2691 -0.2563  1.0081
  595TIP3    H223201   1.318   3.101   2.735 -0.1303  0.0451 -0.0066
  596TIP3   OH223202   6.359   5.581  13.508 -0.3805  0.1605  0.5066
  596TIP3    H123203   6.289   5.579  13.442 -1.3853  0.1824  1.5481
  596TIP3    H223204   6.438   5.559  13.460 -1.2586 -0.8214 -0.5197
  597TIP3   OH223205   3.367   0.637   4.411 -0.1156  0.2520 -0.6182
  597TIP3    H123206   3.325   0.683   4.484  0.5297 -0.5103  0.2301
  597TIP3    H223207   3.370   0.703   4.341 -0.0434  1.2284  0.2830
  598TIP3   OH223208   2.665   0.347   5.294  0.0303 -0.0732  0.1043
  598TIP3    H123209   2.684   0.377   5.383 -0.9655  1.7320 -0.2517
  598TIP3    H223210   2.569   0.344   5.290  0.0132  1.7938 -1.4976
  599TIP3   OH223211   1.473   4.181  16.781 -0.3507 -0.2536  0.1132
  599TIP3    H123212   1.450   4.106  16.836 -1.2493 -1.0938 -1.3605
  599TIP3    H223213   1.533   4.145  16.716  0.7148  0.7260  0.5444
  600TIP3   OH223214   6.635   2.829   5.724 -0.1246  0.0495  0.7241
  600TIP3    H123215   6.710   2.771   5.709  0.7510  1.0212  1.2410
  600TIP3    H223216   6.628   2.881   5.644 -0.3707 -0.1916  0.5926
  601TIP3   OH223217   4.197   1.868  10.939  0.3048  0.2456 -0.0963
  601TIP3    H123218   4.154   1.942  10.981  0.0704  0.3775 -0.5704
  601TIP3    H223219   4.274   1.906  10.897 -0.0933  0.3147 -0.7796
  602TIP3   OH223220   1.132   5.404  13.012 -0.3441  0.3892  0.5266
  602TIP3    H123221   1.187   5.460  12.958  1.4250 -2.1313 -0.3926
  602TIP3    H223222   1.057   5.459  13.036  1.9272  3.5234  0.7873
  603TIP3   OH223223   6.471   6.061  13.245 -0.4237  0.0840  0.1768
  603TIP3    H123224   6.476   6.008  13.324 -0.1839 -0.3798 -0.1406
  603TIP3    H223225   6.394   6.115  13.256  0.5501  1.2239  1.4607
  604TIP3   OH223226   0.485   1.059  11.719 -0.0037  0.1487  0.2237
  604TIP3    H123227   0.560   1.042  11.776  0.9836  0.1647 -1.0740
  604TIP3    H223228   0.513   1.130  11.662 -0.9149 -0.0012 -0.4195
  605TIP3   OH223229   6.062   1.825   0.667  0.4527  0.3855  0.2634
  605TIP3    H123230   6.000   1.882   0.713 -2.0007 -2.0739  0.1181
  605TIP3    H223231   6.009   1.784   0.598  2.5771 -0.7665 -0.7095
  606TIP3   OH223232   2.798   1.266   5.005  0.4489  0.3060  0.1297
  606TIP3    H123233   2.728   1.316   4.962  1.2744  0.9137 -0.5233
  606TIP3    H223234   2.861   1.249   4.935  1.6611  1.0382  1.0414
  607TIP3   OH223235   2.096   6.339  16.015 -0.1452 -0.0251 -0.0494
  607TIP3    H123236   2.052   6.375  15.938 -0.1291  1.9986  0.8578
  607TIP3    H223237   2.039   6.364  16.088  0.5107 -0.7896  0.7216
  608TIP3   OH223238   5.716   0.344   2.693  0.5131 -0.3419  0.3076
  608TIP3    H123239   5.761   0.426   2.674 -0.8205  0.5068  0.7394
  608TIP3    H223240   5.667   0.325   2.613  0.6418 -0.5986  0.2900
  609TIP3   OH223241   3.721   3.732   2.954  0.0078 -0.6342 -0.6576
  609TIP3    H123242   3.772   3.675   3.011 -1.4230  0.5935  1.9520
  609TIP3    H223243   3.645   3.757   3.006 -0.4517  1.9910 -2.4554
  610TIP3   OH223244   3.996   2.322  17.007 -0.4246  0.5456 -0.1418
  610TIP3    H123245   4.054   2.249  17.032 -0.6611  0.1359 -0.7716
  610TIP3    H223246   3.945   2.340  17.086 -0.5074 -0.1173 -0.0347
  611TIP3   OH223247   2.568   5.346  11.474 -0.2391  0.1437 -0.2629
  611TIP3    H123248   2.651   5.304  11.494 -1.9696 -2.7921  1.1724
  611TIP3    H223249   2.550   5.321  11.383  0.1264  0.2114 -0.3536
  612TIP3   OH223250   5.046   0.084  11.235  0.8063  0.1415  0.0028
  612TIP3    H123251   5.065   0.132  11.316  1.6018  0.9356 -0.6470
  612TIP3    H223252   5.128   0.087  11.186  0.1966  0.0422 -1.0287
  613TIP3   OH223253   2.641   4.679   2.916  0.5263  0.0052 -0.3061
  613TIP3    H123254   2.618   4.616   2.984 -0.0448  0.0395 -0.4618
  613TIP3    H223255   2.620   4.764   2.954  1.8081  0.1423  0.1054
  614TIP3   OH223256   5.716   4.195  16.839  0.3095 -0.2401 -0.6445
  614TIP3    H123257   5.721   4.172  16.746  0.8454 -0.7314 -0.4905
  614TIP3    H223258   5.784   4.143  16.880  0.4521  0.4151 -0.0581
  615TIP3   OH223259   5.611   5.559  16.547  0.1807  0.1679 -0.0336
  615TIP3    H123260   5.572   5.614  16.615 -0.4439 -0.2448 -0.0620
  615TIP3    H223261   5.682   5.614  16.511 -1.9204  1.9030 -1.6697
  616TIP3   OH223262   6.735   3.801   4.071  0.3795  0.1555  0.0757
  616TIP3    H123263   6.712   3.748   3.994 -3.7344 -0.1082  1.3609
  616TIP3    H223264   6.752   3.736   4.140 -0.2603  0.4221  0.4906
  617TIP3   OH223265   5.747   3.006   1.206 -0.3146 -0.0098 -0.3121
  617TIP3    H123266   5.743   3.090   1.252 -1.1416 -1.4147  2.2782
  617TIP3    H223267   5.681   3.013   1.137 -1.8230  0.7430  1.1702
  618TIP3   OH223268   3.856   1.769   2.167  0.6300 -0.2376  0.9947
  618TIP3    H123269   3.815   1.717   2.236  1.2590 -1.7371  0.2674
  618TIP3    H223270   3.783   1.814   2.124  0.2092  0.4957  2.4305
  619TIP3   OH223271   3.760   0.719  11.084 -0.1377  0.2862  0.3440
  619TIP3    H123272   3.718   0.641  11.048  0.0214  0.8170 -1.0140
  619TIP3    H223273   3.717   0.733  11.168 -0.1327 -1.2920  0.6173
  620TIP3   OH223274   1.615   2.352  16.394 -0.3361 -0.1655  0.8021
  620TIP3    H123275   1.539   2.410  16.388  0.2725  0.5787 -0.0053
  620TIP3    H223276   1.672   2.382  16.323  0.5892 -0.8818  1.2432
  621TIP3   OH223277   0.433   6.039  16.892  0.1324  0.2865  0.4346
  621TIP3    H123278   0.371   6.069  16.826  0.4821  0.3781  0.1467
  621TIP3    H223279   0.519   6.066  16.858  0.4140 -0.6565  0.3874
  622TIP3   OH223280   4.314   5.850  12.377 -0.1445 -0.0730 -0.5683
  622TIP3    H123281   4.334   5.896  12.295  1.2772  2.4889  1.1568
  622TIP3    H223282   4.393   5.859  12.430 -0.7384 -2.4411  0.7905
  623TIP3   OH223283   5.501   4.736  12.800  0.1151 -0.0332  0.3556
  623TIP3    H123284   5.473   4.652  12.763  2.1333 -0.0965 -1.0902
  623TIP3    H223285   5.553   4.777  12.730 -0.2053  2.0877  1.3151
  624TIP3   OH223286   2.047   2.774  16.680 -0.4078 -0.0766  0.3722
  624TIP3    H123287   2.010   2.822  16.606 -0.7721  1.0534  1.2768
  624TIP3    H223288   2.041   2.682  16.654  1.6366  0.4062 -2.0070
  625TIP3   OH223289   1.763   1.798   5.170  0.0686 -0.1037  0.0170
  625TIP3    H123290   1.784   1.812   5.078  3.3365  2.0345  0.9692
  625TIP3    H223291   1.727   1.881   5.200  0.4345 -0.2789  0.9846
  626TIP3   OH223292   0.953   3.721   1.289 -0.2961 -1.0287 -0.1564
  626TIP3    H123293   0.963   3.626   1.288 -1.0585 -1.1135 -1.4092
  626TIP3    H223294   0.870   3.736   1.333 -0.8181 -1.0291 -1.1170
  627TIP3   OH223295   1.488   2.477   0.428  0.1993 -0.4434 -0.1569
  627TIP3    H123296   1.532   2.392   0.432  2.8545  0.8792  0.1710
  627TIP3    H223297   1.529   2.528   0.499  0.5125  1.9142 -1.9826
  628TIP3   OH223298   5.001   5.365  16.118  0.0300 -0.0947  0.1061
  628TIP3    H123299   4.934   5.389  16.181  1.4735  0.3097  1.5281
  628TIP3    H223300   5.004   5.438  16.056 -0.8425 -0.1267  0.0266
  629TIP3   OH223301   2.811   6.428  15.003  0.2216 -0.0184  0.1775
  629TIP3    H123302   2.750   6.375  14.952  0.1253  2.1107 -1.9911
  629TIP3    H223303   2.811   6.387  15.090 -3.9968 -0.2859  0.1421
  630TIP3   OH223304   0.337   1.732   0.487  0.1825  0.1366 -0.4322
  630TIP3    H123305   0.288   1.740   0.405 -1.0580  0.1007  0.2860
  630TIP3    H223306   0.291   1.789   0.548  1.6573  0.8876 -0.0035
  631TIP3   OH223307   5.746   0.121  11.055  0.2755  0.9001  0.4879
  631TIP3    H123308   5.776   0.032  11.037 -0.0991  0.6588  1.0276
  631TIP3    H223309   5.664   0.129  11.006  0.8731  1.3273 -0.4473
  632TIP3   OH223310   0.672   3.780   2.595 -0.6890  0.3877  0.1309
  632TIP3    H123311   0.766   3.795   2.611 -0.5370 -1.1692  0.6830
  632TIP3    H223312   0.667   3.691   2.561 -1.8601  0.8769 -1.0323
  633TIP3   OH223313   3.182   1.604  13.997  0.4347 -0.1848  0.3794
  633TIP3    H123314   3.221   1.593  14.084  1.2229  1.6659  0.2731
  633TIP3    H223315   3.251   1.643  13.944 -0.1581 -0.9759 -1.0009
  634TIP3   OH223316   4.290   0.088  14.463  0.3992  0.1345  0.2069
  634TIP3    H123317   4.381   0.060  14.451  1.1603  1.6121  2.2293
  634TIP3    H223318   4.263   0.047  14.545 -0.0336  1.4709  0.7419
  635TIP3   OH223319   1.562   1.585  10.525 -0.4096  0.1210  0.4277
  635TIP3    H123320   1.498   1.522  10.558 -0.8237 -0.0084 -0.5804
  635TIP3    H223321   1.619   1.534  10.468 -1.2539  0.7835 -1.0634
  636TIP3   OH223322   0.509   0.113  11.776 -0.1486  0.0057 -0.2862
  636TIP3    H123323   0.517   0.032  11.725 -0.9131 -1.4979  1.8914
  636TIP3    H223324   0.419   0.112  11.809  0.5948  0.4665  1.8250
  637TIP3   OH223325   6.626   6.615  13.084  0.3542 -0.1325  0.5084
  637TIP3    H123326   6.655   6.531  13.050 -1.9418  0.6003 -3.6400
  637TIP3    H223327   6.534   6.603  13.106  0.1261  1.1546  0.3363
  638TIP3   OH223328   4.602   3.538   0.909 -0.2740 -0.2459  0.3701
  638TIP3    H123329   4.588   3.443   0.911 -0.1705 -0.2289  2.4567
  638TIP3    H223330   4.532   3.571   0.854 -1.1731 -1.3991  0.8074
  639TIP3   OH223331   2.366   2.032  16.926  0.0462 -0.2492 -0.4963
  639TIP3    H123332   2.393   2.014  16.836  0.6326 -3.9512  0.3222
  639TIP3    H223333   2.270   2.029  16.924  0.0640 -0.4279 -0.9669
  640TIP3   OH223334   3.399   4.184  14.402  0.4520  0.2405 -0.3211
  640TIP3    H123335   3.484   4.196  14.360  0.7184 -0.0147  0.1431
  640TIP3    H223336   3.396   4.092  14.426 -0.0175  0.2140 -0.4642
  641TIP3   OH223337   6.135   6.624   3.255 -0.2083 -0.3906  0.3743
  641TIP3    H123338   6.174   6.543   3.225 -0.3794 -0.5043  0.4537
  641TIP3    H223339   6.086   6.657   3.180  0.9028  0.2937 -0.0491
  642TIP3   OH223340   0.069   3.353   2.931  0.2145 -0.3802  0.1742
  642TIP3    H123341   0.117   3.272   2.915  2.0490  0.5348  0.9263
  642TIP3    H223342   0.132   3.422   2.916 -0.9634  0.8772  0.8662
  643TIP3   OH223343   2.834   0.858  15.719  0.3798 -0.0498 -0.1441
  643TIP3    H123344   2.738   0.861  15.715  0.4121 -0.6177 -1.5463
  643TIP3    H223345   2.855   0.765  15.711  1.1604  0.3315 -2.9146
  644TIP3   OH223346   2.035   4.134  16.711 -0.1024 -0.2788 -0.5193
  644TIP3    H123347   1.973   4.069  16.744  0.3338 -0.4109  0.0578
  644TIP3    H223348   2.118   4.110  16.753  0.3327 -0.1056 -1.2891
  645TIP3   OH223349   0.927   2.683  12.923 -0.6181 -0.6243 -0.4662
  645TIP3    H123350   0.926   2.778  12.907  0.1033 -0.7993 -1.6189
  645TIP3    H223351   0.891   2.673  13.011  0.6558  0.8488  0.2553
  646TIP3   OH223352   3.585   6.772  15.049  0.3470 -0.4915 -0.6520
  646TIP3    H123353   3.643   6.709  15.007  1.0647  0.1666 -0.6543
  646TIP3    H223354   3.609   6.770  15.141  1.6377  1.1012 -0.9285
  647TIP3   OH223355   2.672   5.351   2.564  0.1253  0.4743  0.5258
  647TIP3    H123356   2.737   5.369   2.632 -1.1057  0.7745  1.6285
  647TIP3    H223357   2.590   5.386   2.598 -0.6925 -0.1633 -0.7297
  648TIP3   OH223358   5.477   0.466   4.008 -0.1626 -0.1034  0.5396
  648TIP3    H123359   5.398   0.493   4.055 -1.4842 -0.3828 -1.4713
  648TIP3    H223360   5.467   0.503   3.921  0.0220 -3.4280 -0.9658
  649TIP3   OH223361   4.349   4.117   5.533 -0.2250  0.0185 -0.0899
  649TIP3    H123362   4.404   4.186   5.570  0.7737 -1.3621  1.0683
  649TIP3    H223363   4.387   4.101   5.446 -0.6019  1.0748 -0.4536
  650TIP3   OH223364   1.711   2.425  17.087  0.1139 -0.8013 -0.0937
  650TIP3    H123365   1.637   2.388  17.039  0.1485 -1.1945  0.1547
  650TIP3    H223366   1.744   2.495  17.031 -0.7919 -0.2590  0.0426
  651TIP3   OH223367   6.087   6.124  16.790 -0.0233  0.3098  0.6089
  651TIP3    H123368   6.182   6.115  16.786  0.0865  1.7298 -0.2109
  651TIP3    H223369   6.071   6.184  16.863 -0.3485 -0.6451  1.3373
  652TIP3   OH223370   0.398   0.819   1.050  0.3777  0.0150 -0.1188
  652TIP3    H123371   0.304   0.803   1.042  0.3920 -0.0431 -0.1711
  652TIP3    H223372   0.404   0.895   1.108  0.2812  0.3043 -0.4793
  653TIP3   OH223373   4.732   2.801   4.142  0.7639 -0.6781 -0.3957
  653TIP3    H123374   4.815   2.849   4.142  0.6516 -0.4766 -0.8726
  653TIP3    H223375   4.745   2.732   4.076  0.9471 -1.3370  0.3256
  654TIP3   OH223376   3.027   4.954  14.858 -0.0835  0.6181  0.4341
  654TIP3    H123377   3.040   4.997  14.942  1.0888  0.1418  0.5037
  654TIP3    H223378   2.932   4.946  14.849 -0.3093  2.9134  0.5632
  655TIP3   OH223379   2.610   3.811  10.756 -0.3748  0.5059 -0.4928
  655TIP3    H123380   2.567   3.737  10.799  0.0782  0.6082  0.1544
  655TIP3    H223381   2.546   3.881  10.757 -0.2263  0.6293  0.3815
  656TIP3   OH223382   5.151   2.976   4.159 -0.0771 -0.6390 -0.1713
  656TIP3    H123383   5.128   2.883   4.153 -0.3720 -0.6962  1.6936
  656TIP3    H223384   5.070   3.022   4.140  0.3801 -0.7219 -2.4646
  657TIP3   OH223385   2.460   2.846   0.881 -0.4282 -0.2552  0.0484
  657TIP3    H123386   2.377   2.871   0.920 -0.9832  0.2020 -1.3867
  657TIP3    H223387   2.480   2.917   0.819  1.2934 -0.0831  0.7506
  658TIP3   OH223388   4.766   0.259   1.842  0.6752 -0.1081  0.1586
  658TIP3    H123389   4.734   0.230   1.928  0.0991 -1.6115 -0.5382
  658TIP3    H223390   4.772   0.179   1.791  2.0052  0.6478 -0.9053
  659TIP3   OH223391   3.635   3.536  15.457  0.2873  0.0712  0.1124
  659TIP3    H123392   3.573   3.469  15.489  0.9225 -0.2500  0.6861
  659TIP3    H223393   3.598   3.619  15.487 -0.9123  0.0469 -1.2661
  660TIP3   OH223394   1.222   5.926  16.855 -0.1376 -0.5984 -0.0421
  660TIP3    H123395   1.210   5.852  16.913  1.7051 -1.0657 -0.2239
  660TIP3    H223396   1.223   5.888  16.767 -2.8001  0.0886 -0.4191
  661TIP3   OH223397   4.894   3.772   2.392 -0.2574  0.6673 -0.6439
  661TIP3    H123398   4.938   3.846   2.351  0.2264 -0.0932 -1.5213
  661TIP3    H223399   4.961   3.703   2.395 -0.8526  0.0960 -0.3060
  662TIP3   OH223400   3.912   0.336  17.115 -0.8768  0.0306 -0.7869
  662TIP3    H123401   3.876   0.349  17.203  0.7075  0.2870 -0.1617
  662TIP3    H223402   3.975   0.265  17.125 -0.8778 -0.1145 -1.7760
  663TIP3   OH223403   0.542   1.105   5.902 -0.3155 -0.4360  0.0894
  663TIP3    H123404   0.461   1.091   5.951  0.1738  0.0380  1.0598
  663TIP3    H223405   0.536   1.195   5.869  0.1639 -0.1135  0.8574
  664TIP3   OH223406   3.074   0.231  17.199  0.1356 -0.6544 -0.7050
  664TIP3    H123407   2.996   0.193  17.238  0.0159 -0.8366 -1.1192
  664TIP3    H223408   3.127   0.155  17.172  0.3861 -0.5318 -0.5627
  665TIP3   OH223409   1.549   4.243  15.206  0.3500 -0.6234 -0.2885
  665TIP3    H123410   1.500   4.296  15.143 -2.0026 -1.2936  0.9033
  665TIP3    H223411   1.558   4.299  15.282 -3.0066 -2.1308  1.3479
  666TIP3   OH223412   5.867   0.960  13.914 -0.1655 -0.4515 -0.0175
  666TIP3    H123413   5.805   0.902  13.957 -1.1606 -0.1999 -1.0931
  666TIP3    H223414   5.901   0.909  13.841  0.1621 -0.2415 -0.0152
  667TIP3   OH223415   2.212   3.770  14.744  0.3643  0.1852 -0.7988
  667TIP3    H123416   2.138   3.712  14.724 -0.1488  0.9860 -1.2843
  667TIP3    H223417   2.199   3.845  14.685  1.2802  0.5675 -0.5152
  668TIP3   OH223418   1.760   4.509   3.580 -0.7276  0.5459 -0.0339
  668TIP3    H123419   1.749   4.545   3.668 -2.0259  1.8797 -0.7142
  668TIP3    H223420   1.854   4.491   3.573 -0.6105  0.4348  1.6052
  669TIP3   OH223421   1.425   0.688  15.411 -0.7126  0.3015 -0.7576
  669TIP3    H123422   1.489   0.674  15.481 -0.6976  0.5250 -0.7267
  669TIP3    H223423   1.441   0.777  15.381  0.2272 -0.2706 -2.0117
  670TIP3   OH223424   5.937   2.415  14.347 -0.0194  0.3125  0.0844
  670TIP3    H123425   5.918   2.456  14.262 -3.2960 -0.8709  0.1700
  670TIP3    H223426   5.852   2.384  14.378  1.4039 -0.8537  3.0061
  671TIP3   OH223427   6.144   3.092   6.736 -0.7338  0.1902 -0.6742
  671TIP3    H123428   6.181   3.010   6.768 -1.5433 -0.3596 -1.1151
  671TIP3    H223429   6.061   3.101   6.783 -0.7129  0.6871 -0.7261
  672TIP3   OH223430   1.508   3.579  12.634  0.0587 -0.1316  0.1178
  672TIP3    H123431   1.470   3.642  12.695  0.3568 -0.7942  1.0098
  672TIP3    H223432   1.564   3.524  12.689  1.7542  0.3826 -1.0527
  673TIP3   OH223433   2.748   1.980  15.440  0.2488  0.7772 -0.0649
  673TIP3    H123434   2.839   1.950  15.451  0.3791  1.4522  0.7491
  673TIP3    H223435   2.701   1.940  15.513 -0.1892  0.1437 -0.6862
  674TIP3   OH223436   1.291   1.786  15.161  0.1581 -0.6206  0.0096
  674TIP3    H123437   1.255   1.838  15.090  1.0705 -0.3370 -0.2575
  674TIP3    H223438   1.294   1.846  15.236  0.9293 -0.3712 -0.2168
  675TIP3   OH223439   0.372   2.787   1.705 -0.2206  0.0489 -0.2232
  675TIP3    H123440   0.364   2.830   1.790 -0.9153  0.0840 -0.3015
  675TIP3    H223441   0.286   2.746   1.691  0.1845 -0.7106 -0.4974
  676TIP3   OH223442   4.997   1.938  12.559 -0.5292  0.1934 -0.2809
  676TIP3    H123443   5.019   1.897  12.475  1.1127 -0.0543  0.2600
  676TIP3    H223444   4.984   1.864  12.619  0.4140  0.4218  0.1999
  677TIP3   OH223445   6.483   5.506   2.794  0.3082  0.4337  0.8980
  677TIP3    H123446   6.435   5.428   2.823  0.4678 -0.1167 -0.2890
  677TIP3    H223447   6.423   5.579   2.813 -1.4823 -0.3354 -1.5389
  678TIP3   OH223448   2.152   6.173  12.217  0.5274 -0.7883 -0.4500
  678TIP3    H123449   2.150   6.091  12.267  0.0994  0.3164  1.3923
  678TIP3    H223450   2.060   6.194  12.201  0.4449  1.2314  2.3436
  679TIP3   OH223451   3.841   5.953  14.737 -0.0946 -0.2089 -0.1112
  679TIP3    H123452   3.829   5.858  14.730  0.1020 -0.1388 -1.6705
  679TIP3    H223453   3.801   5.988  14.657  0.3253  0.9720  0.1869
  680TIP3   OH223454   0.169   0.272   4.332  0.1214 -0.4623 -0.4045
  680TIP3    H123455   0.167   0.207   4.402  0.5865  0.3040  0.3397
  680TIP3    H223456   0.104   0.242   4.269  1.4026 -2.4576 -0.8281
  681TIP3   OH223457   5.765   4.924   2.458  0.1923 -0.2622 -0.5807
  681TIP3    H123458   5.690   4.933   2.517  2.2493 -2.3390  2.4837
  681TIP3    H223459   5.739   4.856   2.396 -0.8834 -0.1129 -0.2984
  682TIP3   OH223460   4.059   2.350   4.314  0.2690 -0.0871 -0.6741
  682TIP3    H123461   4.133   2.290   4.322  0.4511  0.3375  0.9183
  682TIP3    H223462   4.094   2.435   4.342 -0.2035  0.6185 -2.1268
  683TIP3   OH223463   2.061   4.000  13.188 -0.5022  0.1364  0.4876
  683TIP3    H123464   2.063   4.026  13.280  0.4492 -0.1164  0.5466
  683TIP3    H223465   2.106   3.916  13.185  2.8677  1.8837 -0.7113
  684TIP3   OH223466   6.225   5.654  12.734 -0.0781 -0.4346 -0.2725
  684TIP3    H123467   6.184   5.730  12.692  1.3899  0.0663 -0.8159
  684TIP3    H223468   6.315   5.655  12.703  1.6436  1.0866  4.3194
  685TIP3   OH223469   5.365   6.655   2.015  0.2974 -0.2845  0.8102
  685TIP3    H123470   5.293   6.658   2.078 -0.7078  0.2697 -0.3404
  685TIP3    H223471   5.386   6.562   2.006 -2.0158 -0.7033 -0.7486
  686TIP3   OH223472   5.540   4.325   0.089  0.2601 -0.5070  0.4330
  686TIP3    H123473   5.582   4.404   0.054  0.1112 -0.4503  0.3792
  686TIP3    H223474   5.519   4.273   0.011  0.2516 -0.5450  0.4609
  687TIP3   OH223475   0.036   0.110  11.411 -0.0287  0.6827  0.0076
  687TIP3    H123476   0.099   0.055  11.457 -0.7354  0.9305  1.3050
  687TIP3    H223477   0.044   0.196  11.453  0.5493  1.3945 -1.5121
  688TIP3   OH223478   4.144   0.938   3.150  0.2052  0.7441  0.3655
  688TIP3    H123479   4.058   0.977   3.159 -0.3464 -0.0035 -1.2906
  688TIP3    H223480   4.171   0.915   3.239 -2.0794 -0.6185  0.7478
  689TIP3   OH223481   4.772   6.069   3.585  0.3209  0.1450  0.3107
  689TIP3    H123482   4.775   5.973   3.588  1.3282  0.1654  0.3919
  689TIP3    H223483   4.736   6.094   3.670 -0.2457 -0.1675  0.1687
  690TIP3   OH223484   2.608   4.901   6.160  0.1477  0.2757 -0.1166
  690TIP3    H123485   2.625   4.983   6.205 -0.2630  0.0980  0.3699
  690TIP3    H223486   2.598   4.926   6.068 -1.5391  0.9857  0.2470
  691TIP3   OH223487   1.603   6.222   0.917 -0.0541 -0.3141  0.1559
  691TIP3    H123488   1.602   6.136   0.959  1.0441 -0.9218 -1.0246
  691TIP3    H223489   1.576   6.205   0.826  2.4336  0.2038 -0.7163
  692TIP3   OH223490   1.096   5.071   2.913  0.4636 -0.0822  0.6542
  692TIP3    H123491   1.105   5.090   3.006 -0.4021 -0.6566  0.8677
  692TIP3    H223492   1.065   4.981   2.910 -0.1806  0.1582 -0.1668
  693TIP3   OH223493   0.754   6.164   0.924  0.2941 -0.5532 -0.1168
  693TIP3    H123494   0.827   6.226   0.920 -0.1210 -0.0645 -0.0452
  693TIP3    H223495   0.676   6.218   0.930 -0.1317 -1.0689 -0.9526
  694TIP3   OH223496   6.213   3.862   4.986  0.0424  0.6580 -0.1890
  694TIP3    H123497   6.262   3.786   4.955 -0.3927 -0.3175  1.4531
  694TIP3    H223498   6.279   3.927   5.007  0.5014  0.1893 -0.1886
  695TIP3   OH223499   6.063   6.743  11.218 -0.1571  0.3737 -0.5404
  695TIP3    H123500   5.990   6.687  11.243 -0.6117  1.0219 -0.4056
  695TIP3    H223501   6.106   6.696  11.146 -0.1764 -0.4271 -0.0289
  696TIP3   OH223502   1.309   2.082   2.389 -0.9833 -0.2295  0.4296
  696TIP3    H123503   1.282   2.144   2.457  0.9416  0.7374  0.3494
  696TIP3    H223504   1.377   2.029   2.430 -0.7730 -0.5433 -0.3147
  697TIP3   OH223505   6.025   5.425   5.320  0.4372  0.1302 -0.1820
  697TIP3    H123506   5.932   5.425   5.344  0.1274 -0.3193 -1.3596
  697TIP3    H223507   6.033   5.356   5.254  1.7379 -0.2687  0.3719
  698TIP3   OH223508   1.563   1.400  13.886  1.1881 -0.1456 -0.0614
  698TIP3    H123509   1.478   1.386  13.928  1.8023 -2.2472  0.5396
  698TIP3    H223510   1.544   1.457  13.812 -0.8032 -0.8465 -0.1247
  699TIP3   OH223511   4.928   0.010  15.576  0.2824  0.3837  0.4401
  699TIP3    H123512   4.878   0.022  15.495  0.2359 -0.5055  0.3288
  699TIP3    H223513   4.885   0.067  15.640  0.5389  1.3699 -0.2474
  700TIP3   OH223514   4.267   3.855  11.057 -0.0033 -0.1663  0.0133
  700TIP3    H123515   4.240   3.945  11.038 -0.5622 -0.4747 -0.6600
  700TIP3    H223516   4.195   3.820  11.110  0.4278 -0.0748  0.6632
  701TIP3   OH223517   2.673   1.830   5.519  0.0653  0.3598  0.4677
  701TIP3    H123518   2.620   1.798   5.593  0.4712 -0.8570  0.2457
  701TIP3    H223519   2.620   1.810   5.442  0.6335 -0.4436  0.2770
  702TIP3   OH223520   4.610   6.309   0.340  0.7408 -0.4690  0.0888
  702TIP3    H123521   4.657   6.226   0.340 -0.5053 -1.2090 -1.6872
  702TIP3    H223522   4.678   6.376   0.333  1.6342 -1.4321 -0.4061
  703TIP3   OH223523   1.533   0.503  14.359  0.0427 -0.7800 -0.0156
  703TIP3    H123524   1.624   0.475  14.369  0.0636 -1.6375 -2.3379
  703TIP3    H223525   1.486   0.453  14.427  1.1536 -1.0253  0.5936
  704TIP3   OH223526   2.452   1.019  16.052  0.3314 -0.3005 -0.3421
  704TIP3    H123527   2.367   1.014  16.009 -0.2751 -0.3443  0.8473
  704TIP3    H223528   2.433   1.054  16.139  1.7677  1.6207 -0.7550
  705TIP3   OH223529   0.974   0.335   3.072 -0.0475  0.3193  0.4998
  705TIP3    H123530   1.009   0.344   2.983  1.4061  2.0776  1.2259
  705TIP3    H223531   0.991   0.244   3.095  1.6783  0.4441 -0.1799
  706TIP3   OH223532   0.056   4.754   4.498  0.4136  0.2564  0.1676
  706TIP3    H123533   0.093   4.694   4.562  2.3985  0.8467 -0.3792
  706TIP3    H223534  -0.005   4.808   4.548  1.1506  0.0145  1.3552
  707TIP3   OH223535   3.034   1.843  16.083  0.0448  0.4243  0.2412
  707TIP3    H123536   3.078   1.925  16.106 -2.1536  1.3529  1.3632
  707TIP3    H223537   2.993   1.815  16.165  0.8044 -1.8435 -0.1316
  708TIP3   OH223538   1.115   6.408  17.151  0.6888 -0.3299 -0.0184
  708TIP3    H123539   1.091   6.484  17.204  0.0962 -0.1933 -0.4741
  708TIP3    H223540   1.179   6.442  17.088  0.2725 -0.1716 -0.3499
  709TIP3   OH223541   3.469   5.482   6.832  0.2639  0.5974  0.0606
  709TIP3    H123542   3.386   5.498   6.788  0.6856  1.6447 -0.3765
  709TIP3    H223543   3.458   5.397   6.875 -0.9326  0.6149 -0.2053
  710TIP3   OH223544   4.124   5.192   1.359 -0.2844 -0.5443 -0.5872
  710TIP3    H123545   4.092   5.239   1.282 -0.1044 -0.2616 -0.4943
  710TIP3    H223546   4.210   5.158   1.332  0.7669  1.4113  0.1742
  711TIP3   OH223547   5.081   4.003  12.354  0.5711 -0.1416 -0.4313
  711TIP3    H123548   5.096   4.075  12.292 -0.4246 -0.8661 -1.5471
  711TIP3    H223549   5.149   4.015  12.421  0.7307  1.5417 -0.8481
  712TIP3   OH223550   6.195   0.031  11.667 -0.3305 -0.1512  0.2471
  712TIP3    H123551   6.274   0.017  11.720 -0.4271  1.0413  0.7225
  712TIP3    H223552   6.226   0.026  11.577  0.3479  0.6209  0.4322
  713TIP3   OH223553   2.491   3.083  16.813 -0.1942 -0.6435  0.0471
  713TIP3    H123554   2.575   3.039  16.829  0.7733  0.9446 -0.5349
  713TIP3    H223555   2.450   3.088  16.899 -0.3441 -2.6915  0.1286
  714TIP3   OH223556   1.370   1.182   4.495  0.3945  0.0746  0.5649
  714TIP3    H123557   1.419   1.188   4.577 -0.1180  0.9357  0.8113
  714TIP3    H223558   1.414   1.113   4.446  1.1808  0.0880  1.2404
  715TIP3   OH223559   6.350   4.434  16.832 -0.6092 -0.4173  0.2276
  715TIP3    H123560   6.273   4.378  16.829  0.0926 -1.4337  0.8679
  715TIP3    H223561   6.372   4.450  16.740 -2.0392  0.5307  0.0417
  716TIP3   OH223562   6.135   2.214   5.440  0.1323 -0.8494 -0.0577
  716TIP3    H123563   6.193   2.288   5.457 -0.4332 -0.6507  1.0343
  716TIP3    H223564   6.062   2.251   5.390  0.7128 -1.0099 -1.0287
  717TIP3   OH223565   2.613   1.997   0.744 -0.1058 -0.1323  0.0711
  717TIP3    H123566   2.690   1.994   0.800 -0.7223  1.4361  1.0233
  717TIP3    H223567   2.640   1.954   0.663  1.6522  0.0978  0.5259
  718TIP3   OH223568   6.445   4.749   5.588  0.6118 -0.2643  0.0891
  718TIP3    H123569   6.435   4.753   5.683  0.0330  0.2639  0.0085
  718TIP3    H223570   6.512   4.814   5.568 -0.9300  1.3101 -0.0924
  719TIP3   OH223571   1.357   5.058   1.210  0.2361  0.4171 -0.3778
  719TIP3    H123572   1.332   5.056   1.302 -0.4667  1.4792 -0.5382
  719TIP3    H223573   1.376   5.150   1.192 -0.1223  0.2908 -1.4283
  720TIP3   OH223574   0.722   4.427   0.819 -0.0105  0.6488  0.2465
  720TIP3    H123575   0.747   4.492   0.754  2.0188 -1.1705 -0.8423
  720TIP3    H223576   0.649   4.380   0.780 -0.2436  1.0313  0.2257
  721TIP3   OH223577   2.695   6.281  14.149  0.5868 -0.3375  0.2906
  721TIP3    H123578   2.614   6.331  14.151  0.8920  0.1266  1.1641
  721TIP3    H223579   2.764   6.347  14.153  1.0249 -0.6896 -1.0706
  722TIP3   OH223580   5.004   4.867  11.588  0.1463 -0.2050 -0.5019
  722TIP3    H123581   5.083   4.922  11.590 -0.0358  0.0972 -1.4177
  722TIP3    H223582   4.996   4.834  11.678 -0.7535  2.6681  0.5162
  723TIP3   OH223583   2.605   4.176   1.577 -0.4883 -0.1134 -0.4298
  723TIP3    H123584   2.671   4.240   1.549 -0.3097 -0.5064 -0.9162
  723TIP3    H223585   2.652   4.092   1.576 -0.5606 -0.1721  0.7710
  724TIP3   OH223586   5.161   5.581   1.748 -0.4992  0.0994 -0.0879
  724TIP3    H123587   5.157   5.667   1.707 -1.0823 -1.1432 -2.7524
  724TIP3    H223588   5.073   5.544   1.737  0.0921 -1.3359 -0.1866
  725TIP3   OH223589   5.933   1.810  11.468  0.1030  0.1905 -0.4235
  725TIP3    H123590   5.956   1.728  11.424 -0.3654  1.3332 -2.8525
  725TIP3    H223591   6.008   1.867  11.453  1.0764 -0.2344  2.5439
  726TIP3   OH223592   5.977   2.133  14.305 -0.1632  0.1193 -0.4062
  726TIP3    H123593   5.989   2.228  14.318 -0.0949  0.0263  0.2331
  726TIP3    H223594   5.917   2.126  14.231  2.1977  0.6356 -2.4525
  727TIP3   OH223595   0.977   3.220  16.162 -0.1140 -0.3081 -0.6350
  727TIP3    H123596   1.017   3.296  16.203  0.2495 -0.5784 -0.4884
  727TIP3    H223597   0.900   3.200  16.216  0.6459 -0.9701  0.1975
  728TIP3   OH223598   4.528   1.767   2.989  0.1101  0.1978  0.2777
  728TIP3    H123599   4.568   1.681   2.977  2.4032  1.2662 -0.1331
  728TIP3    H223600   4.496   1.792   2.902 -1.1906 -0.5117  0.5375
  729TIP3   OH223601   2.276   1.362  12.434  0.1817  0.2773 -0.0602
  729TIP3    H123602   2.202   1.412  12.399 -1.0206  0.1447  2.1952
  729TIP3    H223603   2.353   1.415  12.414 -0.7386  1.3731 -0.7120
  730TIP3   OH223604   5.727   1.373  14.930  0.3917 -0.1720  0.3388
  730TIP3    H123605   5.635   1.399  14.932  0.6202  0.7450 -0.4549
  730TIP3    H223606   5.730   1.301  14.868  0.4359  0.7694 -0.7639
  731TIP3   OH223607   0.405   6.599  11.958  0.4192 -0.1352 -0.1766
  731TIP3    H123608   0.486   6.647  11.946  1.3036 -1.4479  0.4424
  731TIP3    H223609   0.430   6.507  11.949 -1.2678 -0.4941 -1.4875
  732TIP3   OH223610   0.298   3.593   3.061 -0.2560 -0.5634  0.2224
  732TIP3    H123611   0.341   3.626   3.139  2.0052  0.8336 -1.5569
  732TIP3    H223612   0.366   3.544   3.015 -1.1873 -0.3219 -1.4550
  733TIP3   OH223613   4.088   0.413  16.087  0.6204  0.1720  0.2911
  733TIP3    H123614   4.125   0.420  16.175  1.9297 -0.3247 -0.2148
  733TIP3    H223615   4.057   0.501  16.066  0.8821  0.4317  0.9947
  734TIP3   OH223616   4.823   3.175   3.297 -0.2330 -0.3477  0.2933
  734TIP3    H123617   4.906   3.209   3.264 -0.4479 -0.4873 -0.4038
  734TIP3    H223618   4.761   3.246   3.283 -0.3986 -0.5362  0.0716
  735TIP3   OH223619   2.762   0.586   4.773  0.1300  0.4965  0.4906
  735TIP3    H123620   2.690   0.592   4.710  0.1919 -0.4959  0.3236
  735TIP3    H223621   2.719   0.566   4.856  0.4267 -3.6949 -0.2405
  736TIP3   OH223622   3.054   1.080  14.019 -0.8191 -0.5886  0.0832
  736TIP3    H123623   2.986   1.146  14.005 -0.1562  0.0386 -0.1628
  736TIP3    H223624   3.084   1.093  14.109 -0.1083 -0.0124 -0.2341
  737TIP3   OH223625   3.953   5.712   6.312  0.5200 -0.1248  0.0154
  737TIP3    H123626   3.987   5.624   6.321  2.8322  0.6774 -0.5856
  737TIP3    H223627   3.996   5.762   6.381  0.2496  0.8352 -0.4918
  738TIP3   OH223628   2.047   6.020  16.056 -0.2803  0.4255  0.2162
  738TIP3    H123629   2.064   5.926  16.066 -2.1507 -0.0453 -0.6891
  738TIP3    H223630   2.033   6.051  16.145  0.0182 -0.2195  0.4986
  739TIP3   OH223631   5.419   6.035  12.041 -0.1931 -0.3573  0.8519
  739TIP3    H123632   5.444   6.120  12.004  0.0981 -0.3755  1.0089
  739TIP3    H223633   5.443   6.041  12.133  1.2906 -1.1895  0.5321
  740TIP3   OH223634   1.761   0.680   0.872  0.2265 -0.7655  0.6437
  740TIP3    H123635   1.805   0.613   0.820 -0.6766 -1.3488  0.6241
  740TIP3    H223636   1.743   0.751   0.810  2.6058  0.1925  1.0032
  741TIP3   OH223637   1.466   5.437  13.484 -0.5687 -0.1388  0.4363
  741TIP3    H123638   1.446   5.346  13.506 -1.4287 -0.0976 -0.1397
  741TIP3    H223639   1.550   5.455  13.526 -0.7434 -0.9810  1.1366
  742TIP3   OH223640   2.256   0.453  15.071 -0.1947 -0.1775 -1.0564
  742TIP3    H123641   2.214   0.375  15.107 -0.3577  0.8291  1.0080
  742TIP3    H223642   2.304   0.422  14.995  1.6738 -2.7290  1.0978
  743TIP3   OH223643   3.328   0.228  11.061  0.1199 -0.3599  0.0148
  743TIP3    H123644   3.235   0.237  11.039  0.7625 -1.5542 -3.5086
  743TIP3    H223645   3.335   0.140  11.097  0.0588 -0.6969 -0.7838
  744TIP3   OH223646   2.387   5.470   1.164 -0.0709 -0.0020 -0.5658
  744TIP3    H123647   2.394   5.415   1.086 -0.5624  1.2384 -1.5213
  744TIP3    H223648   2.390   5.560   1.130 -1.5569  0.5686  0.7135
  745TIP3   OH223649   6.225   2.672   6.421 -0.7918 -0.4803 -0.0055
  745TIP3    H123650   6.278   2.745   6.390 -1.9060  0.4927  0.3525
  745TIP3    H223651   6.218   2.613   6.345  0.7907 -0.6340 -0.0505
  746TIP3   OH223652   6.184   3.585   5.834 -0.3244  0.3780  0.2421
  746TIP3    H123653   6.189   3.670   5.878  1.9552  0.5084 -0.2187
  746TIP3    H223654   6.148   3.605   5.747 -0.5157  0.7599  0.4085
  747TIP3   OH223655   4.429   2.723   1.270  0.0436  0.1437 -0.2796
  747TIP3    H123656   4.523   2.706   1.280  0.4606  1.9997 -1.0640
  747TIP3    H223657   4.397   2.649   1.219  1.4299  0.4841 -1.6612
  748TIP3   OH223658   2.197   0.679  13.416  0.0268 -0.4155 -0.8608
  748TIP3    H123659   2.137   0.745  13.451  2.9217  1.7832  0.1226
  748TIP3    H223660   2.146   0.634  13.348 -2.2120  2.4281 -1.1638
  749TIP3   OH223661   0.584   3.197   0.798 -0.2292  0.1041  0.2399
  749TIP3    H123662   0.583   3.204   0.703 -3.5713  1.2876  0.3236
  749TIP3    H223663   0.611   3.107   0.815 -0.0988 -0.2722 -1.8000
  750TIP3   OH223664   5.206   5.496   0.412  0.3995  0.4551 -0.5547
  750TIP3    H123665   5.196   5.413   0.458 -2.2127  1.2058  0.3181
  750TIP3    H223666   5.298   5.498   0.385  1.0274 -1.7085  1.3127
  751TIP3   OH223667   1.312   0.141  15.041  0.3050  0.1427  0.2807
  751TIP3    H123668   1.333   0.092  15.121  0.4662 -1.0759 -0.4961
  751TIP3    H223669   1.261   0.215  15.072  1.1030  0.1638  1.6199
  752TIP3   OH223670   6.364   3.787  16.330  0.2037  0.1083  0.0088
  752TIP3    H123671   6.388   3.844  16.402 -0.8065  0.4774  0.0633
  752TIP3    H223672   6.447   3.753  16.297  0.6800  0.0960  1.2046
  753TIP3   OH223673   4.015   3.883  17.077 -0.5829  0.1288 -0.1039
  753TIP3    H123674   3.981   3.901  17.165 -1.6926  1.2990 -0.7438
  753TIP3    H223675   4.019   3.969  17.035  2.0803 -0.1340 -0.4718
  754TIP3   OH223676   2.914   4.870  10.984  0.2807 -0.8415 -0.0737
  754TIP3    H123677   2.867   4.952  10.998  0.6708 -0.7320  0.5967
  754TIP3    H223678   2.994   4.896  10.939  0.9054 -0.7191  1.0828
  755TIP3   OH223679   1.670   5.665  16.848  0.1088  0.0066 -0.1758
  755TIP3    H123680   1.765   5.669  16.850  0.0776  1.0721 -0.5285
  755TIP3    H223681   1.649   5.574  16.870  1.1606  0.0912  1.2494
  756TIP3   OH223682   3.946   2.461  11.961 -0.0746 -0.5510  0.3493
  756TIP3    H123683   3.948   2.368  11.982  0.4644 -0.4217  0.8769
  756TIP3    H223684   4.017   2.473  11.898  0.9946 -0.1790  1.6127
  757TIP3   OH223685   5.594   0.814  15.002  0.0099  0.1279 -0.0294
  757TIP3    H123686   5.569   0.723  14.985 -1.7559  0.7782 -1.0092
  757TIP3    H223687   5.530   0.844  15.067  0.6790  0.6392  0.4035
  758TIP3   OH223688   4.598   0.383  12.297  0.1742  0.0265  0.3176
  758TIP3    H123689   4.670   0.330  12.263  0.0685 -0.5896  1.0327
  758TIP3    H223690   4.561   0.330  12.368  1.2262  1.8513  2.2918
  759TIP3   OH223691   2.823   0.653   3.349 -0.5740  0.0274 -0.0629
  759TIP3    H123692   2.825   0.591   3.276 -0.0439  0.6544 -0.5952
  759TIP3    H223693   2.731   0.679   3.356 -0.3203  1.5259 -1.8734
  760TIP3   OH223694   1.328   0.576  17.142 -0.4065 -0.1946 -0.7151
  760TIP3    H123695   1.245   0.565  17.095 -0.4154  1.3748 -1.0876
  760TIP3    H223696   1.353   0.487  17.168 -1.8498 -0.7561 -1.2033
  761TIP3   OH223697   0.622   5.987   1.942  0.0841 -0.1359  0.1091
  761TIP3    H123698   0.633   5.909   1.997  1.3807  0.4173  0.6555
  761TIP3    H223699   0.652   5.960   1.856  0.8871 -0.1429  0.3858
  762TIP3   OH223700   0.324   4.624   3.626 -0.6859 -0.1787  0.2712
  762TIP3    H123701   0.408   4.657   3.596  0.1016 -2.1779  0.2077
  762TIP3    H223702   0.279   4.701   3.662  0.7480  1.0857 -0.6116
  763TIP3   OH223703   5.971   2.358   4.848  0.0649  0.3084  0.1838
  763TIP3    H123704   6.003   2.306   4.922  0.2690  0.5258  0.2486
  763TIP3    H223705   6.000   2.309   4.771  0.9669  0.7464  0.2392
  764TIP3   OH223706   1.580   4.543   2.869  0.1921  0.0334  0.4481
  764TIP3    H123707   1.585   4.489   2.790 -2.4217  1.5393 -0.7998
  764TIP3    H223708   1.631   4.621   2.849 -1.4841  0.9812 -0.2865
  765TIP3   OH223709   5.562   3.968  14.861 -0.2716 -0.0618  0.2239
  765TIP3    H123710   5.616   3.950  14.938  0.2284  0.8620  0.0977
  765TIP3    H223711   5.475   3.936  14.885  0.2197 -1.1332  0.6047
  766TIP3   OH223712   6.295   4.439  11.520 -0.0153 -0.8022  0.0036
  766TIP3    H123713   6.286   4.353  11.478 -1.1963 -0.8928  0.4285
  766TIP3    H223714   6.210   4.481  11.507  0.2465 -0.0687  0.6364
  767TIP3   OH223715   4.328   4.302   4.668 -0.5749 -0.2298 -0.1526
  767TIP3    H123716   4.258   4.353   4.709  0.5257  1.4865 -0.3611
  767TIP3    H223717   4.350   4.351   4.589  1.5580 -0.1839  0.4421
  768TIP3   OH223718   2.091   1.068   2.294 -0.0903  0.3916  0.0306
  768TIP3    H123719   2.023   1.088   2.230 -0.4598 -0.4587  0.1564
  768TIP3    H223720   2.173   1.082   2.247 -0.3598 -0.0624 -0.5697
  769TIP3   OH223721   2.251   2.541   1.175  0.4097 -0.0249  0.2387
  769TIP3    H123722   2.322   2.601   1.153  1.1957 -0.8249  0.5945
  769TIP3    H223723   2.177   2.572   1.122  0.7984  1.2581  0.4147
  770TIP3   OH223724   3.844   6.655  13.588  0.0820  0.4520 -0.1081
  770TIP3    H123725   3.935   6.640  13.561  0.3758  1.6642  0.1669
  770TIP3    H223726   3.829   6.592  13.659  0.5288 -0.1268 -0.5207
  771TIP3   OH223727   3.589   0.065  10.173 -0.2185  0.2500 -0.5903
  771TIP3    H123728   3.511   0.012  10.186 -0.1800 -0.5091 -3.1814
  771TIP3    H223729   3.563   0.152  10.202 -1.6540 -0.2443 -0.3166
  772TIP3   OH223730   3.883   5.402   3.523  0.2297  0.1931  0.1435
  772TIP3    H123731   3.930   5.467   3.575  0.8729  0.3477 -0.6279
  772TIP3    H223732   3.939   5.385   3.447 -0.2256 -0.7943  0.0135
  773TIP3   OH223733   4.857   5.209   1.719  0.2162 -0.0508 -0.1869
  773TIP3    H123734   4.864   5.160   1.801  0.6523  3.7219  2.1530
  773TIP3    H223735   4.863   5.301   1.745 -1.3606  1.3455 -4.2831
  774TIP3   OH223736   6.043   6.454   5.412  0.6732  1.0882  0.3703
  774TIP3    H123737   6.118   6.395   5.413  0.9497  1.4343 -0.1476
  774TIP3    H223738   5.970   6.400   5.444  1.3401  1.0321  1.8386
  775TIP3   OH223739   4.648   5.646   1.829 -0.4071  0.2826  0.1363
  775TIP3    H123740   4.668   5.704   1.902  0.5384  0.8902 -0.6066
  775TIP3    H223741   4.587   5.695   1.775 -1.6997 -0.4540  0.8772
  776TIP3   OH223742   5.866   2.877   2.570 -0.1303  0.0996 -0.0167
  776TIP3    H123743   5.920   2.817   2.622  0.0641 -0.1952 -0.5521
  776TIP3    H223744   5.790   2.825   2.544  0.8014 -0.4295 -1.8283
  777TIP3   OH223745   4.384   3.097   3.556  0.5242  0.3529  0.1127
  777TIP3    H123746   4.410   3.051   3.636  3.8174  0.7372 -0.6731
  777TIP3    H223747   4.400   3.189   3.576 -3.1741  0.9804  0.6077
  778TIP3   OH223748   0.391   1.065   1.177 -0.2156  0.1164 -0.0178
  778TIP3    H123749   0.323   1.130   1.193 -0.7319 -0.7601  1.4196
  778TIP3    H223750   0.473   1.110   1.198 -0.4586  0.7324 -0.3819
  779TIP3   OH223751   4.060   0.719   3.020  0.5022  0.1849 -0.0593
  779TIP3    H123752   3.995   0.675   3.075  1.5665 -1.2869  0.0654
  779TIP3    H223753   4.094   0.789   3.075  0.9990 -0.7846  0.8856
  780TIP3   OH223754   1.299   2.299   2.570 -0.1886  0.2770 -0.7509
  780TIP3    H123755   1.392   2.310   2.592 -0.4997  0.5396  0.4312
  780TIP3    H223756   1.263   2.388   2.573 -0.7699  0.0185  0.1165
  781TIP3   OH223757   3.083   1.515  12.181 -0.2481 -0.8327 -0.6347
  781TIP3    H123758   3.055   1.537  12.092  0.4103  0.3948 -0.5524
  781TIP3    H223759   3.033   1.574  12.237  0.1549 -0.8407 -0.2687
  782TIP3   OH223760   6.328   4.861   0.007  0.7752 -0.0350  1.2350
  782TIP3    H123761   6.303   4.775  -0.027  0.8870  0.1420  0.6976
  782TIP3    H223762   6.255   4.919  -0.015  1.5446  0.4332 -0.1538
  783TIP3   OH223763   4.030   4.745  12.047  0.0113 -0.0088  0.1911
  783TIP3    H123764   4.070   4.819  12.092  0.9112  0.3210 -1.1057
  783TIP3    H223765   3.968   4.786  11.986 -1.2528 -0.4504  1.1552
  784TIP3   OH223766   3.267   1.138  11.810  0.2186 -0.4077  0.3270
  784TIP3    H123767   3.252   1.227  11.842  0.6677  0.4030 -1.6509
  784TIP3    H223768   3.181   1.109  11.779  0.4649  0.0832 -0.8321
  785TIP3   OH223769   0.730   4.956   6.342  0.3060  0.1136  0.0256
  785TIP3    H123770   0.640   4.983   6.361  0.1139  1.2053 -2.3464
  785TIP3    H223771   0.784   5.010   6.400 -0.5528 -0.6673  1.5842
  786TIP3   OH223772   2.221   1.704  14.330  0.0600  0.2480  0.4359
  786TIP3    H123773   2.267   1.787  14.348 -0.9592  1.1396 -0.9667
  786TIP3    H223774   2.131   1.730  14.313 -0.1970 -1.1179 -0.3612
  787TIP3   OH223775   5.341   1.910   0.516 -0.2170 -0.9508  0.2981
  787TIP3    H123776   5.414   1.946   0.566  1.5743 -3.7377 -0.1635
  787TIP3    H223777   5.324   1.974   0.448  0.1683  0.8732  1.8785
  788TIP3   OH223778   2.115   4.605   3.910 -0.1312  0.5023  0.0372
  788TIP3    H123779   2.165   4.587   3.990 -0.5323  2.1663  0.6816
  788TIP3    H223780   2.079   4.520   3.885  0.5790 -0.1710  1.2312
  789TIP3   OH223781   5.180   2.981  14.333  0.2912  0.6700  0.1641
  789TIP3    H123782   5.190   2.945  14.245  3.6829  1.4631  0.1887
  789TIP3    H223783   5.236   2.926  14.388 -1.5436  0.3865  1.8203
  790TIP3   OH223784   0.785   2.081  15.899  0.2063 -0.2277 -0.2446
  790TIP3    H123785   0.766   2.067  15.806  0.1029 -2.6631  0.0953
  790TIP3    H223786   0.704   2.057  15.944  0.0211  1.6359  0.4440
  791TIP3   OH223787   0.999   4.951  12.142  0.3188  0.1385 -0.3175
  791TIP3    H123788   1.072   4.967  12.202  1.3138  0.8579 -1.6805
  791TIP3    H223789   1.024   4.871  12.095 -0.9664 -1.0438  0.9631
  792TIP3   OH223790   2.458   6.326  14.451 -0.7964  0.6153  0.2074
  792TIP3    H123791   2.547   6.356  14.468 -0.9647  1.1128  0.2019
  792TIP3    H223792   2.431   6.285  14.534 -1.0106  1.5643  0.6141
  793TIP3   OH223793   6.635   4.068  13.418 -0.5961  0.0776  0.0710
  793TIP3    H123794   6.591   4.145  13.454 -0.2551 -0.3005  1.3334
  793TIP3    H223795   6.622   4.075  13.323 -1.8113  0.9153  0.2817
  794TIP3   OH223796   2.395   1.458   5.053 -0.1847 -0.2264 -0.2363
  794TIP3    H123797   2.397   1.454   5.149  2.4760 -2.1452 -0.3384
  794TIP3    H223798   2.329   1.394   5.028 -0.9987  0.3845  0.2732
  795TIP3   OH223799   2.642   0.991   1.417  1.0056  0.2525 -0.0060
  795TIP3    H123800   2.731   0.957   1.408  0.8362 -0.7653  1.8742
  795TIP3    H223801   2.585   0.917   1.399  0.5003  1.0915 -1.9574
  796TIP3   OH223802   4.598   3.711  16.700  0.7020 -0.0896 -0.2100
  796TIP3    H123803   4.647   3.740  16.623  0.2166  0.9623 -0.1282
  796TIP3    H223804   4.545   3.786  16.725  0.8280 -0.4367  1.1393
  797TIP3   OH223805   2.572   6.182  11.235  0.3971  0.2972 -0.2407
  797TIP3    H123806   2.617   6.162  11.317  0.4809 -1.0888 -0.6075
  797TIP3    H223807   2.617   6.258  11.200  0.9417  0.3451  0.5544
  798TIP3   OH223808   2.027   1.754   4.273  0.6755  0.2785  0.4781
  798TIP3    H123809   1.990   1.755   4.361 -0.8650  0.2807 -0.1495
  798TIP3    H223810   1.984   1.679   4.231 -0.6127  1.8498 -1.0862
  799TIP3   OH223811   4.494   3.802   5.540  0.0859  0.3080  0.0297
  799TIP3    H123812   4.424   3.815   5.604 -1.2930 -1.3358 -1.0941
  799TIP3    H223813   4.525   3.891   5.520 -0.7548  0.9593  1.5346
  800TIP3   OH223814   1.407   5.818   3.274 -0.2406  0.3801 -0.2269
  800TIP3    H123815   1.323   5.839   3.315 -0.7224  1.5610 -1.7776
  800TIP3    H223816   1.423   5.891   3.213  0.8416 -0.9232 -1.5406
  801TIP3   OH223817   4.140   0.775   3.879  0.0885 -0.1112 -0.4395
  801TIP3    H123818   4.123   0.869   3.875  0.0815 -0.0469  0.7912
  801TIP3    H223819   4.201   0.759   3.807  0.1447  0.8482 -0.6212
  802TIP3   OH223820   4.786   6.634  13.064  0.7691 -0.2954 -0.2385
  802TIP3    H123821   4.822   6.682  12.989  1.7041  0.3330  0.6151
  802TIP3    H223822   4.856   6.576  13.092  0.4883 -0.3927  0.2793
  803TIP3   OH223823   0.656   3.784  11.680 -0.3593  0.6457  0.0202
  803TIP3    H123824   0.714   3.790  11.756 -0.9525  1.6034  0.4097
  803TIP3    H223825   0.714   3.791  11.604  0.2401 -0.3509  0.3788
  804TIP3   OH223826   5.737   0.447  10.965 -0.2005  0.1650 -0.0434
  804TIP3    H123827   5.705   0.386  10.899  0.7756 -0.5578  0.1419
  804TIP3    H223828   5.682   0.431  11.042  0.8425 -1.3285  0.3946
  805TIP3   OH223829   5.309   6.306   0.722  0.1008  0.0571 -0.6163
  805TIP3    H123830   5.302   6.214   0.696 -1.2904 -0.2979  0.9230
  805TIP3    H223831   5.227   6.345   0.693  0.3869  0.6559 -0.6254
  806TIP3   OH223832   2.865   3.788  12.973 -0.4462 -0.0654  0.5412
  806TIP3    H123833   2.898   3.699  12.962  0.9126  0.3282  1.3530
  806TIP3    H223834   2.916   3.841  12.912 -2.3204 -0.0522 -1.0890
  807TIP3   OH223835   2.914   1.243   2.437  0.1617 -0.3073 -0.4563
  807TIP3    H123836   2.852   1.184   2.478 -0.2316  0.3441 -0.0974
  807TIP3    H223837   2.911   1.323   2.490  2.5123 -0.8256  0.5473
  808TIP3   OH223838   4.428   4.884  16.169 -0.3017 -0.3887 -0.1787
  808TIP3    H123839   4.520   4.859  16.165 -0.1997 -0.2716  1.1958
  808TIP3    H223840   4.381   4.812  16.127  0.4810 -0.0003 -1.7613
  809TIP3   OH223841   2.780   0.947  14.198 -0.0091 -0.0464  0.4021
  809TIP3    H123842   2.725   1.025  14.193 -1.2985 -0.9498  0.2434
  809TIP3    H223843   2.852   0.972  14.257 -1.7230  0.4827  2.3159
  810TIP3   OH223844   0.693   0.436   5.836 -0.1198  0.1247  0.3478
  810TIP3    H123845   0.712   0.460   5.927  3.5177  2.8051 -1.0031
  810TIP3    H223846   0.649   0.512   5.799 -0.2886 -0.3903 -0.5420
  811TIP3   OH223847   6.596   3.794  12.039 -0.2802  0.1204  0.2252
  811TIP3    H123848   6.566   3.799  11.948  0.7032 -2.4509 -0.2657
  811TIP3    H223849   6.692   3.801  12.033 -0.2213  0.1143  1.0790
  812TIP3   OH223850   1.288   2.867  12.182  0.3366 -0.1379 -0.0316
  812TIP3    H123851   1.378   2.885  12.209  0.7102 -2.2920  0.2816
  812TIP3    H223852   1.276   2.919  12.103  2.6889 -1.6528 -1.4570
  813TIP3   OH223853   5.901   2.993  11.184 -0.1438  0.2039 -0.3510
  813TIP3    H123854   5.957   2.937  11.130 -0.2420  0.9715 -1.2746
  813TIP3    H223855   5.817   2.994  11.137 -0.0361  1.3928 -0.5352
  814TIP3   OH223856   5.714   5.013  15.986 -0.2848  0.8432  0.3710
  814TIP3    H123857   5.690   5.080  15.922  1.9228  1.6136  0.2884
  814TIP3    H223858   5.761   5.061  16.055  0.7912 -0.5131  0.6182
  815TIP3   OH223859   5.140   4.102   0.005  0.0143  0.0708  0.0302
  815TIP3    H123860   5.124   4.050   0.083 -0.8628  0.7218  0.2904
  815TIP3    H223861   5.055   4.139  -0.018  0.4272  0.5702 -0.7428
  816TIP3   OH223862   3.466   2.649  12.234 -0.1842 -0.2763  0.0607
  816TIP3    H123863   3.527   2.578  12.212 -0.3936 -0.1642 -0.8824
  816TIP3    H223864   3.503   2.688  12.313  1.9122  0.9071 -1.4846
  817TIP3   OH223865   2.541   2.422   1.562  0.1349  0.1640 -0.0939
  817TIP3    H123866   2.565   2.499   1.613 -1.4177  0.8284 -0.3574
  817TIP3    H223867   2.568   2.443   1.473 -0.3499  0.4409 -0.1782
  818TIP3   OH223868   3.524   0.235   1.009 -0.0788 -0.0897 -0.9583
  818TIP3    H123869   3.517   0.157   0.955  1.4832 -0.6223 -0.4242
  818TIP3    H223870   3.610   0.271   0.988 -0.0375  0.4699  0.1402
  819TIP3   OH223871   4.360   1.928   5.718  0.0378  0.3344 -0.2518
  819TIP3    H123872   4.399   1.888   5.796  0.2896  0.3352 -0.3751
  819TIP3    H223873   4.289   1.982   5.752  1.0291  1.4353  0.1096
  820TIP3   OH223874   0.797   4.098   3.484  0.5091  0.3375 -0.6520
  820TIP3    H123875   0.881   4.057   3.466  1.5884  3.0948 -2.1641
  820TIP3    H223876   0.817   4.166   3.549 -0.9010 -0.1580  0.3422
  821TIP3   OH223877   6.165   6.127  13.525 -0.0687  0.5319 -0.1208
  821TIP3    H123878   6.145   6.166  13.610 -0.2263  1.7633 -0.7082
  821TIP3    H223879   6.105   6.053  13.517 -0.2558  0.5952  0.7103
  822TIP3   OH223880   3.844   0.596   3.184  0.2247  0.1701  0.0761
  822TIP3    H123881   3.783   0.643   3.127  0.6307 -0.7170 -1.0887
  822TIP3    H223882   3.871   0.519   3.134  1.9070  0.2711  0.7871
  823TIP3   OH223883   2.095   1.430  12.839 -0.1638  0.2779 -0.1029
  823TIP3    H123884   2.164   1.490  12.811  0.4321  0.0596  0.8545
  823TIP3    H223885   2.079   1.453  12.931  1.0115 -1.8646  0.6852
  824TIP3   OH223886   2.056   3.868  12.632 -0.2199 -0.8413 -0.0857
  824TIP3    H123887   2.095   3.879  12.719 -1.6738 -2.6231  0.8051
  824TIP3    H223888   2.126   3.831  12.579  0.8386  0.7471  0.1611
  825TIP3   OH223889   3.774   4.621  11.842 -0.3973  0.1882  0.0759
  825TIP3    H123890   3.707   4.592  11.903 -0.1029 -0.9829 -0.1505
  825TIP3    H223891   3.791   4.712  11.867 -1.5659  0.2792  0.5677
  826TIP3   OH223892   3.217   0.797  13.728  0.1055  0.1031  0.0084
  826TIP3    H123893   3.249   0.836  13.646  0.0515  0.2110  0.0391
  826TIP3    H223894   3.148   0.857  13.757  0.9504  0.7159  0.7645
  827TIP3   OH223895   3.498   2.561   2.641 -0.3255  0.4650  0.3873
  827TIP3    H123896   3.580   2.516   2.621  0.8802  2.3665  1.0449
  827TIP3    H223897   3.431   2.493   2.630  1.5328 -1.7250  2.1554
  828TIP3   OH223898   0.068   2.811   4.849  0.1640 -0.1716  0.4376
  828TIP3    H123899   0.121   2.887   4.826  0.2450  0.1879  1.8045
  828TIP3    H223900   0.051   2.820   4.942  0.5677 -2.0642  0.7321
  829TIP3   OH223901   0.559   2.484  16.719  0.1376  0.4814  0.2624
  829TIP3    H123902   0.463   2.485  16.719  0.1302  0.0147 -0.0770
  829TIP3    H223903   0.583   2.524  16.803 -0.3498  0.7632  0.2736
  830TIP3   OH223904   4.725   4.524   5.482  0.1997 -0.5567 -0.1643
  830TIP3    H123905   4.651   4.523   5.422  0.3951  2.3177 -0.4911
  830TIP3    H223906   4.743   4.617   5.498  2.3354 -1.2222  1.6340
  831TIP3   OH223907   1.474   6.148  16.547  0.9896  0.2744 -0.0855
  831TIP3    H123908   1.438   6.085  16.485 -0.0284  0.9766 -0.2065
  831TIP3    H223909   1.398   6.185  16.592  1.5913  1.2968  0.1013
  832TIP3   OH223910   6.158   0.786   4.646 -0.1778  0.8689  0.3951
  832TIP3    H123911   6.151   0.822   4.735 -1.4187  0.9702  0.2653
  832TIP3    H223912   6.070   0.754   4.626  0.2936  0.1035 -0.4921
  833TIP3   OH223913   3.230   3.804   0.362 -0.4757  0.1775  0.0482
  833TIP3    H123914   3.194   3.891   0.374 -0.8909 -0.0529  0.5086
  833TIP3    H223915   3.237   3.793   0.267 -0.7324  0.5837 -0.0154
  834TIP3   OH223916   4.838   2.369   4.476 -0.4675  0.3570  0.3254
  834TIP3    H123917   4.821   2.311   4.549  1.5454  1.5736  1.8171
  834TIP3    H223918   4.825   2.457   4.511  1.5459  0.9911 -0.4547
  835TIP3   OH223919   6.206   4.434  15.104 -0.1075 -0.1314 -0.1713
  835TIP3    H123920   6.291   4.390  15.100 -0.2393 -0.2897 -1.4946
  835TIP3    H223921   6.209   4.498  15.032 -1.6135 -1.0649 -1.0784
  836TIP3   OH223922   0.693   0.160   5.424 -0.1089 -0.1249 -0.1158
  836TIP3    H123923   0.617   0.127   5.375  1.2651 -1.4322 -1.4165
  836TIP3    H223924   0.703   0.250   5.394 -0.9595 -0.0521 -0.1892
  837TIP3   OH223925   3.593   2.605   2.231 -0.3752  0.0666 -0.5396
  837TIP3    H123926   3.584   2.554   2.151  0.3968 -0.6830 -0.1534
  837TIP3    H223927   3.504   2.612   2.265 -0.6697  0.1558 -1.3178
  838TIP3   OH223928   4.023   0.261   0.172 -0.1592 -0.4697  0.1394
  838TIP3    H123929   4.088   0.326   0.147 -1.5480  0.8077 -0.2637
  838TIP3    H223930   3.994   0.289   0.259  0.7698 -1.7842  0.8782
  839TIP3   OH223931   2.515   5.059  14.192 -0.3102  0.3128 -0.1492
  839TIP3    H123932   2.535   5.131  14.252  0.8363  1.3694 -1.7512
  839TIP3    H223933   2.431   5.082  14.154 -0.9626 -0.2796  0.8942
  840TIP3   OH223934   0.084   5.627  12.096  0.0037  0.2735  0.2339
  840TIP3    H123935   0.165   5.654  12.053  0.2005  0.5332  0.7696
  840TIP3    H223936   0.039   5.710  12.115  0.0212  0.1657  0.7385
  841TIP3   OH223937   5.375   2.220  16.418 -0.1216 -0.1505 -0.1746
  841TIP3    H123938   5.454   2.222  16.472  0.6906  1.0396 -1.3507
  841TIP3    H223939   5.339   2.308  16.425  0.2695  0.1659 -1.9330
  842TIP3   OH223940   4.653   1.524   2.938 -0.3217 -0.3086 -0.2111
  842TIP3    H123941   4.637   1.440   2.896  1.2241 -0.5309 -0.3891
  842TIP3    H223942   4.711   1.504   3.011 -1.1650  0.3974  0.6799
  843TIP3   OH223943   1.763   1.140   2.561  0.0359  0.0871 -0.3908
  843TIP3    H123944   1.851   1.176   2.561 -1.2755  3.4520 -1.6444
  843TIP3    H223945   1.732   1.150   2.651  0.1224  0.9977 -0.4637
  844TIP3   OH223946   2.766   2.198  10.765 -0.0959 -0.6124  0.1062
  844TIP3    H123947   2.696   2.150  10.720 -1.7453  0.7389  1.1721
  844TIP3    H223948   2.795   2.263  10.701 -2.4879  1.3513  0.9553
  845TIP3   OH223949   0.668   2.243  15.185 -0.1496  0.1842 -0.1997
  845TIP3    H123950   0.736   2.309  15.202 -0.7279  0.2419  2.0523
  845TIP3    H223951   0.586   2.289  15.202 -0.5653 -1.0716  1.3407
  846TIP3   OH223952   5.479   5.908   0.737  0.2139  0.2067  0.4407
  846TIP3    H123953   5.480   5.929   0.643  0.5463  0.3328  0.4694
  846TIP3    H223954   5.387   5.918   0.763  0.4549  2.3001  0.5891
  847TIP3   OH223955   4.661   4.674  12.311  0.2697 -0.6898 -0.3254
  847TIP3    H123956   4.661   4.579  12.320 -1.4349 -0.6986 -0.1633
  847TIP3    H223957   4.626   4.690  12.223  0.1276 -0.2010 -0.1806
  848TIP3   OH223958   1.421   2.607   3.049 -0.3352 -0.3756  0.0053
  848TIP3    H123959   1.412   2.602   3.145 -1.5064  1.0626 -0.0031
  848TIP3    H223960   1.466   2.690   3.035  0.9542 -1.1781 -0.6432
  849TIP3   OH223961   3.323   5.389  12.414 -0.3637 -0.0662 -0.5051
  849TIP3    H123962   3.335   5.368  12.506 -2.6216 -0.1636 -0.2131
  849TIP3    H223963   3.275   5.472  12.414 -2.3303 -1.1784 -1.5637
  850TIP3   OH223964   0.883   3.995  14.981  0.0507  0.1752 -0.4586
  850TIP3    H123965   0.913   3.933  14.914 -2.1994  1.1806 -2.4668
  850TIP3    H223966   0.788   3.981  14.986  0.0262  0.9620  1.6764
  851TIP3   OH223967   4.400   1.010   6.102 -0.6381  0.5077  0.3086
  851TIP3    H123968   4.380   0.933   6.048  0.2622 -0.5729  1.4847
  851TIP3    H223969   4.361   0.990   6.187 -0.0031  1.1483  0.7539
  852TIP3   OH223970   2.423   3.548  14.599  0.5140  0.0753 -0.2867
  852TIP3    H123971   2.368   3.549  14.520 -0.5244  0.6705  0.4269
  852TIP3    H223972   2.363   3.569  14.670  1.0503 -2.3185  0.9318
  853TIP3   OH223973   4.214   1.748  12.503 -0.6068 -0.1485 -0.3382
  853TIP3    H123974   4.264   1.684  12.452  0.3361 -0.5548  1.0578
  853TIP3    H223975   4.281   1.794  12.555 -1.2447  2.0948 -1.4358
  854TIP3   OH223976   0.672   4.664  11.344 -0.1721 -0.2899 -0.1838
  854TIP3    H123977   0.704   4.577  11.319  0.7760 -0.0209  0.1012
  854TIP3    H223978   0.722   4.725  11.290 -0.2249  0.1316  0.2415
  855TIP3   OH223979   0.555   0.365   3.765 -0.2959  0.0392  0.4662
  855TIP3    H123980   0.520   0.454   3.766  0.2176  0.2809 -1.2608
  855TIP3    H223981   0.489   0.314   3.719 -0.4546 -0.4014  1.1957
  856TIP3   OH223982   6.245   0.915  14.167  0.0461  0.6672 -0.1446
  856TIP3    H123983   6.239   0.866  14.249 -0.7187  3.6965  1.6862
  856TIP3    H223984   6.155   0.945  14.150  0.2598  0.3580 -1.9294
  857TIP3   OH223985   6.054   1.384   0.412  0.0650 -0.4757 -0.0945
  857TIP3    H123986   6.147   1.401   0.396 -0.1764  1.5177  0.4963
  857TIP3    H223987   6.049   1.363   0.505  0.0784 -1.8514 -0.3927
  858TIP3   OH223988   0.186   2.281  15.663 -0.1507  0.0653  0.0680
  858TIP3    H123989   0.098   2.296  15.698  0.3330 -0.1899  1.4128
  858TIP3    H223990   0.218   2.205  15.711  0.1091 -0.9742 -1.7216
  859TIP3   OH223991   6.404   2.717  16.986 -0.1816 -0.2767  0.2281
  859TIP3    H123992   6.389   2.632  17.027 -0.6431  0.5197  1.7487
  859TIP3    H223993   6.357   2.712  16.903 -1.0399 -1.1516  0.7585
  860TIP3   OH223994   2.378   3.021   1.434 -0.0982  0.2600 -0.0856
  860TIP3    H123995   2.352   3.005   1.524  0.0929  0.4186 -0.0032
  860TIP3    H223996   2.456   2.967   1.421  1.3638  2.1416  0.6093
  861TIP3   OH223997   4.637   5.164   5.502 -0.4149 -0.1290 -0.0865
  861TIP3    H123998   4.544   5.184   5.510 -0.4117 -0.0123 -0.3382
  861TIP3    H223999   4.663   5.135   5.590 -0.2085  1.7940  0.5147
  862TIP3   OH224000   3.331   6.210   3.145  0.1915  0.0006  1.0329
  862TIP3    H124001   3.424   6.221   3.127 -0.2197  0.6127 -0.8875
  862TIP3    H224002   3.295   6.299   3.137 -0.5582 -0.2281  1.7737
  863TIP3   OH224003   2.768   5.830   0.933 -0.1306  0.5744 -0.3175
  863TIP3    H124004   2.818   5.750   0.920  1.1588  1.7704 -2.9654
  863TIP3    H224005   2.833   5.897   0.952 -0.8310  1.8000 -2.0689
  864TIP3   OH224006   0.573   5.515  16.057  0.1465 -0.4477 -0.4564
  864TIP3    H124007   0.588   5.438  16.112 -0.9452 -0.6983 -0.5009
  864TIP3    H224008   0.479   5.532  16.065  0.1082 -0.0483 -1.6593
  865TIP3   OH224009   4.051   2.851   2.152 -1.5413 -0.7305 -0.2921
  865TIP3    H124010   3.975   2.839   2.095 -1.5100  0.8778 -0.7108
  865TIP3    H224011   4.118   2.887   2.094 -0.9931 -0.5800  0.4286
  866TIP3   OH224012   2.139   4.419  12.828 -0.4158  0.2852 -0.1759
  866TIP3    H124013   2.147   4.510  12.800 -0.5322  0.5966  0.8009
  866TIP3    H224014   2.173   4.418  12.917 -0.3117 -0.6503 -0.2216
  867TIP3   OH224015   0.747   5.142   0.828 -0.3568 -0.3653  0.5201
  867TIP3    H124016   0.675   5.129   0.890 -1.3729  0.0467 -0.5708
  867TIP3    H224017   0.778   5.231   0.845 -0.8117 -0.1565  0.2477
  868TIP3   OH224018   1.228   6.763   3.260  0.0882  0.5404 -0.0259
  868TIP3    H124019   1.145   6.764   3.308  0.5384  1.9736  0.7510
  868TIP3    H224020   1.282   6.830   3.303  1.5802 -0.2387 -0.6485
  869TIP3   OH224021   3.103   1.635   4.284  0.4137 -0.4779 -0.7189
  869TIP3    H124022   3.189   1.677   4.284  0.1816  0.0197  0.5038
  869TIP3    H224023   3.044   1.702   4.319 -0.1518 -1.4248  0.1665
  870TIP3   OH224024   0.334   6.102  15.520 -0.2149  0.5804  0.1500
  870TIP3    H124025   0.251   6.141  15.491  0.1320  1.0700 -0.1961
  870TIP3    H224026   0.371   6.166  15.581  1.1362  1.5610 -1.6599
  871TIP3   OH224027   1.845   5.735  13.285 -0.2859 -0.8563 -0.5262
  871TIP3    H124028   1.873   5.644  13.277 -0.7958 -1.0055 -0.6400
  871TIP3    H224029   1.833   5.764  13.194 -0.9309 -0.9328 -0.4703
  872TIP3   OH224030   4.320   3.181   1.623  0.2299  0.7723 -0.0599
  872TIP3    H124031   4.265   3.184   1.545 -1.9935  1.5566  1.4868
  872TIP3    H224032   4.307   3.093   1.659 -1.1679  1.4187  1.0742
  873TIP3   OH224033   6.547   1.149  13.370 -0.2118 -0.0958 -0.3114
  873TIP3    H124034   6.636   1.119  13.351 -0.6143 -0.2466 -2.0849
  873TIP3    H224035   6.557   1.210  13.443  1.2499 -0.7119  0.0113
  874TIP3   OH224036   0.203   2.378  14.625 -0.6079 -0.0551 -0.1154
  874TIP3    H124037   0.182   2.373  14.532 -2.6349 -0.7003  0.3304
  874TIP3    H224038   0.226   2.469  14.640  0.3522 -0.0829 -1.3638
  875TIP3   OH224039   2.828   3.906   2.520 -0.3293  0.0222 -0.2615
  875TIP3    H124040   2.817   3.853   2.441 -1.0597 -1.0048  0.5086
  875TIP3    H224041   2.757   3.877   2.578  0.3700  0.5564  0.8780
  876TIP3   OH224042   2.761   3.284   5.859  0.2598  0.3783  0.1501
  876TIP3    H124043   2.799   3.336   5.788 -0.1348  0.9045  0.3134
  876TIP3    H224044   2.784   3.331   5.939  0.4941 -0.0793  0.3517
  877TIP3   OH224045   2.239   3.477   4.200  0.0366  0.1817 -0.2281
  877TIP3    H124046   2.272   3.541   4.262 -0.7713 -0.2052  0.6192
  877TIP3    H224047   2.152   3.454   4.233  0.3335 -1.3772 -0.4876
  878TIP3   OH224048   3.839   4.924  12.369 -0.0534 -0.0062  0.2270
  878TIP3    H124049   3.864   4.842  12.412 -0.8311 -1.4494 -1.9337
  878TIP3    H224050   3.748   4.910  12.342  0.7092  0.3526 -2.7630
  879TIP3   OH224051   1.413   0.905  15.037  0.0557 -0.3689  0.1087
  879TIP3    H124052   1.427   0.992  15.074  0.4131 -0.9834  1.4228
  879TIP3    H224053   1.400   0.921  14.943  1.8330  0.9361  0.0654
  880TIP3   OH224054   1.277   4.754  13.536 -0.3714  1.0299  0.5583
  880TIP3    H124055   1.263   4.800  13.453  0.0948  0.4908  0.1773
  880TIP3    H224056   1.368   4.727  13.534 -0.1699  1.5822  1.5424
  881TIP3   OH224057   4.733   2.023   2.299  0.2805 -0.2900 -0.1134
  881TIP3    H124058   4.798   2.046   2.365  0.6326  0.1774 -0.6162
  881TIP3    H224059   4.772   1.950   2.251  0.0468 -0.5967  0.1617
  882TIP3   OH224060   5.782   2.969   6.059  0.2672 -0.5156 -0.2159
  882TIP3    H124061   5.856   2.913   6.083 -0.4636 -0.9089  1.1753
  882TIP3    H224062   5.711   2.942   6.117 -1.1357 -0.4779 -1.8842
  883TIP3   OH224063   1.000   1.932  15.828  0.2732 -0.3165 -0.3417
  883TIP3    H124064   0.916   1.968  15.857  0.6555 -0.1231  0.5566
  883TIP3    H224065   0.984   1.838  15.818  0.4021 -0.5619  1.5668
  884TIP3   OH224066   6.105   1.687  13.596  0.0451 -0.1003 -0.0115
  884TIP3    H124067   6.080   1.596  13.614 -1.2991  0.2230 -0.2717
  884TIP3    H224068   6.161   1.711  13.670 -1.4273 -0.4102  1.2199
  885TIP3   OH224069   1.220   3.057   1.429 -0.5124 -0.2951 -0.1088
  885TIP3    H124070   1.276   3.053   1.506 -0.2839 -1.4746 -0.3299
  885TIP3    H224071   1.280   3.071   1.356 -0.7650  1.2734 -0.0452
  886TIP3   OH224072   4.501   1.552  10.338  0.0671  0.2883  0.5144
  886TIP3    H124073   4.591   1.543  10.308 -0.0337  0.4388  0.1670
  886TIP3    H224074   4.487   1.475  10.393  0.7265  0.7905  1.3949
  887TIP3   OH224075   4.356   6.684   2.621 -0.3680  0.2263 -0.2619
  887TIP3    H124076   4.392   6.773   2.616  1.1347 -0.4027 -1.0253
  887TIP3    H224077   4.408   6.641   2.689 -1.2212 -0.0231  0.2391
  888TIP3   OH224078   2.316   4.504  16.178 -0.2146 -0.4993  0.1435
  888TIP3    H124079   2.245   4.448  16.208 -0.8529  0.5959  0.6961
  888TIP3    H224080   2.273   4.587  16.154  0.7895 -0.0402 -0.0866
  889TIP3   OH224081   5.856   4.305   3.669 -0.3271 -0.2785  0.6001
  889TIP3    H124082   5.883   4.346   3.752 -0.2810  0.1722  0.3657
  889TIP3    H224083   5.788   4.243   3.694  0.2855 -0.7695  1.0878
  890TIP3   OH224084   3.423   5.130  10.933 -0.0388 -0.3942 -0.2590
  890TIP3    H124085   3.360   5.189  10.890 -0.1981  1.0626  1.8692
  890TIP3    H224086   3.369   5.072  10.986  0.2500 -1.0626 -0.6934
  891TIP3   OH224087   2.911   0.251  13.092  0.3157 -0.2283  0.3254
  891TIP3    H124088   2.834   0.238  13.036  0.7437  3.3699 -1.1997
  891TIP3    H224089   2.983   0.212  13.043  0.0736 -0.4603  0.1516
  892TIP3   OH224090   3.885   4.840   3.320 -0.3991  0.3504 -0.0394
  892TIP3    H124091   3.887   4.919   3.374  0.2996  0.8343 -0.7569
  892TIP3    H224092   3.883   4.768   3.382  1.3056  0.8812  0.6423
  893TIP3   OH224093   1.568   5.995   1.038 -0.1425 -0.1496  0.0600
  893TIP3    H124094   1.532   5.929   0.978 -0.4293 -1.7071  1.8732
  893TIP3    H224095   1.491   6.036   1.078  0.0529  0.3780 -0.1039
  894TIP3   OH224096   2.123   6.760  17.069 -0.0561 -0.7993 -0.3787
  894TIP3    H124097   2.079   6.741  16.985 -0.1654  0.4405 -0.6134
  894TIP3    H224098   2.190   6.824  17.046  1.6765 -2.4458  0.0396
  895TIP3   OH224099   2.091   2.359   4.434 -0.1802 -0.0356  0.3717
  895TIP3    H124100   2.092   2.267   4.462  1.0245 -0.6211 -1.4716
  895TIP3    H224101   2.050   2.406   4.506 -2.1409 -2.2300  0.7383
  896TIP3   OH224102   4.284   4.792  14.057 -0.5330 -1.0750  0.5196
  896TIP3    H124103   4.303   4.824  13.969 -1.3231  0.8529  1.0286
  896TIP3    H224104   4.346   4.838  14.114  1.2954 -3.7457  0.8012
  897TIP3   OH224105   6.108   6.337   3.848  0.0198  0.0289  0.5255
  897TIP3    H124106   6.027   6.331   3.798  0.4058 -2.9493  0.1797
  897TIP3    H224107   6.080   6.367   3.935 -1.7089 -2.5015  0.9042
  898TIP3   OH224108   6.247   3.297  15.333  0.2252  0.4334 -0.2215
  898TIP3    H124109   6.170   3.338  15.293  1.1002  0.7915 -1.5708
  898TIP3    H224110   6.234   3.203  15.320  0.7026  0.5607 -1.7777
  899TIP3   OH224111   4.139   0.884   4.642  0.2119  0.3085  0.2019
  899TIP3    H124112   4.052   0.923   4.644  0.0999  0.1821 -1.6358
  899TIP3    H224113   4.138   0.825   4.567  1.1223 -1.5030  1.5495
  900TIP3   OH224114   5.367   4.753   1.509  0.4969 -0.5918  0.3220
  900TIP3    H124115   5.399   4.726   1.596 -0.2975 -3.2451 -0.1433
  900TIP3    H224116   5.275   4.725   1.509 -0.5943  2.8186 -0.0158
  901TIP3   OH224117   4.148   3.808  16.240 -0.3232 -0.0035 -0.2810
  901TIP3    H124118   4.202   3.818  16.318  0.5687 -0.0534 -0.8795
  901TIP3    H224119   4.093   3.732  16.258 -0.4016  0.2267  0.4537
  902TIP3   OH224120   2.207   2.615   2.467 -0.4035 -0.0074 -0.1945
  902TIP3    H124121   2.284   2.562   2.447  0.3726  0.8996  0.3407
  902TIP3    H224122   2.201   2.614   2.563 -1.1749 -0.2404 -0.2440
  903TIP3   OH224123   6.257   2.002  13.151 -0.1244  0.1714 -0.3838
  903TIP3    H124124   6.301   1.917  13.149 -1.5055 -0.5793  0.1082
  903TIP3    H224125   6.293   2.050  13.076  1.5075 -0.4119  0.0161
  904TIP3   OH224126   0.912   1.396   6.135  0.4799  0.1768  0.4193
  904TIP3    H124127   0.853   1.324   6.113  0.3873  0.4478 -0.2419
  904TIP3    H224128   0.860   1.453   6.192 -0.1793  0.8179 -0.7850
  905TIP3   OH224129   2.563   4.561  13.418 -0.4683  0.0622 -0.1689
  905TIP3    H124130   2.592   4.545  13.508 -0.0120  0.9334 -0.1531
  905TIP3    H224131   2.486   4.616  13.427 -0.9059 -0.5200 -0.2912
  906TIP3   OH224132   6.506   3.424  16.668  0.2919 -0.1470 -0.2780
  906TIP3    H124133   6.583   3.467  16.631  0.7271 -0.4047  0.3178
  906TIP3    H224134   6.540   3.341  16.703  0.2635  0.8859  2.3482
  907TIP3   OH224135   4.671   3.173   4.742  0.4364  1.1968  0.0246
  907TIP3    H124136   4.614   3.203   4.813 -0.9916  0.4294 -0.7756
  907TIP3    H224137   4.759   3.172   4.780 -0.2724  1.0820  1.6934
  908TIP3   OH224138   4.681   6.231   5.128  0.2676  0.0328  0.4074
  908TIP3    H124139   4.688   6.256   5.220  0.8753  0.4401  0.2568
  908TIP3    H224140   4.591   6.198   5.119 -1.3334  4.1395  0.1782
  909TIP3   OH224141   2.213   6.058   3.550  0.6711 -0.3115 -0.6963
  909TIP3    H124142   2.221   5.985   3.612  0.6603  0.5049  0.2848
  909TIP3    H224143   2.162   6.123   3.598  3.1068  1.4926 -0.4793
  910TIP3   OH224144   2.712   6.308   1.662  0.5618 -0.3780  0.1021
  910TIP3    H124145   2.806   6.293   1.666  0.3268 -1.7465  0.7998
  910TIP3    H224146   2.685   6.271   1.578  0.5450 -0.6779  0.2359
  911TIP3   OH224147   0.437   4.461   6.092 -0.9744  0.1702  0.6275
  911TIP3    H124148   0.388   4.540   6.068 -0.8371 -0.2241 -1.0010
  911TIP3    H224149   0.406   4.394   6.032  2.5084  0.2631 -1.3748
  912TIP3   OH224150   5.874   5.085   4.483  0.0737  0.6196 -0.3697
  912TIP3    H124151   5.967   5.086   4.506 -0.0147  0.2467  0.0004
  912TIP3    H224152   5.859   5.170   4.440  0.8840  0.1474 -1.6234
  913TIP3   OH224153   6.080   6.361   6.553 -0.3951  0.0465 -0.9275
  913TIP3    H124154   5.996   6.315   6.545  0.0064 -0.9312  0.2576
  913TIP3    H224155   6.060   6.452   6.532 -1.5143 -0.4041 -1.8434
  914TIP3   OH224156   3.193   5.050   4.167 -0.2572 -0.1134 -0.0768
  914TIP3    H124157   3.155   4.990   4.102 -0.7747 -0.1375  0.2493
  914TIP3    H224158   3.252   4.995   4.218  0.6901  0.0551 -0.9786
  915TIP3   OH224159   2.839   3.045   3.057 -0.2942 -0.9148  0.2797
  915TIP3    H124160   2.806   3.071   3.143 -1.7146  0.2035 -0.5733
  915TIP3    H224161   2.907   3.109   3.036  0.0910 -1.2219  0.5968
  916TIP3   OH224162   4.237   4.074  15.457 -0.3397 -0.3958 -0.3037
  916TIP3    H124163   4.318   4.043  15.496 -0.2202 -0.3871 -0.5430
  916TIP3    H224164   4.171   4.010  15.484 -0.6417  0.6418  1.5104
  917TIP3   OH224165   2.999   2.420  14.202 -0.7935  0.1974  0.0973
  917TIP3    H124166   2.973   2.487  14.139 -0.1654  0.5311  0.1838
  917TIP3    H224167   2.983   2.337  14.157  0.1960  0.4449 -0.7402
  918TIP3   OH224168   1.426   5.078   0.363 -0.3147  0.2160 -0.3740
  918TIP3    H124169   1.334   5.102   0.357 -0.4822  0.2305  1.9272
  918TIP3    H224170   1.436   5.004   0.303 -1.3376  1.4879 -2.1942
  919TIP3   OH224171   4.370   2.200   1.879  0.1836  0.5890 -0.0161
  919TIP3    H124172   4.372   2.176   1.972 -0.2042 -0.8101 -0.3588
  919TIP3    H224173   4.284   2.241   1.867  0.4031  1.1513  0.3359
  920TIP3   OH224174   0.321   1.530  12.100  0.0569 -0.0342 -0.0994
  920TIP3    H124175   0.250   1.498  12.043 -0.2469 -1.1405  0.8876
  920TIP3    H224176   0.363   1.600  12.049 -0.8137 -0.3709 -1.2945
  921TIP3   OH224177   3.468   2.066  14.597  0.5825 -0.0837 -0.2545
  921TIP3    H124178   3.511   1.982  14.613 -1.9390 -1.5789 -1.1601
  921TIP3    H224179   3.471   2.111  14.681 -1.4834 -2.7079  1.2935
  922TIP3   OH224180   2.007   1.887  12.034  0.3698  0.1695 -0.2017
  922TIP3    H124181   2.032   1.822  11.968  0.2420  0.4134 -0.4905
  922TIP3    H224182   2.059   1.864  12.111  0.1320 -0.4337 -0.2195
  923TIP3   OH224183   6.710   4.305  10.618  0.1706  0.2513 -0.3643
  923TIP3    H124184   6.646   4.258  10.672 -0.2885  1.6232  0.2903
  923TIP3    H224185   6.657   4.347  10.550  0.2512  2.0684  0.6604
  924TIP3   OH224186   5.303   5.397   2.503  0.9172  0.1282 -0.4672
  924TIP3    H124187   5.385   5.349   2.496  0.8217 -0.0648 -0.2858
  924TIP3    H224188   5.317   5.459   2.574  0.4776 -0.7888  0.4499
  925TIP3   OH224189   4.348   4.609  16.361  0.3954 -0.0696 -0.0137
  925TIP3    H124190   4.263   4.568  16.375 -0.3615  1.4200 -0.1540
  925TIP3    H224191   4.405   4.537  16.335 -0.8844 -1.0435 -0.1852
  926TIP3   OH224192   6.580   4.673  16.487 -0.0428 -0.2054 -1.2914
  926TIP3    H124193   6.522   4.597  16.496 -0.5501  0.4180  1.0870
  926TIP3    H224194   6.560   4.708  16.400 -3.0357 -0.2246 -0.6968
  927TIP3   OH224195   4.675   4.370  14.997  0.2433  0.6294 -0.0096
  927TIP3    H124196   4.669   4.381  15.091  0.6160 -0.3343  0.1358
  927TIP3    H224197   4.640   4.451  14.960  0.9404  1.3843  0.9649
  928TIP3   OH224198   0.069   0.711   0.421 -0.2640  0.2793 -0.0290
  928TIP3    H124199  -0.018   0.691   0.456 -0.7560  0.5710 -1.0467
  928TIP3    H224200   0.110   0.625   0.409  0.0290  0.2012  1.5354
  929TIP3   OH224201   6.159   6.111   5.348 -0.1309 -0.2032  0.5516
  929TIP3    H124202   6.185   6.140   5.436 -0.2775  0.3988  0.3949
  929TIP3    H224203   6.065   6.126   5.344 -0.0628  0.1268  0.1532
  930TIP3   OH224204   4.269   5.620  11.521 -0.3615 -0.4384  0.2740
  930TIP3    H124205   4.219   5.573  11.455  0.3305  0.1262 -0.6626
  930TIP3    H224206   4.342   5.562  11.543 -0.3275 -0.4252  0.1979
  931TIP3   OH224207   2.585   4.125  11.468  0.4233  0.1033 -1.0644
  931TIP3    H124208   2.563   4.061  11.400  1.4545 -0.6503 -0.7000
  931TIP3    H224209   2.609   4.204  11.419 -0.8048  0.2023 -1.5154
  932TIP3   OH224210   3.522   6.782   3.110 -0.7178 -0.1899 -0.0308
  932TIP3    H124211   3.545   6.874   3.096 -1.9618 -0.1043 -1.8351
  932TIP3    H224212   3.432   6.776   3.076 -0.8245 -1.9446  0.5726
  933TIP3   OH224213   4.486   6.542  11.950 -0.4519 -0.8447 -0.5855
  933TIP3    H124214   4.517   6.611  11.891  0.9874  0.1911  1.3390
  933TIP3    H224215   4.543   6.467  11.930  1.5441  0.2062  1.0253
  934TIP3   OH224216   2.519   2.781   4.899 -0.2791 -0.9703  0.5761
  934TIP3    H124217   2.612   2.761   4.908 -0.2477 -0.1768  2.1956
  934TIP3    H224218   2.501   2.842   4.971 -1.7745 -0.1729 -0.4548
  935TIP3   OH224219   5.877   2.071   3.787 -0.3896 -0.0236 -0.0796
  935TIP3    H124220   5.967   2.102   3.801  0.3912 -2.2288 -0.0680
  935TIP3    H224221   5.833   2.086   3.871  0.8771 -1.8691  0.9411
  936TIP3   OH224222   6.766   1.424   0.124  0.9756 -0.0815  0.2613
  936TIP3    H124223   6.799   1.477   0.051 -1.4390  0.9566 -0.1198
  936TIP3    H224224   6.799   1.469   0.203  1.4783  0.2415 -0.1278
  937TIP3   OH224225   1.877   0.842  14.846  0.0552 -0.4110 -0.6989
  937TIP3    H124226   1.965   0.807  14.826 -0.3158 -0.0069 -3.1325
  937TIP3    H224227   1.836   0.773  14.899  1.4869 -1.0357 -0.3732
  938TIP3   OH224228   1.409   1.175   0.493  0.1638 -0.1576  0.2529
  938TIP3    H124229   1.453   1.253   0.529  0.7403  0.3127 -1.3876
  938TIP3    H224230   1.374   1.205   0.409  0.9192 -1.8314 -0.6771
  939TIP3   OH224231   4.675   6.769  12.158  0.8119  0.5095  0.2282
  939TIP3    H124232   4.691   6.864  12.161  0.6177  0.5563 -0.1428
  939TIP3    H224233   4.708   6.736  12.241  0.3302  0.9897  0.6108
  940TIP3   OH224234   5.648   1.373  16.861  0.1718  0.5505  0.3610
  940TIP3    H124235   5.558   1.394  16.837 -0.8629 -2.0414  1.7975
  940TIP3    H224236   5.658   1.281  16.837  2.6053  0.9447 -0.2095
  941TIP3   OH224237   5.469   4.258  13.323 -0.4578  0.7831 -0.2588
  941TIP3    H124238   5.394   4.301  13.282  1.0496  3.0394 -0.7473
  941TIP3    H224239   5.504   4.201  13.254 -0.3690  1.4594 -0.7773
  942TIP3   OH224240   3.184   3.671  13.261  0.1023 -0.3841 -0.5949
  942TIP3    H124241   3.272   3.656  13.295  0.6907  1.8762 -1.0340
  942TIP3    H224242   3.147   3.583  13.250  1.8823 -1.3152  0.6595
  943TIP3   OH224243   2.581   5.538   2.275 -0.9428 -0.3321  0.4313
  943TIP3    H124244   2.605   5.586   2.195  0.4840  0.4255  1.2884
  943TIP3    H224245   2.515   5.475   2.246  1.1866 -1.6349 -1.7919
  944TIP3   OH224246   4.278   2.020   2.842 -0.0983  0.5261 -0.4115
  944TIP3    H124247   4.257   1.996   2.932 -2.2409  2.7484 -0.2738
  944TIP3    H224248   4.312   2.109   2.847  0.5002  0.3876 -1.7155
  945TIP3   OH224249   1.584   6.475  17.043  0.2134 -0.3132  0.4630
  945TIP3    H124250   1.581   6.381  17.056 -1.4095 -0.2951  0.3058
  945TIP3    H224251   1.647   6.506  17.108  1.1618 -1.5532  0.1547
  946TIP3   OH224252   5.237   3.549  12.161  0.6230  0.3434  0.3348
  946TIP3    H124253   5.195   3.633  12.180 -0.9218 -0.0634 -1.1517
  946TIP3    H224254   5.164   3.488  12.153  1.4300 -0.2269 -3.0762
  947TIP3   OH224255   4.960   3.816  14.321  0.0880 -0.2465 -0.3607
  947TIP3    H124256   4.972   3.885  14.386 -2.4506  0.3326 -0.4228
  947TIP3    H224257   5.025   3.833  14.254 -1.1270  2.7283 -0.8674
  948TIP3   OH224258   0.115   4.738  12.197 -0.0775 -0.2551 -0.3972
  948TIP3    H124259   0.149   4.827  12.199  0.4200 -0.4784  1.4000
  948TIP3    H224260   0.179   4.689  12.145  1.0435 -0.1210  0.8337
  949TIP3   OH224261   3.087   1.931   2.190  0.3761 -0.3410  0.0852
  949TIP3    H124262   3.057   1.845   2.219 -1.3358 -0.2620 -1.4371
  949TIP3    H224263   3.133   1.914   2.108  0.2672  0.1628 -0.0791
  950TIP3   OH224264   2.889   6.570  11.356 -0.6645 -0.3382 -0.0773
  950TIP3    H124265   2.796   6.593  11.359  0.0124  2.6432  0.3682
  950TIP3    H224266   2.918   6.574  11.447 -0.1178 -1.3151 -0.2058
  951TIP3   OH224267   3.490   0.732   5.586 -0.2538 -0.0201 -0.3556
  951TIP3    H124268   3.457   0.642   5.588 -0.4706  0.0765  0.4815
  951TIP3    H224269   3.576   0.725   5.544 -0.1962 -0.6449 -0.1435
  952TIP3   OH224270   0.100   4.879   3.822  0.4758  0.2576  0.8515
  952TIP3    H124271   0.127   4.929   3.744 -1.0192 -2.1774 -1.2990
  952TIP3    H224272   0.181   4.864   3.870  1.6082  0.7913 -0.8470
  953TIP3   OH224273   4.020   5.728   4.899 -0.6015  0.3981 -0.0633
  953TIP3    H124274   3.957   5.799   4.906 -2.6117 -0.8850 -3.5902
  953TIP3    H224275   4.008   5.678   4.980 -3.1725  0.9787 -0.0183
  954TIP3   OH224276   4.329   6.525  14.877 -0.1013  0.0669  0.1891
  954TIP3    H124277   4.340   6.545  14.784 -0.7921 -1.4751 -0.2489
  954TIP3    H224278   4.235   6.511  14.888  0.0547 -0.4553  0.9629
  955TIP3   OH224279   4.380   6.198   0.346  0.2554  0.0767  0.1537
  955TIP3    H124280   4.456   6.254   0.355  1.4027 -1.0385 -2.1502
  955TIP3    H224281   4.317   6.250   0.296  0.1167  0.4036  0.6627
  956TIP3   OH224282   1.782   4.997  13.818  0.4464 -0.0067 -0.5030
  956TIP3    H124283   1.779   4.902  13.829 -2.2698  0.0273 -0.4847
  956TIP3    H224284   1.731   5.013  13.739  1.1821  1.4168 -0.6948
  957TIP3   OH224285   6.548   1.917  12.008 -0.1785  0.1248 -0.1705
  957TIP3    H124286   6.610   1.886  11.942  0.1080 -1.4678  0.8430
  957TIP3    H224287   6.480   1.962  11.957  1.6727  1.7253 -1.2956
  958TIP3   OH224288   2.458   1.935   1.894  0.8285 -0.5088 -0.0605
  958TIP3    H124289   2.541   1.948   1.848 -0.2746  0.2941 -1.8541
  958TIP3    H224290   2.452   1.840   1.904  2.3076 -0.5416  0.7798
  959TIP3   OH224291   6.037   2.226  12.940  0.5933 -0.3578  0.1179
  959TIP3    H124292   6.114   2.279  12.959 -0.4738  1.1116  0.3930
  959TIP3    H224293   5.979   2.283  12.889 -1.0786 -0.8417  1.4067
  960TIP3   OH224294   5.228   2.662   3.405 -0.4425  0.5151  0.7078
  960TIP3    H124295   5.138   2.687   3.385 -1.4592 -2.2059  1.5765
  960TIP3    H224296   5.257   2.612   3.328 -0.0219  0.5720  0.8262
  961TIP3   OH224297   6.195   3.076  15.883 -0.5148  1.3422  0.5811
  961TIP3    H124298   6.200   3.056  15.976  0.1401  1.0683  0.4889
  961TIP3    H224299   6.284   3.102  15.859  0.4017 -2.7347 -0.9067
  962TIP3   OH224300   5.168   3.311   0.427 -0.3964  0.4390  0.1010
  962TIP3    H124301   5.196   3.364   0.353  1.7447  0.4237  0.8680
  962TIP3    H224302   5.145   3.374   0.495 -0.7242  0.4362 -0.0100
  963TIP3   OH224303   3.788   4.369  11.742 -0.2227 -0.0332  0.5879
  963TIP3    H124304   3.851   4.362  11.670 -0.4708 -1.7586  0.5425
  963TIP3    H224305   3.781   4.464  11.757  1.2070  0.2605 -0.4328
  964TIP3   OH224306   5.280   3.464   0.967  0.2027 -0.2478  0.3230
  964TIP3    H124307   5.273   3.400   1.038 -0.3628  0.4622  0.9173
  964TIP3    H224308   5.218   3.533   0.991  1.9429  1.3066  0.5360
  965TIP3   OH224309   2.939   6.170   2.250 -0.3685  0.4142  0.2894
  965TIP3    H124310   2.995   6.217   2.189 -0.9411  1.4561  0.5517
  965TIP3    H224311   2.988   6.090   2.270  1.2380  1.4919  0.8480
  966TIP3   OH224312   1.984   5.315   4.234  0.3702 -0.0189  0.2292
  966TIP3    H124313   1.925   5.388   4.250  1.3610  1.0316 -0.7749
  966TIP3    H224314   2.060   5.355   4.192  0.9048 -1.6340 -0.3752
  967TIP3   OH224315   0.797   4.161  12.616 -0.1002  0.5063  0.1045
  967TIP3    H124316   0.817   4.086  12.672 -1.0076  0.2105  0.0376
  967TIP3    H224317   0.824   4.237  12.668  1.2293  0.1323 -0.0006
  968TIP3   OH224318   0.102   6.109   2.697  0.0462 -0.6247  0.1149
  968TIP3    H124319   0.088   6.198   2.730 -0.4633 -0.4979 -0.4444
  968TIP3    H224320   0.060   6.053   2.762  1.2003 -0.5269  0.9791
  969TIP3   OH224321   1.045   4.148   1.706 -0.2573 -0.1064 -0.1489
  969TIP3    H124322   1.068   4.179   1.619  1.7767 -1.7812 -0.2405
  969TIP3    H224323   0.949   4.149   1.708 -0.2902  3.0046 -1.2570
  970TIP3   OH224324   5.660   6.058  16.437  0.3137  0.2466  0.0709
  970TIP3    H124325   5.620   6.145  16.440  1.2137  0.6738 -0.1712
  970TIP3    H224326   5.670   6.033  16.528 -1.0551 -0.1184  0.1269
  971TIP3   OH224327   6.066   1.240  11.653 -0.4980 -0.4128  0.2588
  971TIP3    H124328   6.088   1.147  11.659 -1.3100 -0.6489 -0.2962
  971TIP3    H224329   5.972   1.242  11.634 -0.2831  0.4859 -0.8170
  972TIP3   OH224330   3.770   3.483  15.956 -0.8723 -0.1665  0.0746
  972TIP3    H124331   3.753   3.422  16.028 -2.0362 -1.2259 -1.0881
  972TIP3    H224332   3.815   3.430  15.890 -0.4625  0.6236 -0.2850
  973TIP3   OH224333   0.639   0.192   3.981 -0.4333  0.2803 -0.1375
  973TIP3    H124334   0.631   0.269   3.925 -1.3402 -0.4031 -0.9667
  973TIP3    H224335   0.654   0.227   4.069 -1.7545  1.4159 -0.3507
  974TIP3   OH224336   4.223   2.956  16.135  1.0458  0.7170 -0.2558
  974TIP3    H124337   4.191   2.890  16.197  2.1697  1.5234  1.2320
  974TIP3    H224338   4.227   2.910  16.051 -2.8124  0.2919 -0.2772
  975TIP3   OH224339   0.753   3.241  16.836 -0.2271 -0.5365 -0.4799
  975TIP3    H124340   0.695   3.289  16.894  0.6234  0.7462 -0.6591
  975TIP3    H224341   0.836   3.237  16.883  0.2130 -0.2738 -1.2216
  976TIP3   OH224342   4.856   3.798   3.276 -0.2322 -0.3906  0.3523
  976TIP3    H124343   4.850   3.837   3.363  0.2970 -2.2215  1.2351
  976TIP3    H224344   4.904   3.862   3.224 -2.0938  1.5231  0.9128
  977TIP3   OH224345   0.313   2.056   1.882  0.2882 -0.0197  0.1597
  977TIP3    H124346   0.257   2.101   1.819 -1.0988 -2.2674 -0.2504
  977TIP3    H224347   0.401   2.062   1.843 -0.6798 -2.2565 -2.5935
  978TIP3   OH224348   2.736   1.609  15.565  0.1043 -0.0647 -0.0217
  978TIP3    H124349   2.756   1.524  15.527  0.2123 -0.3448  0.6645
  978TIP3    H224350   2.667   1.592  15.630  0.2118  0.3485  0.2076
  979TIP3   OH224351   5.832   3.499   2.307 -0.5297  0.1360 -0.2869
  979TIP3    H124352   5.780   3.428   2.345  0.2797  0.1172  0.8092
  979TIP3    H224353   5.840   3.563   2.377  0.0681  0.6077 -0.7816
  980TIP3   OH224354   3.014   3.909   4.291  0.3220  0.7047 -0.1974
  980TIP3    H124355   3.065   3.887   4.213  0.2894 -0.0093 -0.0185
  980TIP3    H224356   2.971   3.828   4.316 -0.9402  1.3133 -0.3573
  981TIP3   OH224357   3.360   0.338  15.101  0.0786 -0.1564  0.1583
  981TIP3    H124358   3.406   0.291  15.031 -1.3079 -0.5964 -0.4845
  981TIP3    H224359   3.267   0.321  15.084 -0.3048  0.2704  1.7355
  982TIP3   OH224360   2.521   5.216   4.606  0.1082  0.2183 -0.6440
  982TIP3    H124361   2.466   5.203   4.528 -0.6383  2.5015 -0.5414
  982TIP3    H224362   2.495   5.146   4.666  0.3625 -1.2921 -2.2556
  983TIP3   OH224363   3.803   3.739   0.634  0.4252 -0.2727  0.1760
  983TIP3    H124364   3.849   3.809   0.588  0.4085 -0.6058 -0.3612
  983TIP3    H224365   3.868   3.669   0.642  0.0118 -0.7604 -0.6268
  984TIP3   OH224366   1.196   3.625   0.341 -0.5287  0.5216 -0.3027
  984TIP3    H124367   1.161   3.679   0.271 -0.7316 -0.1276 -0.7112
  984TIP3    H224368   1.123   3.567   0.364  0.1642 -0.6211 -0.9356
  985TIP3   OH224369   3.426   2.377   2.050 -0.1620 -0.0911  0.3219
  985TIP3    H124370   3.461   2.452   2.001 -1.0596  0.7052  0.8841
  985TIP3    H224371   3.487   2.306   2.031  0.0260  0.4577 -1.1913
  986TIP3   OH224372   4.530   2.757  14.244 -0.0304  0.2557  0.1195
  986TIP3    H124373   4.529   2.850  14.222 -1.2770  0.3945  0.7319
  986TIP3    H224374   4.612   2.745  14.293 -1.4206  1.7350  2.9042
  987TIP3   OH224375   3.065   4.540   3.682 -0.0453 -0.4960 -0.5849
  987TIP3    H124376   2.992   4.486   3.652 -0.7452  0.2228 -0.1838
  987TIP3    H224377   3.044   4.628   3.652  0.6757 -0.2934 -0.4930
  988TIP3   OH224378   3.608   0.669   2.221 -0.0976 -0.5224 -0.2052
  988TIP3    H124379   3.690   0.701   2.183 -0.6639 -0.7084 -1.6320
  988TIP3    H224380   3.601   0.715   2.305  0.6447  0.7554 -0.8184
  989TIP3   OH224381   2.622   4.744   0.610  0.4758  0.4537  0.4966
  989TIP3    H124382   2.709   4.703   0.611  0.0747 -0.4210  1.0095
  989TIP3    H224383   2.639   4.836   0.627  1.2348  0.1211  1.6507
  990TIP3   OH224384   6.652   5.959   2.513  0.2246  0.0132  0.8982
  990TIP3    H124385   6.645   5.875   2.468  0.0073  0.8571 -0.6855
  990TIP3    H224386   6.733   5.997   2.481 -0.1250  0.7929  0.9222
  991TIP3   OH224387   2.328   3.434   6.193 -0.3557 -0.4047 -0.2855
  991TIP3    H124388   2.391   3.506   6.194 -1.1631  0.3324  2.5587
  991TIP3    H224389   2.377   3.360   6.158  1.3060  0.8180 -0.6275
  992TIP3   OH224390   1.214   0.997   5.097  0.4837  0.4033 -0.5691
  992TIP3    H124391   1.179   0.946   5.170 -0.6252 -0.3678 -1.6091
  992TIP3    H224392   1.240   0.931   5.033  0.9763  1.0867 -1.0693
  993TIP3   OH224393   5.786   6.267  14.991  0.2836  0.1596  0.0406
  993TIP3    H124394   5.748   6.231  15.071  1.2297  0.6423  0.7208
  993TIP3    H224395   5.712   6.299  14.940 -0.0696  3.5176  2.5043
  994TIP3   OH224396   1.272   3.796   4.764  0.5003  0.3347 -0.1474
  994TIP3    H124397   1.239   3.709   4.785 -0.7098  0.5156 -1.2837
  994TIP3    H224398   1.289   3.794   4.670 -1.0312  1.7890 -0.4928
  995TIP3   OH224399   3.805   3.585   3.144 -0.3034  0.2482 -0.0773
  995TIP3    H124400   3.734   3.552   3.200 -0.3736  1.4692  0.5744
  995TIP3    H224401   3.861   3.635   3.204  0.0862  0.8589 -0.9493
  996TIP3   OH224402   3.515   5.685  12.349  0.0937 -0.1725  0.2427
  996TIP3    H124403   3.592   5.740  12.360  1.0487 -0.7036 -3.0335
  996TIP3    H224404   3.487   5.664  12.438  2.3640  1.8862  1.5081
  997TIP3   OH224405   4.954   2.875   2.826  0.2378 -0.1860 -0.2028
  997TIP3    H124406   5.044   2.896   2.803  1.5965 -2.9783  2.1533
  997TIP3    H224407   4.933   2.933   2.899 -0.2649  1.1605 -1.3943
  998TIP3   OH224408   5.070   3.277   3.830  0.3789  0.1818  0.1949
  998TIP3    H124409   4.982   3.239   3.829  0.3836  0.0548  2.3885
  998TIP3    H224410   5.126   3.208   3.794 -0.2830 -0.0828 -0.3516
  999TIP3   OH224411   2.182   5.453  13.014 -0.0485 -0.7711  0.4012
  999TIP3    H124412   2.251   5.503  12.971  0.1240 -0.5047  0.9801
  999TIP3    H224413   2.101   5.499  12.991 -0.1022 -1.4526 -0.7958
 1000TIP3   OH224414   5.448   0.456   1.818 -0.4339  0.4860  0.0232
 1000TIP3    H124415   5.495   0.512   1.756  0.0904 -0.8520 -0.8113
 1000TIP3    H224416   5.516   0.430   1.881  0.0259 -1.6202 -1.3022
 1001TIP3   OH224417   5.317   5.556   2.709  0.4593 -0.0929 -0.1841
 1001TIP3    H124418   5.289   5.643   2.737 -1.7493 -0.1620 -2.0398
 1001TIP3    H224419   5.387   5.533   2.770 -0.6804  1.8996  1.9757
 1002TIP3   OH224420   0.848   0.114  13.889  0.2488 -0.1664 -0.5083
 1002TIP3    H124421   0.922   0.150  13.939  1.0324 -1.9529 -0.3523
 1002TIP3    H224422   0.775   0.115  13.950  0.3098  0.9422 -0.4383
 1003TIP3   OH224423   6.450   3.183  15.889  0.0127 -0.4864  0.7000
 1003TIP3    H124424   6.475   3.216  15.802  0.0538 -0.3091  0.7775
 1003TIP3    H224425   6.431   3.262  15.939 -3.1751 -0.7007 -0.0916
 1004TIP3   OH224426   2.018   1.391   0.018  0.0459 -0.4627 -0.3458
 1004TIP3    H124427   2.016   1.385  -0.077 -2.4424 -0.7507 -0.3189
 1004TIP3    H224428   2.057   1.309   0.047  2.0350  0.1686 -1.1185
 1005TIP3   OH224429   4.946   3.641   1.277 -0.2277 -0.0189 -0.3399
 1005TIP3    H124430   5.036   3.674   1.280 -0.1426 -0.3327  0.4675
 1005TIP3    H224431   4.908   3.683   1.200  0.4015  0.6540 -0.2840
 1006TIP3   OH224432   2.807   6.638   4.934 -0.6953 -0.2539  0.1719
 1006TIP3    H124433   2.720   6.604   4.952 -0.7147 -0.4941 -0.3550
 1006TIP3    H224434   2.826   6.609   4.844  0.8579 -2.2281  1.0898
 1007TIP3   OH224435   4.610   0.235   3.183  0.1940  0.0137  0.1698
 1007TIP3    H124436   4.571   0.294   3.118 -0.8245 -0.2383  0.5477
 1007TIP3    H224437   4.641   0.293   3.252  3.6121  0.5225 -1.6832
 1008TIP3   OH224438   1.124   0.073  15.909 -0.6964 -0.3352 -0.6340
 1008TIP3    H124439   1.143  -0.020  15.909  2.4438  0.2150  1.1231
 1008TIP3    H224440   1.061   0.085  15.980 -0.7818 -1.0855 -0.5885
 1009TIP3   OH224441   1.624   5.999   4.373 -0.0093  0.8743  0.2334
 1009TIP3    H124442   1.532   5.993   4.400 -0.1863  1.4360 -0.2658
 1009TIP3    H224443   1.672   6.000   4.456 -0.2701 -2.2092  0.5065
 1010TIP3   OH224444   1.511   1.978   1.384  0.2967 -0.2830  0.5512
 1010TIP3    H124445   1.467   2.041   1.441  0.5656 -1.0805  1.6680
 1010TIP3    H224446   1.601   2.011   1.376  0.4374 -0.5094  1.1378
 1011TIP3   OH224447   5.588   0.031   5.251 -0.0291  0.3770  0.2105
 1011TIP3    H124448   5.633   0.113   5.271  2.0565 -0.2289 -1.7975
 1011TIP3    H224449   5.535   0.049   5.174  2.3450 -0.7450 -1.7477
 1012TIP3   OH224450   2.477   1.556  12.348  0.1448 -0.1489 -0.1035
 1012TIP3    H124451   2.534   1.523  12.418 -0.4699 -2.3112 -0.5840
 1012TIP3    H224452   2.434   1.632  12.386  2.6736  1.0082  0.5723
 1013TIP3   OH224453   3.711   2.076   6.692  0.3582  0.5896  0.0875
 1013TIP3    H124454   3.714   2.140   6.621  0.2851  0.7429  0.2230
 1013TIP3    H224455   3.678   1.996   6.650 -1.4387  1.1796  0.3253
 1014TIP3   OH224456   6.749   3.580   4.218  0.4049 -0.2487  0.0668
 1014TIP3    H124457   6.676   3.529   4.255  0.2645 -1.6352 -2.0245
 1014TIP3    H224458   6.824   3.520   4.223  1.3524  1.0580  1.9161
 1015TIP3   OH224459   5.048   2.055   3.066  0.0221  0.2229 -0.1046
 1015TIP3    H124460   5.048   2.146   3.035  1.7384  0.1677 -0.2974
 1015TIP3    H224461   4.973   2.015   3.023 -1.7461  1.9645  1.2560
 1016TIP3   OH224462   6.352   5.594   3.814  0.4698  0.3836  0.0453
 1016TIP3    H124463   6.264   5.594   3.850  0.6126  0.8154  0.4001
 1016TIP3    H224464   6.366   5.504   3.784 -0.6725  0.6634 -1.4369
 1017TIP3   OH224465   5.778   1.284  13.086 -0.6279 -0.1761  0.0798
 1017TIP3    H124466   5.869   1.264  13.109  0.0083  2.1373 -0.2655
 1017TIP3    H224467   5.734   1.300  13.169 -0.1555  0.8843  0.1347
 1018TIP3   OH224468   4.614   6.458   4.482  0.0296  0.4046 -0.3310
 1018TIP3    H124469   4.671   6.405   4.426 -1.3071  0.8344 -2.1186
 1018TIP3    H224470   4.526   6.423   4.468 -0.7113  2.3676 -0.6816
 1019TIP3   OH224471   2.113   0.296  12.388 -0.0646 -0.3099 -0.4602
 1019TIP3    H124472   2.105   0.316  12.295 -0.5029 -0.8345 -0.5365
 1019TIP3    H224473   2.189   0.237  12.393 -0.8181 -1.3029 -0.6435
 1020TIP3   OH224474   5.395   2.786  16.471 -0.2219 -0.1505  0.5115
 1020TIP3    H124475   5.368   2.850  16.404 -1.9375  1.7441  2.9253
 1020TIP3    H224476   5.488   2.802  16.483  0.2347 -0.8781 -1.7814
 1021TIP3   OH224477   3.274   0.017   5.246 -0.1859 -0.7172  0.2295
 1021TIP3    H124478   3.217   0.005   5.170 -0.7182  0.1810  0.4640
 1021TIP3    H224479   3.255  -0.058   5.302  0.1595 -1.3438 -0.4965
 1022TIP3   OH224480   2.529   2.306  16.887 -0.0840  0.1092  0.1208
 1022TIP3    H124481   2.506   2.333  16.798  0.0379 -0.2963 -0.0345
 1022TIP3    H224482   2.557   2.215  16.878 -2.1485 -0.6136  0.9149
 1023TIP3   OH224483   6.039   6.160   2.195 -0.4456  0.0004  0.8667
 1023TIP3    H124484   6.021   6.114   2.277  1.3531  0.2513  1.4134
 1023TIP3    H224485   5.973   6.228   2.190 -1.9950 -1.4592  0.9641
 1024TIP3   OH224486   4.140   2.751   5.633 -0.0612  0.1135  0.1230
 1024TIP3    H124487   4.059   2.718   5.594  1.1011  0.5082 -2.7570
 1024TIP3    H224488   4.209   2.703   5.589  1.3080  0.5011  1.8338
 1025TIP3   OH224489   1.615   4.937  15.780  0.3810  0.3776 -0.3141
 1025TIP3    H124490   1.662   4.939  15.863  1.0221  2.5004 -0.6941
 1025TIP3    H224491   1.541   4.996  15.792 -2.5375 -3.2344  0.4008
 1026TIP3   OH224492   5.681   5.617  10.642 -0.0867 -0.1517  0.3993
 1026TIP3    H124493   5.617   5.553  10.673 -0.7680  1.1543  1.7677
 1026TIP3    H224494   5.633   5.699  10.636  1.0241  0.4664 -0.3276
 1027TIP3   OH224495   6.253   0.353  16.865 -0.4343 -0.4983  0.2200
 1027TIP3    H124496   6.181   0.374  16.924 -0.8063 -1.7358  0.2159
 1027TIP3    H224497   6.215   0.296  16.798 -0.1092  1.1992 -1.4658
 1028TIP3   OH224498   5.459   2.991  13.462  0.1043  0.0544  0.3605
 1028TIP3    H124499   5.392   3.058  13.474  0.4580  0.6096 -0.7255
 1028TIP3    H224500   5.535   3.038  13.429  1.5088 -0.3535  2.8544
 1029TIP3   OH224501   2.077   4.962   1.869  0.3022 -0.0147 -0.2502
 1029TIP3    H124502   2.090   4.867   1.870 -0.9631 -0.1977  2.7918
 1029TIP3    H224503   1.983   4.974   1.856  0.0243  0.7446  2.3017
 1030TIP3   OH224504   0.504   6.121   1.630  0.2040 -0.3409 -0.0904
 1030TIP3    H124505   0.494   6.197   1.572  0.3199 -0.8406 -0.7805
 1030TIP3    H224506   0.597   6.100   1.624  0.2167 -0.3842  0.2933
 1031TIP3   OH224507   1.312   3.391   1.982  0.3611 -0.2066 -0.0915
 1031TIP3    H124508   1.401   3.376   2.014 -0.2824  0.0985  1.8511
 1031TIP3    H224509   1.256   3.385   2.059 -1.1177  1.5204 -0.9810
 1032TIP3   OH224510   0.296   0.353  12.144 -0.6775 -0.3022  0.0974
 1032TIP3    H124511   0.351   0.333  12.068  0.8652 -1.1048  1.3815
 1032TIP3    H224512   0.324   0.440  12.172  1.0855 -1.3671  1.7048
 1033TIP3   OH224513   5.713   3.329  13.878 -0.2398 -0.8328 -0.1230
 1033TIP3    H124514   5.731   3.418  13.907 -1.6241 -0.9761  1.2623
 1033TIP3    H224515   5.718   3.333  13.782 -1.0200  0.9029 -0.1099
 1034TIP3   OH224516   4.235   2.554  15.247  0.2198  0.2119  0.2002
 1034TIP3    H124517   4.183   2.608  15.189  1.6205 -0.6438 -1.9035
 1034TIP3    H224518   4.176   2.485  15.276 -0.5461  0.7867  0.0002
 1035TIP3   OH224519   6.489   3.013   2.916 -0.4740  0.0610  0.3659
 1035TIP3    H124520   6.545   3.090   2.905 -0.8161  0.2937  0.2078
 1035TIP3    H224521   6.546   2.938   2.900  0.2549  0.2209  2.1588
 1036TIP3   OH224522   5.097   4.210  14.816  0.2419 -0.3562 -0.0551
 1036TIP3    H124523   5.011   4.169  14.826  0.0618  0.4604  1.8592
 1036TIP3    H224524   5.132   4.216  14.905  2.0782 -0.2175 -0.7555
 1037TIP3   OH224525   0.369   5.640   1.592  0.0506 -0.4450 -0.3857
 1037TIP3    H124526   0.334   5.710   1.536 -3.4760 -2.1090 -0.3806
 1037TIP3    H224527   0.447   5.679   1.632  0.3421  2.1755 -3.2788
 1038TIP3   OH224528   1.012   3.355  14.954  0.3609 -0.2668 -0.2364
 1038TIP3    H124529   1.001   3.317  14.867  1.4948 -1.1678  0.0041
 1038TIP3    H224530   0.952   3.305  15.009 -1.1070  0.9727 -0.6743
 1039TIP3   OH224531   4.385   1.627   1.061  0.2424  0.2257  0.4121
 1039TIP3    H124532   4.450   1.676   1.111 -0.7931  2.0112  0.0413
 1039TIP3    H224533   4.389   1.664   0.973  1.6888 -2.5496 -0.7639
 1040TIP3   OH224534   6.364   1.495  17.032 -0.0857 -0.1571  0.2003
 1040TIP3    H124535   6.453   1.491  16.996  0.0660 -3.1417  0.7564
 1040TIP3    H224536   6.307   1.471  16.960 -0.0658 -2.4113  0.8822
 1041TIP3   OH224537   5.407   0.704  16.263  0.1488  0.0975 -0.4953
 1041TIP3    H124538   5.428   0.668  16.176  2.2896  1.9680 -0.7905
 1041TIP3    H224539   5.339   0.769  16.245  1.8330  1.7455 -1.0526
 1042TIP3   OH224540   2.086   1.461   4.424  0.3032 -0.2487 -0.5428
 1042TIP3    H124541   2.174   1.495   4.409  0.3579 -0.4757 -0.7329
 1042TIP3    H224542   2.073   1.396   4.355  0.1270 -0.4784 -0.2943
 1043TIP3   OH224543   1.985   5.562   3.500  0.6393 -0.3847 -0.3354
 1043TIP3    H124544   1.901   5.521   3.477  2.6242 -3.7223 -1.8774
 1043TIP3    H224545   2.023   5.504   3.566  1.1162  1.9523  1.5331
 1044TIP3   OH224546   2.466   4.526   4.336 -0.5829 -0.4439 -0.8925
 1044TIP3    H124547   2.438   4.610   4.373  0.3786 -0.2871 -0.5018
 1044TIP3    H224548   2.416   4.518   4.254 -1.4304  0.0222 -0.4288
 1045TIP3   OH224549   4.032   1.864   3.497  0.2109  0.1343  0.2369
 1045TIP3    H124550   4.089   1.789   3.480  0.3704  0.6878 -1.7970
 1045TIP3    H224551   4.077   1.938   3.457 -0.4501  1.1235  1.3226
 1046TIP3   OH224552   4.278   5.868  17.221 -0.3722 -0.2749 -0.4290
 1046TIP3    H124553   4.232   5.889  17.302  1.3057 -0.3322  0.5688
 1046TIP3    H224554   4.370   5.888  17.240 -0.0403  0.3532 -2.5425
 1047TIP3   OH224555   1.605   3.577   5.364  0.3020 -0.1203  0.5933
 1047TIP3    H124556   1.590   3.487   5.337 -1.1409  0.1199  0.5417
 1047TIP3    H224557   1.634   3.622   5.284 -2.6602  0.2911 -0.2998
 1048TIP3   OH224558   5.422   3.098   2.606  0.4172 -0.1367  0.2447
 1048TIP3    H124559   5.488   3.164   2.584 -1.0870  1.1117 -0.6349
 1048TIP3    H224560   5.414   3.045   2.527 -0.6400  0.5982 -0.1523
 1049TIP3   OH224561   5.038   4.757   3.498 -0.0500 -0.2923 -0.3401
 1049TIP3    H124562   5.011   4.810   3.573  0.2776 -3.9254  2.4873
 1049TIP3    H224563   5.118   4.799   3.466 -0.9354  2.0916  0.4511
 1050TIP3   OH224564   5.770   6.392  14.624 -0.6852  0.3097  0.1915
 1050TIP3    H124565   5.792   6.472  14.672  1.1541 -0.3785  0.5046
 1050TIP3    H224566   5.853   6.348  14.611 -1.2941 -0.1214 -2.5612
 1051TIP3   OH224567   1.860   4.397   3.159 -0.4531  0.1828  0.5278
 1051TIP3    H124568   1.886   4.488   3.148  0.9385 -0.2349  0.3158
 1051TIP3    H224569   1.883   4.355   3.077 -1.6170 -0.2530  0.4094
 1052TIP3   OH224570   5.681   1.364   5.596 -0.1707 -0.3378 -0.3086
 1052TIP3    H124571   5.712   1.430   5.658  1.7917  0.0227 -1.6127
 1052TIP3    H224572   5.646   1.415   5.523 -0.9618 -0.7564 -0.2271
 1053TIP3   OH224573   1.189   3.598  13.592  0.3401  0.2412  0.3491
 1053TIP3    H124574   1.242   3.535  13.641  0.2072 -1.4071 -1.5432
 1053TIP3    H224575   1.244   3.676  13.586  1.2485 -0.3250  1.1788
 1054TIP3   OH224576   2.908   2.196   4.325 -0.4042 -0.5861  0.1712
 1054TIP3    H124577   2.871   2.275   4.285  1.3372 -0.2431 -0.8015
 1054TIP3    H224578   2.836   2.133   4.324 -1.0909  0.1959 -1.3330
 1055TIP3   OH224579   5.758   5.970   0.735  0.0929  0.1217  0.8407
 1055TIP3    H124580   5.663   5.973   0.747  0.1289  1.6920  0.9317
 1055TIP3    H224581   5.771   5.964   0.641 -0.0986 -0.5734  0.8580
 1056TIP3   OH224582   5.682   3.123  16.364  0.4581  0.0546  0.3063
 1056TIP3    H124583   5.649   3.132  16.274  1.2237  0.0503  0.0281
 1056TIP3    H224584   5.628   3.185  16.414 -0.9351 -0.9709  0.1097
 1057TIP3   OH224585   1.409   5.808  12.686  0.0195  0.4267 -0.5524
 1057TIP3    H124586   1.423   5.810  12.591  0.8840 -2.4260 -0.5338
 1057TIP3    H224587   1.316   5.826  12.697 -1.1735 -4.0489 -2.3338
 1058TIP3   OH224588   5.149   0.056  10.564  0.3288 -0.1424 -0.0285
 1058TIP3    H124589   5.171   0.047  10.471  2.3207  1.1227  0.2857
 1058TIP3    H224590   5.135  -0.034  10.594 -1.1522 -0.4891 -1.7391
 1059TIP3   OH224591   6.367   0.453   0.381  0.2339  0.3462  0.2457
 1059TIP3    H124592   6.302   0.394   0.344  0.5942  0.8564 -1.2237
 1059TIP3    H224593   6.362   0.532   0.326  1.8145  0.5371  0.3676
 1060TIP3   OH224594   5.168   2.386  11.713 -0.0997 -0.0319  0.2776
 1060TIP3    H124595   5.219   2.352  11.639 -0.4993 -1.6667  0.7176
 1060TIP3    H224596   5.106   2.446  11.674  0.0872 -0.4315 -0.6527
 1061TIP3   OH224597   5.067   0.468  11.743 -0.1185 -0.0206  0.7581
 1061TIP3    H124598   5.087   0.538  11.681 -1.0757  0.2549  0.7570
 1061TIP3    H224599   5.071   0.388  11.691 -1.7828  0.2832  0.1396
 1062TIP3   OH224600   5.519   4.069   4.277 -0.0107 -0.0992  0.0638
 1062TIP3    H124601   5.546   4.137   4.338 -0.7506  0.7444 -0.5324
 1062TIP3    H224602   5.586   4.070   4.208  0.0403 -0.0570  0.1144
 1063TIP3   OH224603   2.678   0.903  15.953 -0.4515 -0.4127  0.5736
 1063TIP3    H124604   2.650   0.812  15.958  0.3147 -0.7413 -0.6664
 1063TIP3    H224605   2.597   0.954  15.961 -1.0973 -1.2612 -0.4547
 1064TIP3   OH224606   5.358   0.160  16.973  0.1115  1.0596  0.1439
 1064TIP3    H124607   5.369   0.222  16.901 -1.9080  0.9381 -0.2779
 1064TIP3    H224608   5.314   0.084  16.934 -0.9543  0.9700  1.4816
 1065TIP3   OH224609   1.233   4.608  12.979 -0.5689 -0.5565 -0.9886
 1065TIP3    H124610   1.247   4.539  12.914  1.8618 -0.5410 -0.5326
 1065TIP3    H224611   1.219   4.560  13.061  1.9619 -0.5932 -0.5051
 1066TIP3   OH224612   0.640   3.650   5.383  0.1803  0.3241  0.4431
 1066TIP3    H124613   0.559   3.701   5.381 -1.0162 -1.4311  2.0302
 1066TIP3    H224614   0.612   3.561   5.364  1.9149 -0.1283 -0.0290
 1067TIP3   OH224615   0.320   4.419  17.179  0.3635  0.3657  0.3211
 1067TIP3    H124616   0.263   4.363  17.231 -1.3446  1.6515 -0.1451
 1067TIP3    H224617   0.341   4.493  17.237  1.1861  0.1360  0.3249
 1068TIP3   OH224618   0.797   5.469   6.236 -0.1840  0.7243 -0.2162
 1068TIP3    H124619   0.750   5.388   6.256  0.2688  0.3923 -0.4943
 1068TIP3    H224620   0.732   5.525   6.195  0.0795 -0.3899 -2.2280
 1069TIP3   OH224621   1.000   0.981  13.566 -0.3509 -0.1922 -0.7066
 1069TIP3    H124622   1.084   0.948  13.597 -1.9299 -2.5629  1.2804
 1069TIP3    H224623   0.959   1.018  13.644 -0.5421  2.3366 -1.9811
 1070TIP3   OH224624   1.959   5.871   1.051  0.2045 -0.0331 -0.5759
 1070TIP3    H124625   2.037   5.919   1.024  0.5100 -1.2612 -1.8628
 1070TIP3    H224626   1.992   5.803   1.110 -0.1221  0.6742  0.4409
 1071TIP3   OH224627   5.750   2.816  12.946 -0.1917  0.2177 -0.0543
 1071TIP3    H124628   5.809   2.861  12.885  0.1138 -0.1511 -0.0298
 1071TIP3    H224629   5.700   2.756  12.891 -0.4730  0.4532 -0.0596
 1072TIP3   OH224630   6.213   6.753   2.618 -0.4497  0.7068  0.3429
 1072TIP3    H124631   6.151   6.783   2.685  0.8530  0.6128  1.6076
 1072TIP3    H224632   6.216   6.826   2.555 -0.7480  1.3215  1.0264
 1073TIP3   OH224633   2.756   2.881  11.002  0.2839 -0.1333  0.3103
 1073TIP3    H124634   2.801   2.951  11.049 -1.0033  0.1370  1.1698
 1073TIP3    H224635   2.788   2.800  11.042  1.8126 -0.0570 -0.7234
 1074TIP3   OH224636   4.179   5.585  13.853  0.0069  0.2176  0.0808
 1074TIP3    H124637   4.087   5.587  13.878  0.0094 -0.3721  0.1338
 1074TIP3    H224638   4.215   5.507  13.896  0.7921  1.0612  0.9936
 1075TIP3   OH224639   4.205   0.195   4.811 -0.2685  0.3455 -0.2562
 1075TIP3    H124640   4.130   0.235   4.854  0.7299  1.4947  0.4375
 1075TIP3    H224641   4.275   0.198   4.876  0.8984  0.9247 -1.4991
 1076TIP3   OH224642   2.876   1.710   4.916 -0.3827 -0.2310  0.1745
 1076TIP3    H124643   2.852   1.734   4.827  1.0918 -0.0531 -0.1884
 1076TIP3    H224644   2.920   1.626   4.907  0.1264 -0.0185  0.6910
 1077TIP3   OH224645   0.890   1.144   2.339 -0.0133 -0.7857  0.1243
 1077TIP3    H124646   0.857   1.149   2.429 -0.8441 -1.0300 -0.1573
 1077TIP3    H224647   0.977   1.183   2.343  0.1173 -1.1531  1.1157
 1078TIP3   OH224648   2.856   4.706   0.378 -0.1076  0.1505  0.4857
 1078TIP3    H124649   2.933   4.657   0.350  0.1741 -0.1886  1.8292
 1078TIP3    H224650   2.791   4.690   0.309  0.8646  0.0700 -0.4161
 1079TIP3   OH224651   1.057   4.177   2.497 -0.3152  0.0240  0.2616
 1079TIP3    H124652   1.042   4.172   2.402 -1.0632  0.1554  0.3684
 1079TIP3    H224653   0.976   4.145   2.535 -0.3791  0.8848  0.8645
 1080TIP3   OH224654   1.054   4.412   1.944 -0.4017 -0.0510  0.5745
 1080TIP3    H124655   1.044   4.318   1.958  0.1015  0.1939  2.8529
 1080TIP3    H224656   1.101   4.443   2.022  0.1828  1.9546 -0.5250
 1081TIP3   OH224657   3.965   3.245  12.140  0.0183  0.6088 -0.3804
 1081TIP3    H124658   3.971   3.294  12.222 -2.7465 -1.8799  1.4362
 1081TIP3    H224659   4.052   3.209  12.127  0.2755  0.2529  2.0456
 1082TIP3   OH224660   6.768   2.297   1.505  0.5768  0.0689  0.2650
 1082TIP3    H124661   6.812   2.228   1.455  0.9236  0.4620  0.0178
 1082TIP3    H224662   6.762   2.370   1.443  0.7886  0.4765  0.7289
 1083TIP3   OH224663   2.941   2.012   2.500 -0.3377 -0.4301 -0.4977
 1083TIP3    H124664   2.921   1.919   2.509  0.1409 -0.3895  1.1474
 1083TIP3    H224665   3.036   2.016   2.488 -0.4064 -0.1820 -0.9629
 1084TIP3   OH224666   6.459   5.899  12.826 -0.3157  0.3421  0.8337
 1084TIP3    H124667   6.453   5.983  12.872 -0.7219  0.5455  0.4127
 1084TIP3    H224668   6.403   5.910  12.749  2.2738  0.8450 -1.0129
 1085TIP3   OH224669   2.117   2.008  17.044  0.0027  0.2648  0.2864
 1085TIP3    H124670   2.077   1.962  16.971  0.3132 -0.4872  0.5813
 1085TIP3    H224671   2.046   2.059  17.083 -0.6635 -1.0161  0.7744
 1086TIP3   OH224672   6.261   2.408  17.130 -0.0175  0.1119 -0.3298
 1086TIP3    H124673   6.238   2.370  17.215 -0.8608 -2.2878 -1.5613
 1086TIP3    H224674   6.351   2.439  17.140  0.6824 -2.2057  0.7879
 1087TIP3   OH224675   6.307   2.764  15.350  0.0042  0.1987  0.2465
 1087TIP3    H124676   6.332   2.722  15.432  0.7199  1.4116  0.6767
 1087TIP3    H224677   6.308   2.694  15.285 -1.1092 -0.8876  1.3668
 1088TIP3   OH224678   4.071   5.801  12.553  0.1718  0.2274 -0.3803
 1088TIP3    H124679   4.138   5.744  12.591  1.9303  2.4621 -0.0529
 1088TIP3    H224680   4.118   5.854  12.489 -1.5150  1.0337 -0.9706
 1089TIP3   OH224681   1.742   1.107  11.907 -1.0286  0.8105  0.2366
 1089TIP3    H124682   1.727   1.112  12.002  0.4335 -2.5642  0.7327
 1089TIP3    H224683   1.804   1.178  11.889  0.1910  0.2927  2.1787
 1090TIP3   OH224684   4.946   2.675   3.991 -0.5652 -0.5355 -0.7438
 1090TIP3    H124685   5.031   2.667   3.948  0.1056  4.1686 -0.5694
 1090TIP3    H224686   4.888   2.713   3.925 -2.2870 -2.6671 -0.5283
 1091TIP3   OH224687   1.773   1.189  15.288 -0.2134 -0.4269  0.2914
 1091TIP3    H124688   1.749   1.214  15.377  1.6466 -0.0695  0.7101
 1091TIP3    H224689   1.772   1.271  15.238 -1.0741 -0.6003 -0.0006
 1092TIP3   OH224690   1.572   5.273   0.001 -0.0848  0.0758  0.2951
 1092TIP3    H124691   1.633   5.255   0.072 -0.7000  0.7661  1.0139
 1092TIP3    H224692   1.507   5.204   0.007  0.4488 -0.4848 -0.2780
 1093TIP3   OH224693   5.219   4.646   3.827  0.4524 -0.3401 -0.4968
 1093TIP3    H124694   5.271   4.721   3.797  0.9164 -0.2599  0.4991
 1093TIP3    H224695   5.219   4.587   3.752  4.3446 -1.5747  0.3582
 1094TIP3   OH224696   5.272   0.898   5.700 -0.2140 -0.1016  0.0179
 1094TIP3    H124697   5.339   0.861   5.758  1.2392  0.8278 -1.0054
 1094TIP3    H224698   5.312   0.893   5.612 -2.9000 -2.7331 -1.1269
 1095TIP3   OH224699   5.310   1.374   5.736 -0.1973 -0.0309  0.1512
 1095TIP3    H124700   5.221   1.340   5.743  0.6549 -2.4914 -0.7163
 1095TIP3    H224701   5.327   1.413   5.822 -1.9575  0.1535  0.4448
 1096TIP3   OH224702   1.610   0.063  13.059 -0.4405  0.9890  0.0962
 1096TIP3    H124703   1.602   0.062  13.154  1.9336 -0.3022  0.3185
 1096TIP3    H224704   1.587  -0.026  13.032 -0.3909  1.1472 -0.4882
 1097TIP3   OH224705   3.787   6.752   1.583  0.2058  0.1846  0.6140
 1097TIP3    H124706   3.711   6.734   1.638 -0.7725 -0.2310 -0.8376
 1097TIP3    H224707   3.846   6.802   1.639 -1.3502  0.9585  1.5998
 1098TIP3   OH224708   0.672   2.326   1.116  0.2533  0.0351  0.2094
 1098TIP3    H124709   0.685   2.245   1.167  3.1956  0.2373 -0.1429
 1098TIP3    H224710   0.644   2.296   1.030 -1.1005 -0.4810  0.8164
 1099TIP3   OH224711   4.683   5.518   5.048  0.1491 -0.2809 -0.2187
 1099TIP3    H124712   4.703   5.497   5.139  0.4664  1.1471  0.0505
 1099TIP3    H224713   4.680   5.614   5.046 -0.7673 -0.3332 -1.5155
 1100TIP3   OH224714   4.115   0.721  16.543  0.1405 -0.2198  0.5878
 1100TIP3    H124715   4.204   0.738  16.512  0.7848 -3.4778  0.3989
 1100TIP3    H224716   4.119   0.632  16.579 -3.0075 -0.3787  0.7150
 1101TIP3   OH224717   1.514   0.895   5.742  0.2625 -0.1529  0.3841
 1101TIP3    H124718   1.609   0.899   5.734  0.2177 -1.3927 -1.0552
 1101TIP3    H224719   1.497   0.813   5.789 -0.1316 -0.5895 -0.5019
 1102TIP3   OH224720   5.192   4.285   3.355 -0.2444  0.2934 -0.3161
 1102TIP3    H124721   5.136   4.317   3.284 -1.3988  2.2355  1.4132
 1102TIP3    H224722   5.243   4.362   3.381  3.9045 -1.5673 -2.3638
 1103TIP3   OH224723   0.586   5.372   5.271  0.0083  0.0621  0.4777
 1103TIP3    H124724   0.541   5.325   5.201  1.7120 -0.7994 -0.0594
 1103TIP3    H224725   0.636   5.440   5.225  0.3030  0.1600  0.9382
 1104TIP3   OH224726   2.047   1.672   3.067 -0.1408 -0.0786 -0.3763
 1104TIP3    H124727   1.956   1.665   3.093  0.0266  0.5481  0.3712
 1104TIP3    H224728   2.044   1.675   2.971 -0.7575 -2.1343 -0.4498
 1105TIP3   OH224729   4.965   0.470   1.039  0.1634 -0.4453  0.3775
 1105TIP3    H124730   5.025   0.396   1.049  1.2202 -0.1828 -3.0853
 1105TIP3    H224731   5.017   0.546   1.062  0.0116 -0.5348  1.0119
 1106TIP3   OH224732   3.333   2.232  11.843  0.1111 -0.3828  0.0249
 1106TIP3    H124733   3.428   2.234  11.830  0.2573  0.7059  1.1512
 1106TIP3    H224734   3.296   2.246  11.756  1.0002  1.4291 -0.0836
 1107TIP3   OH224735   2.048   6.403  11.327 -0.6763  0.2671  0.3522
 1107TIP3    H124736   1.977   6.462  11.351  1.0634  2.0611  1.1767
 1107TIP3    H224737   2.126   6.459  11.322  1.6816 -2.3390  4.3438
 1108TIP3   OH224738   4.981   5.597  14.457  0.3736  0.3614 -0.1208
 1108TIP3    H124739   4.933   5.665  14.409  0.1831  0.8672  0.7744
 1108TIP3    H224740   4.997   5.528  14.392 -1.0518  0.4477 -0.5698
 1109TIP3   OH224741   6.222   0.315  16.223  0.9370 -1.1144  0.5070
 1109TIP3    H124742   6.215   0.279  16.311  0.5800  0.9786  1.3700
 1109TIP3    H224743   6.315   0.315  16.203  1.0347 -1.3663  0.9744
 1110TIP3   OH224744   5.142   3.163   2.671  0.2858 -0.5786 -0.1215
 1110TIP3    H124745   5.227   3.186   2.707  1.4696 -1.2819 -2.3867
 1110TIP3    H224746   5.159   3.144   2.579 -2.3693 -0.4604 -0.6748
 1111TIP3   OH224747   5.276   4.158   6.699  0.6319  0.0934  0.0829
 1111TIP3    H124748   5.244   4.162   6.609 -1.6477 -0.7057  0.8339
 1111TIP3    H224749   5.290   4.250   6.723  0.2837  0.3696 -0.7421
 1112TIP3   OH224750   6.733   1.051  16.569  0.4589  0.2354 -0.7742
 1112TIP3    H124751   6.750   1.145  16.576  1.9353  0.0694 -2.0328
 1112TIP3    H224752   6.816   1.010  16.596  0.1203 -0.6921 -1.1454
 1113TIP3   OH224753   5.689   4.150  12.192 -0.2246 -0.4370  0.3419
 1113TIP3    H124754   5.744   4.164  12.115  1.7956 -0.0151  1.7869
 1113TIP3    H224755   5.608   4.198  12.173  0.3564 -0.0911 -1.3739
 1114TIP3   OH224756   2.211   3.421  11.519  0.5025  0.0987  0.0535
 1114TIP3    H124757   2.174   3.470  11.445 -0.4241 -1.7654 -0.7356
 1114TIP3    H224758   2.288   3.377  11.482 -0.4149 -1.4692 -0.0231
 1115TIP3   OH224759   5.158   5.445  14.322 -0.4539 -0.0604  0.2256
 1115TIP3    H124760   5.191   5.488  14.243 -1.1246  1.0694  0.5500
 1115TIP3    H224761   5.122   5.362  14.291 -4.0813  1.9534 -1.2404
 1116TIP3   OH224762   4.067   2.094  14.105  0.0674 -0.1499 -0.2708
 1116TIP3    H124763   4.061   2.072  14.012 -1.3470 -3.0367  0.4450
 1116TIP3    H224764   4.160   2.110  14.120  0.4046 -0.3313 -2.0396
 1117TIP3   OH224765   3.279   4.514  14.402  0.0035 -0.5606  0.0488
 1117TIP3    H124766   3.240   4.431  14.429  1.3071 -1.5380 -1.0095
 1117TIP3    H224767   3.223   4.547  14.332  0.3836 -1.3566 -0.6353
 1118TIP3   OH224768   6.257   3.098  13.649 -0.3081  0.2011 -0.4639
 1118TIP3    H124769   6.261   3.009  13.685  1.0317 -0.2230 -1.6109
 1118TIP3    H224770   6.280   3.155  13.722 -2.7191 -0.2644  0.7015
 1119TIP3   OH224771   0.364   4.879   1.732  0.1072 -0.0617 -0.8999
 1119TIP3    H124772   0.457   4.896   1.723  0.3559  0.7217  2.6616
 1119TIP3    H224773   0.327   4.962   1.762 -1.1314 -1.3722  1.3074
 1120TIP3   OH224774   5.272   3.172   5.431  0.1656 -0.7369  0.5923
 1120TIP3    H124775   5.292   3.097   5.487  0.1958 -1.2743 -0.1299
 1120TIP3    H224776   5.327   3.243   5.465 -0.3022 -0.8779  1.6488
 1121TIP3   OH224777   3.068   2.728  11.565  0.0083  0.0285 -0.2147
 1121TIP3    H124778   3.148   2.677  11.573  0.4153  0.7689  0.4684
 1121TIP3    H224779   3.096   2.819  11.569 -0.8787  0.2960  0.3111
 1122TIP3   OH224780   1.210   4.842   0.266 -0.6651  0.0950 -0.1965
 1122TIP3    H124781   1.198   4.832   0.360  0.2012  0.1026 -0.0797
 1122TIP3    H224782   1.240   4.756   0.237  0.2003  0.4223 -0.2775
 1123TIP3   OH224783   4.625   5.237  15.141  0.1817 -0.3801 -0.3738
 1123TIP3    H124784   4.647   5.196  15.058  4.9343  0.6982  0.1520
 1123TIP3    H224785   4.643   5.330  15.128  0.0687 -0.0522  1.5451
 1124TIP3   OH224786   3.382   0.467  13.082  0.7697 -0.0974  0.4683
 1124TIP3    H124787   3.315   0.535  13.085  1.2736  0.3620  1.9164
 1124TIP3    H224788   3.462   0.512  13.056  0.8810 -0.3207  0.4201
 1125TIP3   OH224789   4.689   4.987  15.016  0.1654  0.5229  0.1392
 1125TIP3    H124790   4.705   4.923  15.084  0.2859 -0.0559 -0.4294
 1125TIP3    H224791   4.663   4.936  14.939  1.8510  1.0225 -0.7947
 1126TIP3   OH224792   5.418   0.895  15.197  0.3625 -0.1426 -0.5042
 1126TIP3    H124793   5.423   0.959  15.268  0.2360 -1.2474  0.5163
 1126TIP3    H224794   5.329   0.861  15.202  0.4972 -0.5516 -0.9050
 1127TIP3   OH224795   5.416   6.137  10.677 -0.4656  0.7217 -0.2771
 1127TIP3    H124796   5.359   6.213  10.661 -1.0410  0.0501 -1.5182
 1127TIP3    H224797   5.359   6.061  10.665  0.5582  0.0479 -1.0238
 1128TIP3   OH224798   5.410   4.807   2.917 -0.4192 -0.0515 -0.4439
 1128TIP3    H124799   5.368   4.830   3.000 -3.0964 -1.5600 -1.3421
 1128TIP3    H224800   5.411   4.889   2.867 -0.9516  0.3259  0.1627
 1129TIP3   OH224801   6.076   3.695  12.868  0.2777  0.6281 -0.3134
 1129TIP3    H124802   6.042   3.618  12.915  1.5800  0.2115 -0.0160
 1129TIP3    H224803   6.010   3.763  12.882  0.8201  0.6575  2.5603
 1130TIP3   OH224804   6.082   1.921   2.583 -0.2072 -0.3033  0.2808
 1130TIP3    H124805   6.021   1.848   2.592 -0.7922  0.2491  0.7566
 1130TIP3    H224806   6.160   1.882   2.542 -1.0048 -0.9287 -0.6651
 1131TIP3   OH224807   5.145   4.782  16.072  0.0693  0.1501  0.1183
 1131TIP3    H124808   5.154   4.868  16.113 -0.2939 -0.8257  2.3132
 1131TIP3    H224809   5.072   4.792  16.012 -0.0351  1.3495  0.4248
 1132TIP3   OH224810   2.327   4.543  15.209 -0.3017  0.2739  0.3247
 1132TIP3    H124811   2.289   4.533  15.297 -4.6153 -1.6147 -1.5891
 1132TIP3    H224812   2.353   4.454  15.185 -1.9777  0.2144 -1.4081
 1133TIP3   OH224813   4.584   6.465  13.450 -0.0279 -0.3317  0.4426
 1133TIP3    H124814   4.666   6.515  13.451 -1.4351  2.0807  0.0608
 1133TIP3    H224815   4.560   6.462  13.357 -1.1985  0.4236  0.7113
 1134TIP3   OH224816   5.706   1.356   0.446  0.8185 -0.1572  0.0755
 1134TIP3    H124817   5.671   1.348   0.535 -3.0206  2.6179 -1.0761
 1134TIP3    H224818   5.775   1.422   0.454  0.3156  0.2866  0.9705
 1135TIP3   OH224819   0.935   4.992   1.781 -0.2718  0.5070 -0.4018
 1135TIP3    H124820   1.024   4.987   1.747 -0.5341 -0.3161 -0.9816
 1135TIP3    H224821   0.926   4.914   1.836 -0.0434  1.5262  1.0854
 1136TIP3   OH224822   5.983   2.201   2.718  0.2277  0.4025 -0.2384
 1136TIP3    H124823   6.068   2.171   2.684  1.6992  2.4858  1.4009
 1136TIP3    H224824   5.945   2.252   2.647  0.8216  0.2941 -0.6402
 1137TIP3   OH224825   3.385   4.604  13.142  0.0494 -0.3427  0.3880
 1137TIP3    H124826   3.379   4.570  13.232  2.1113 -0.2651  0.5946
 1137TIP3    H224827   3.428   4.533  13.093  0.2218  0.1703 -0.2103
 1138TIP3   OH224828   1.378   2.618   5.469 -0.0103  0.3912 -0.4944
 1138TIP3    H124829   1.380   2.613   5.373  1.9256  1.3827 -0.5340
 1138TIP3    H224830   1.345   2.707   5.487 -1.0129 -0.0289 -0.2164
 1139TIP3   OH224831   0.679   5.711   2.449 -0.0271  0.6623  0.0450
 1139TIP3    H124832   0.665   5.657   2.527  2.6915 -2.4010 -1.4595
 1139TIP3    H224833   0.642   5.796   2.472 -1.6587 -0.9018  3.6839
 1140TIP3   OH224834   6.055   0.648   2.947  0.0089 -0.1357 -0.2781
 1140TIP3    H124835   6.112   0.622   2.875 -0.7057  3.0544 -2.1017
 1140TIP3    H224836   5.985   0.697   2.905 -0.1500  2.2614  2.6219
 1141TIP3   OH224837   5.180   3.503   0.222  0.0145  0.3653 -0.1056
 1141TIP3    H124838   5.204   3.550   0.142  1.2950  0.3050  0.2331
 1141TIP3    H224839   5.135   3.568   0.275 -2.0494  0.0578 -1.4113
 1142TIP3   OH224840   5.958   5.608   3.770  0.5054  0.1845 -0.5774
 1142TIP3    H124841   6.016   5.581   3.699 -0.1423 -0.4922 -0.8546
 1142TIP3    H224842   5.870   5.596   3.736  0.1387 -2.3972  1.1268
 1143TIP3   OH224843   4.057   3.115  10.897  0.3401 -0.5553 -0.4520
 1143TIP3    H124844   4.118   3.045  10.918  0.5964  0.0666  0.9289
 1143TIP3    H224845   4.111   3.183  10.857  0.2168 -0.8044 -1.0583
 1144TIP3   OH224846   1.823   0.473   4.732  0.3579  0.0963 -0.1127
 1144TIP3    H124847   1.773   0.551   4.756  0.0410 -0.5796  1.4848
 1144TIP3    H224848   1.757   0.409   4.707  0.5470 -0.1076 -0.0904
 1145TIP3   OH224849   2.369   1.877  11.857 -0.4647  0.6356 -0.1042
 1145TIP3    H124850   2.308   1.868  11.784 -1.6396  0.8061  0.8426
 1145TIP3    H224851   2.347   1.961  11.896 -0.5441  0.0696  1.0831
 1146TIP3   OH224852   0.011   1.353   3.148 -0.1350  0.4767 -0.5792
 1146TIP3    H124853   0.020   1.445   3.122  1.5064  0.2957 -0.7048
 1146TIP3    H224854   0.092   1.312   3.118 -0.2735 -0.7265  0.6709
 1147TIP3   OH224855   4.790   5.595   5.525 -0.7562  0.3214 -0.4953
 1147TIP3    H124856   4.721   5.637   5.577 -0.4989 -0.1080  0.2117
 1147TIP3    H224857   4.871   5.629   5.563 -0.5740  0.6949 -1.2115
 1148TIP3   OH224858   4.808   1.073  16.271  0.1287  0.0430 -0.1584
 1148TIP3    H124859   4.890   1.122  16.278  0.2507  0.0211 -1.3040
 1148TIP3    H224860   4.796   1.060  16.177 -1.1479 -0.0231  0.0011
 1149TIP3   OH224861   0.953   0.362   4.174  0.2266 -0.3677 -0.0901
 1149TIP3    H124862   0.964   0.446   4.219  0.5020 -0.1274 -0.5999
 1149TIP3    H224863   0.998   0.299   4.229  0.2443 -0.1382  0.1621
 1150TIP3   OH224864   0.572   6.374   0.919  0.2138 -0.5067 -0.2226
 1150TIP3    H124865   0.504   6.410   0.863 -0.6302 -0.4996  0.7819
 1150TIP3    H224866   0.617   6.450   0.955  2.0444 -0.5176 -2.3944
 1151TIP3   OH224867   4.865   6.371  15.463  0.4830  0.4692 -0.4816
 1151TIP3    H124868   4.841   6.381  15.555  2.0078 -3.6322  0.4423
 1151TIP3    H224869   4.956   6.402  15.459  0.3375  0.8836 -0.6972
 1152TIP3   OH224870   2.144   0.483  10.587 -0.4021  0.4097  0.1948
 1152TIP3    H124871   2.227   0.436  10.581 -1.2513 -0.9977 -0.9509
 1152TIP3    H224872   2.080   0.415  10.608 -1.0423  1.7220  2.6150
 1153TIP3   OH224873   6.493   0.094  15.497  0.1859  0.2676 -0.1931
 1153TIP3    H124874   6.462   0.143  15.420  0.1992  0.4187 -0.1037
 1153TIP3    H224875   6.439   0.016  15.499  1.1926 -0.4657 -1.2188
 1154TIP3   OH224876   1.657   5.531   5.941 -0.1202 -0.1615 -0.0147
 1154TIP3    H124877   1.686   5.600   6.001 -0.9481  0.9386 -0.8701
 1154TIP3    H224878   1.674   5.450   5.989  2.2531  0.5436  0.4127
 1155TIP3   OH224879   2.332   1.834  13.274 -0.0898  0.3585 -0.1375
 1155TIP3    H124880   2.372   1.754  13.241 -0.8588 -0.2836  0.4380
 1155TIP3    H224881   2.294   1.808  13.359  0.0024  1.4307  0.2387
 1156TIP3   OH224882   0.854   6.487  12.974  0.7802 -0.0958 -0.6635
 1156TIP3    H124883   0.918   6.496  13.044  0.2430  1.7440 -0.3821
 1156TIP3    H224884   0.907   6.470  12.896  1.5859  0.7947 -0.3257
 1157TIP3   OH224885   3.133   1.857   4.643  0.2108  0.3971 -0.1420
 1157TIP3    H124886   3.175   1.772   4.632  0.4172  0.7385 -2.2198
 1157TIP3    H224887   3.099   1.878   4.556 -1.1510  1.7544  0.6974
 1158TIP3   OH224888   1.115   2.961   4.203  0.6766  0.0690  0.2052
 1158TIP3    H124889   1.035   3.006   4.176  0.2375 -0.9179 -0.1599
 1158TIP3    H224890   1.146   3.010   4.279  0.5353  1.3475 -0.5511
 1159TIP3   OH224891   0.328   2.513  12.040 -0.2850  0.4332 -0.5576
 1159TIP3    H124892   0.322   2.595  12.088  2.4989  1.7225 -2.2856
 1159TIP3    H224893   0.416   2.480  12.061 -1.2548 -1.9785 -0.1210
 1160TIP3   OH224894   3.349   4.658  14.638 -0.3943 -0.1167  0.2689
 1160TIP3    H124895   3.340   4.611  14.555 -0.0386 -0.3270  0.3509
 1160TIP3    H224896   3.355   4.750  14.613 -1.7404 -0.0576  0.1472
 1161TIP3   OH224897   2.935   6.073  11.689  0.1589 -0.3424 -0.6333
 1161TIP3    H124898   2.866   6.079  11.755  0.4826 -0.7885 -0.2517
 1161TIP3    H224899   2.922   5.987  11.649  2.6954 -1.9817  1.9166
 1162TIP3   OH224900   4.307   3.356   1.021 -0.1511  0.0849  0.7469
 1162TIP3    H124901   4.281   3.381   0.933  2.0080  1.1104  0.3668
 1162TIP3    H224902   4.270   3.425   1.077  1.0558  1.1226  0.2957
 1163TIP3   OH224903   0.884   5.680   2.262  0.2704 -0.2663 -0.6655
 1163TIP3    H124904   0.889   5.584   2.262 -0.7053 -0.3233 -0.4833
 1163TIP3    H224905   0.826   5.701   2.335  1.4169  0.5299  0.0328
 1164TIP3   OH224906   4.995   2.224   2.193  0.5177 -0.6143  0.2747
 1164TIP3    H124907   4.933   2.295   2.177  0.2517 -1.0885 -0.8375
 1164TIP3    H224908   4.945   2.159   2.242 -0.1369 -1.4099 -1.4428
 1165TIP3   OH224909   2.447   4.806   1.320  0.4957  0.2114 -0.2542
 1165TIP3    H124910   2.397   4.865   1.376 -0.8140 -1.3153  0.2398
 1165TIP3    H224911   2.413   4.823   1.232 -1.2045 -1.0524  0.1189
 1166TIP3   OH224912   3.478   0.147  17.170 -0.1741  0.0720 -0.5023
 1166TIP3    H124913   3.501   0.058  17.145 -0.9462 -0.5621  1.0179
 1166TIP3    H224914   3.411   0.172  17.106  0.2214 -0.3318 -1.0882
 1167TIP3   OH224915   6.692   0.254   1.383 -0.0703  0.2883  0.0557
 1167TIP3    H124916   6.759   0.244   1.316 -0.9882  0.0803 -0.8503
 1167TIP3    H224917   6.666   0.346   1.377 -0.2335  0.2420  0.0304
 1168TIP3   OH224918   1.787   2.547  14.163 -0.5627  0.1066  0.1630
 1168TIP3    H124919   1.845   2.496  14.220 -1.1126 -0.5131  0.1816
 1168TIP3    H224920   1.799   2.637  14.191  0.8756  0.0533 -0.2670
 1169TIP3   OH224921   0.937   3.109   6.028  0.5755 -0.4191  0.4622
 1169TIP3    H124922   0.913   3.181   6.086  0.8175 -0.2856  0.3966
 1169TIP3    H224923   0.857   3.057   6.021  0.8451 -1.0514  1.8184
 1170TIP3   OH224924   0.011   3.370   0.753  0.3240  0.1467  0.3361
 1170TIP3    H124925   0.059   3.336   0.677 -0.3502  0.3065 -0.1624
 1170TIP3    H224926  -0.080   3.371   0.726  0.1149  0.5158  1.0367
 1171TIP3   OH224927   0.306   2.005  17.091  0.2202 -0.2151 -0.4251
 1171TIP3    H124928   0.335   2.086  17.049  0.5047 -0.0595  0.0643
 1171TIP3    H224929   0.386   1.953  17.100  0.3398  0.1572  0.8025
 1172TIP3   OH224930   1.590   3.787   0.564 -0.3605  0.0693 -0.3455
 1172TIP3    H124931   1.669   3.755   0.519 -0.6384  2.4399 -2.6303
 1172TIP3    H224932   1.520   3.729   0.533  0.2440 -1.3072  0.7918
 1173TIP3   OH224933   4.897   2.082   4.684  0.3668  0.5902 -0.1240
 1173TIP3    H124934   4.892   2.081   4.779  0.6779  2.4864 -0.0629
 1173TIP3    H224935   4.983   2.046   4.664  0.0279 -0.4552  0.2702
 1174TIP3   OH224936   1.971   1.493   4.090 -0.5471 -0.0204 -0.5867
 1174TIP3    H124937   1.952   1.464   4.000 -0.1414 -0.0118 -0.6742
 1174TIP3    H224938   2.038   1.432   4.121 -0.1130  0.4653 -0.5663
 1175TIP3   OH224939   0.581   3.031  16.570 -0.8528  0.2428  0.7707
 1175TIP3    H124940   0.514   3.004  16.507 -1.2286 -2.3706  2.2472
 1175TIP3    H224941   0.575   2.967  16.641  0.9750  1.9145  2.4989
 1176TIP3   OH224942   3.195   2.205  11.591 -0.0878 -0.3066 -0.1078
 1176TIP3    H124943   3.234   2.167  11.512 -0.8869 -0.4769 -0.4231
 1176TIP3    H224944   3.102   2.212  11.571 -0.1612  0.5174  0.4726
 1177TIP3   OH224945   6.100   4.206  12.598 -0.0857 -0.4380 -0.3053
 1177TIP3    H124946   6.054   4.191  12.515  1.0016  0.5091 -1.0944
 1177TIP3    H224947   6.120   4.118  12.630 -1.3275 -0.8269 -0.5809
 1178TIP3   OH224948   4.231   5.802   2.623  0.0400  0.4496 -0.1678
 1178TIP3    H124949   4.230   5.897   2.614  0.0081  0.3461 -1.3128
 1178TIP3    H224950   4.319   5.781   2.653 -0.5325  0.9910  2.0110
 1179TIP3   OH224951   3.344   0.967   5.691 -0.3082  0.1402 -0.5432
 1179TIP3    H124952   3.400   0.889   5.698  0.0757  0.4683  0.0059
 1179TIP3    H224953   3.255   0.933   5.701 -0.0989 -0.1343  0.4283
 1180TIP3   OH224954   3.332   6.652  16.506  0.0209  0.2088  0.2860
 1180TIP3    H124955   3.258   6.617  16.555 -0.3116  0.6414  0.0955
 1180TIP3    H224956   3.401   6.586  16.516 -0.5827 -0.4830 -0.0318
 1181TIP3   OH224957   4.314   6.551  14.602  0.1288  0.3375  0.3070
 1181TIP3    H124958   4.331   6.461  14.628  2.9849  0.6399 -0.3600
 1181TIP3    H224959   4.257   6.545  14.526  0.0878 -0.8908  0.4356
 1182TIP3   OH224960   3.653   5.472  14.605 -0.6014  0.0917  0.0897
 1182TIP3    H124961   3.667   5.542  14.669  0.0415  0.3382 -0.3127
 1182TIP3    H224962   3.680   5.393  14.651  0.3501  0.3316 -0.0412
 1183TIP3   OH224963   4.842   2.459  14.649 -0.4551  0.2774 -0.1133
 1183TIP3    H124964   4.875   2.491  14.733  0.3857 -1.8761  0.4251
 1183TIP3    H224965   4.754   2.427  14.668 -0.6534  0.7215 -0.2782
 1184TIP3   OH224966   5.537   1.441  13.656  0.1383  0.5138  0.3484
 1184TIP3    H124967   5.537   1.484  13.741  2.3780 -2.8575  2.1923
 1184TIP3    H224968   5.484   1.362  13.669 -1.2607  0.9876 -2.0329
 1185TIP3   OH224969   0.720   4.655  11.806 -0.3801 -0.3422  0.0105
 1185TIP3    H124970   0.812   4.664  11.830 -1.0662  2.8438  1.8429
 1185TIP3    H224971   0.719   4.660  11.710  1.2381  1.1552  0.0521
 1186TIP3   OH224972   5.159   6.652  12.902 -0.4685  0.0656  0.0739
 1186TIP3    H124973   5.214   6.690  12.833 -2.1541 -0.7042 -1.7770
 1186TIP3    H224974   5.098   6.722  12.925 -0.8206 -0.1213 -0.2684
 1187TIP3   OH224975   6.189   2.999  12.641 -0.0062  0.2060  0.5741
 1187TIP3    H124976   6.110   3.053  12.647 -0.7156 -0.8830  1.2916
 1187TIP3    H224977   6.261   3.060  12.657 -0.7193  1.1686  0.1581
 1188TIP3   OH224978   5.058   0.054   0.384 -0.1683  0.3513 -0.0211
 1188TIP3    H124979   5.091   0.136   0.420  1.4082 -0.2732  0.0042
 1188TIP3    H224980   5.083  -0.012   0.448  0.2637 -0.3968 -0.9482
 1189TIP3   OH224981   4.452   1.129   0.278  0.5742  0.3495  0.0195
 1189TIP3    H124982   4.423   1.096   0.193 -1.3052  0.1483  0.7163
 1189TIP3    H224983   4.447   1.053   0.336  0.5708  0.7852  0.5990
 1190TIP3   OH224984   3.497   0.428  11.895  0.2613  0.1842 -0.6314
 1190TIP3    H124985   3.489   0.333  11.905 -0.1334  0.3082  0.2665
 1190TIP3    H224986   3.539   0.440  11.810  1.5503 -0.8362 -0.1530
 1191TIP3   OH224987   4.282   1.584   1.476  0.5213 -0.1727  0.3471
 1191TIP3    H124988   4.369   1.553   1.450  0.4279 -1.3603  1.3580
 1191TIP3    H224989   4.245   1.623   1.397  1.6702 -0.3721 -0.3011
 1192TIP3   OH224990   6.368   2.176  12.981  0.1780 -0.0999  0.3600
 1192TIP3    H124991   6.386   2.189  12.888  0.6290  0.1868  0.4867
 1192TIP3    H224992   6.392   2.259  13.022 -1.8178  0.4394  0.4805
 1193TIP3   OH224993   1.451   6.338   0.456 -0.7049  0.1188  0.0502
 1193TIP3    H124994   1.478   6.277   0.388  0.0278 -0.9058  1.2290
 1193TIP3    H224995   1.398   6.403   0.411 -0.7533 -0.8931 -1.3754
 1194TIP3   OH224996   4.914   0.485  10.857 -0.3248  0.7536  0.2893
 1194TIP3    H124997   4.943   0.394  10.849 -2.0846  0.0688  1.5997
 1194TIP3    H224998   4.993   0.536  10.840  0.0497 -0.9342 -3.5783
 1195TIP3   OH224999   1.485   0.754   0.052 -0.0833  0.4903 -0.0006
 1195TIP3    H125000   1.464   0.707  -0.028  2.0763  0.3358 -0.5042
 1195TIP3    H225001   1.455   0.696   0.122 -0.6875 -0.0213 -0.6753
 1196TIP3   OH225002   5.060   4.848  11.878 -0.2098 -0.3715 -0.2477
 1196TIP3    H125003   5.020   4.927  11.915 -2.3150 -2.0824  1.2812
 1196TIP3    H225004   5.098   4.803  11.953  2.3215 -0.1309 -1.3235
 1197TIP3   OH225005   3.875   3.228  12.694 -1.0081 -0.3938 -0.4553
 1197TIP3    H125006   3.802   3.196  12.641 -1.7142 -1.3661  1.0740
 1197TIP3    H225007   3.853   3.202  12.784  0.1733  1.1931  0.3256
 1198TIP3   OH225008   2.728   4.097   2.791  0.1292 -0.0051 -0.1191
 1198TIP3    H125009   2.648   4.073   2.743 -1.6530  0.3063  2.6022
 1198TIP3    H225010   2.740   4.026   2.854 -0.3211  1.9528  2.2210
 1199TIP3   OH225011   5.501   1.382   2.632  0.7257 -0.0047  0.2143
 1199TIP3    H125012   5.590   1.360   2.660  1.8870  1.7077 -1.9575
 1199TIP3    H225013   5.507   1.473   2.602 -1.9896  0.4643  0.9520
 1200TIP3   OH225014   3.067   3.497   4.974  0.0816 -0.2823 -0.4756
 1200TIP3    H125015   2.983   3.543   4.968 -0.9222 -1.9351  0.5784
 1200TIP3    H225016   3.085   3.468   4.885  0.0982  1.0506 -0.9179
 1201TIP3   OH225017   1.003   2.707   4.092 -0.5894 -0.0107  0.0096
 1201TIP3    H125018   1.013   2.798   4.121  1.9471 -0.6326  1.2547
 1201TIP3    H225019   1.086   2.687   4.048 -1.4773 -1.4631 -1.0589
 1202TIP3   OH225020   2.963   3.631   4.699 -0.0104  0.2821 -0.0745
 1202TIP3    H125021   3.015   3.553   4.722 -0.3026  0.4357  1.1476
 1202TIP3    H225022   3.027   3.702   4.696  0.3130 -0.0571 -1.5364
 1203TIP3   OH225023   2.427   5.551   5.465  0.3623 -0.6352 -0.1356
 1203TIP3    H125024   2.508   5.549   5.517  1.6267 -2.5963 -2.1323
 1203TIP3    H225025   2.363   5.506   5.520  0.5271  1.0566  1.5272
 1204TIP3   OH225026   6.339   4.592   4.828 -0.4922 -0.3664  0.3597
 1204TIP3    H125027   6.415   4.535   4.816  0.7199  1.3282 -0.1590
 1204TIP3    H225028   6.280   4.567   4.756 -0.5169 -1.7911  0.8539
 1205TIP3   OH225029   1.023   2.517   1.704  0.1240 -0.0295  0.2930
 1205TIP3    H125030   0.988   2.601   1.736 -1.1287 -0.2224 -0.5577
 1205TIP3    H225031   1.104   2.506   1.753 -0.2633  1.1394  1.2419
 1206TIP3   OH225032   4.726   5.274   4.433 -0.0907  0.1598  0.2248
 1206TIP3    H125033   4.756   5.241   4.349 -1.4946 -0.6179 -0.0034
 1206TIP3    H225034   4.717   5.195   4.488 -0.3904  0.5185  0.7000
 1207TIP3   OH225035   0.042   1.693   2.553 -0.4294 -0.1093  0.0068
 1207TIP3    H125036   0.122   1.658   2.591 -0.7678  0.9769  1.7696
 1207TIP3    H225037   0.043   1.662   2.462  1.2447 -1.3141  0.4126
 1208TIP3   OH225038   2.012   6.000   6.351  0.2370 -0.0921  1.3113
 1208TIP3    H125039   1.929   5.955   6.334  0.8903 -1.0010  0.4907
 1208TIP3    H225040   2.006   6.029   6.443 -1.2521  0.4391  1.0560
 1209TIP3   OH225041   2.361   1.870   3.030  0.6163 -0.2518 -0.3756
 1209TIP3    H125042   2.405   1.827   3.102  0.2488  0.5994  0.3666
 1209TIP3    H225043   2.327   1.798   2.976 -0.9478 -0.9187  1.4277
 1210TIP3   OH225044   0.876   1.175   5.172 -0.3668  0.2131  0.1253
 1210TIP3    H125045   0.921   1.127   5.241 -0.5623 -0.1106  0.0301
 1210TIP3    H225046   0.801   1.215   5.216 -1.3126 -1.1815 -0.1743
 1211TIP3   OH225047   3.015   4.722  13.589 -0.5060  0.4176 -0.0480
 1211TIP3    H125048   2.929   4.753  13.559 -0.5451  1.4164  1.0696
 1211TIP3    H225049   3.022   4.633  13.553 -2.3106  0.0561  0.4505
 1212TIP3   OH225050   3.615   3.343   3.048 -0.2770  0.2579  0.4771
 1212TIP3    H125051   3.676   3.295   3.103 -1.1700  0.8121  1.9751
 1212TIP3    H225052   3.572   3.275   2.996  1.7632 -0.1132 -0.7880
 1213TIP3   OH225053   4.541   0.815  12.377 -0.0470  0.4295 -0.0147
 1213TIP3    H125054   4.514   0.798  12.286  0.5128 -0.1902 -0.0667
 1213TIP3    H225055   4.634   0.792  12.379  0.1974  1.4358  0.4594
 1214TIP3   OH225056   5.023   0.144  11.765  0.2710  0.2816  0.3943
 1214TIP3    H125057   4.965   0.071  11.785 -0.6358  1.0494  0.6245
 1214TIP3    H225058   5.067   0.163  11.848  0.2921  0.1904  0.4040
 1215TIP3   OH225059   1.162   5.758  17.055 -0.7173 -0.7991 -0.6399
 1215TIP3    H125060   1.198   5.703  17.125  0.5272  0.6571 -0.1159
 1215TIP3    H225061   1.086   5.800  17.095  0.2433  0.3605 -0.0227
 1216TIP3   OH225062   0.564   4.422  12.204  0.1766 -0.3277 -0.3255
 1216TIP3    H125063   0.520   4.392  12.284 -0.2997 -1.7734 -1.1232
 1216TIP3    H225064   0.650   4.453  12.234 -0.8610  1.3092  1.0598
 1217TIP3   OH225065   6.282   3.142  16.573 -0.0701  0.2992 -0.6337
 1217TIP3    H125066   6.361   3.166  16.524  1.0690 -1.0784  0.4703
 1217TIP3    H225067   6.315   3.092  16.648 -1.9776  0.0252  0.0434
 1218TIP3   OH225068   4.996   0.258  10.686  0.0735  0.4797  0.3691
 1218TIP3    H125069   4.909   0.220  10.675  0.2081 -0.2708  1.8527
 1218TIP3    H225070   5.057   0.190  10.657  0.2503  0.0957  1.5957
 1219TIP3   OH225071   0.194   5.407  16.372  1.1250 -0.0848 -0.3111
 1219TIP3    H125072   0.155   5.321  16.359  1.3787 -0.3608  0.7170
 1219TIP3    H225073   0.275   5.404  16.321  1.9985 -1.0765  1.1008
 1220TIP3   OH225074   5.331   0.386   0.544 -0.0122  0.0149  0.5335
 1220TIP3    H125075   5.308   0.442   0.618  0.4431 -0.7564  1.2710
 1220TIP3    H225076   5.422   0.408   0.524 -0.4868  1.0379 -0.5441
 1221TIP3   OH225077   1.853   3.320   4.550  0.2315 -0.0184  0.0682
 1221TIP3    H125078   1.943   3.319   4.583  0.1704  0.8917  0.2803
 1221TIP3    H225079   1.825   3.229   4.554  1.7588 -0.5895 -1.7133
 1222TIP3   OH225080   5.116   1.479  15.344 -0.4499  0.8065 -0.0497
 1222TIP3    H125081   5.137   1.555  15.398  2.0069  1.2589 -1.5675
 1222TIP3    H225082   5.173   1.487  15.267  0.1237 -2.7201 -0.1000
 1223TIP3   OH225083   1.489   2.846   2.887  0.3514  0.0921  0.1243
 1223TIP3    H125084   1.566   2.901   2.902  0.1587  0.5342 -0.4979
 1223TIP3    H225085   1.478   2.846   2.792 -0.4786  0.1090  0.2165
 1224TIP3   OH225086   4.300   6.036   4.897 -0.1065  0.0036 -0.1740
 1224TIP3    H125087   4.303   6.105   4.831  0.6519  0.8372  0.7272
 1224TIP3    H225088   4.352   5.965   4.860 -2.2258 -0.7458 -1.8203
 1225TIP3   OH225089   3.434   3.826  10.901 -0.6088  0.0426  0.1865
 1225TIP3    H125090   3.454   3.909  10.945 -0.1074 -0.2952  0.6199
 1225TIP3    H225091   3.482   3.761  10.952  2.1068 -0.0636 -2.3654
 1226TIP3   OH225092   5.083   0.872   1.280 -0.3029 -0.4344 -0.3273
 1226TIP3    H125093   5.029   0.935   1.329  1.2028 -0.0755  0.9114
 1226TIP3    H225094   5.173   0.897   1.300  0.3217 -1.8519 -1.3041
 1227TIP3   OH225095   6.453   2.779  15.104  0.1317 -0.0130  0.0654
 1227TIP3    H125096   6.510   2.808  15.175 -0.3146  1.7760 -0.2961
 1227TIP3    H225097   6.433   2.688  15.126  1.6036 -0.0909  1.1766
 1228TIP3   OH225098   6.585   3.027  13.160  0.4525 -0.2706 -0.0056
 1228TIP3    H125099   6.577   3.053  13.251 -0.1863  0.9557 -0.3959
 1228TIP3    H225100   6.614   3.106  13.115  1.1844 -0.9775 -0.8056
 1229TIP3   OH225101   6.252   1.652   0.503  0.4312  0.2311  0.8384
 1229TIP3    H125102   6.197   1.699   0.565  1.2609 -0.4646  2.1053
 1229TIP3    H225103   6.317   1.716   0.475  0.4794  0.3471  1.2177
 1230TIP3   OH225104   0.416   5.436  15.676 -0.0454 -0.2268  0.3872
 1230TIP3    H125105   0.510   5.435  15.659 -0.4335  0.8433 -2.1007
 1230TIP3    H225106   0.390   5.344  15.670  0.7958 -0.4922  0.7538
 1231TIP3   OH225107   1.283   5.589   5.280  0.6443 -0.4034 -0.1330
 1231TIP3    H125108   1.326   5.508   5.307 -0.2314 -1.2073 -1.0836
 1231TIP3    H225109   1.301   5.595   5.186  0.5326  0.4092 -0.1083
 1232TIP3   OH225110   0.800   2.950   1.349 -0.0907  0.2685 -0.3030
 1232TIP3    H125111   0.753   3.003   1.284  0.0665  2.0929  1.0564
 1232TIP3    H225112   0.846   3.013   1.404  0.4739 -1.2972  1.0737
 1233TIP3   OH225113   1.733   3.683  17.051 -0.0210  0.3483 -0.2738
 1233TIP3    H125114   1.743   3.640  17.136  0.3147 -1.0921 -1.0155
 1233TIP3    H225115   1.727   3.776  17.071  1.2279  0.1167  1.2260
 1234TIP3   OH225116   0.324   6.608   5.119 -0.0367  0.5205  0.5413
 1234TIP3    H125117   0.237   6.605   5.160  0.0093 -0.0023  0.5997
 1234TIP3    H225118   0.327   6.530   5.063 -1.4974  3.1097 -3.3252
 1235TIP3   OH225119   2.566   1.771  11.569 -0.6165  0.0961  0.0575
 1235TIP3    H125120   2.582   1.719  11.490 -1.3340  2.3072 -1.5765
 1235TIP3    H225121   2.647   1.764  11.619  0.6930  0.5066 -1.9535
 1236TIP3   OH225122   4.264   4.437   3.062 -0.2056  0.4175 -0.6617
 1236TIP3    H125123   4.224   4.517   3.095  1.0528  0.5251  0.6717
 1236TIP3    H225124   4.201   4.368   3.084 -0.5144  0.8218 -0.2812
 1237TIP3   OH225125   2.781   0.778   4.380 -0.2317 -0.5421 -0.2154
 1237TIP3    H125126   2.853   0.717   4.396  0.3298  0.2219  0.1969
 1237TIP3    H225127   2.822   0.864   4.381 -0.8296 -0.2174 -1.9028
 1238TIP3   OH225128   6.041   6.592   5.155  0.0441 -0.6558  0.3986
 1238TIP3    H125129   5.953   6.625   5.170  0.1122 -0.2702 -0.0081
 1238TIP3    H225130   6.058   6.532   5.227  0.6748  1.7379  2.2927
 1239TIP3   OH225131   4.654   3.667   3.132  0.4289 -0.0131 -0.3554
 1239TIP3    H125132   4.706   3.587   3.124  2.0845  1.0690 -0.5812
 1239TIP3    H225133   4.706   3.724   3.189  0.5452  1.9147 -2.3292
 1240TIP3   OH225134   2.253   3.382   4.562 -0.4157  0.2887  0.2170
 1240TIP3    H125135   2.345   3.370   4.587 -0.7188 -0.0165  1.2049
 1240TIP3    H225136   2.254   3.459   4.505  0.5978 -0.3389 -0.6306
 1241TIP3   OH225137   2.844   1.216  12.607 -0.2147 -0.4221 -0.0032
 1241TIP3    H125138   2.837   1.121  12.592  1.1728 -0.5806  0.3069
 1241TIP3    H225139   2.875   1.224  12.697 -1.5554  0.3718  0.4009
 1242TIP3   OH225140   3.272   1.290  15.941 -0.6532 -0.0098 -0.0934
 1242TIP3    H125141   3.344   1.305  15.879 -0.3483 -0.2429  0.2019
 1242TIP3    H225142   3.286   1.356  16.010 -1.5304  0.8631 -0.7449
 1243TIP3   OH225143   1.237   4.411  17.030 -0.7502  0.0961 -0.1015
 1243TIP3    H125144   1.180   4.456  16.968 -0.2854  1.6638  0.5785
 1243TIP3    H225145   1.326   4.430  16.999 -0.5679 -1.2446 -0.4085
 1244TIP3   OH225146   3.795   4.084  13.492  0.3239 -0.0327  0.0984
 1244TIP3    H125147   3.726   4.116  13.433  0.6666 -0.0033 -0.2865
 1244TIP3    H225148   3.861   4.153  13.491 -0.6211  0.9591  2.1773
 1245TIP3   OH225149   3.596   3.436   5.622  0.5427 -0.3935 -0.2959
 1245TIP3    H125150   3.637   3.513   5.659 -1.5457  1.7912 -2.3222
 1245TIP3    H225151   3.569   3.384   5.697  0.8705  1.4694  1.1403
 1246TIP3   OH225152   4.765   6.524  16.827  0.3922  0.1280  0.0278
 1246TIP3    H125153   4.752   6.449  16.885  0.4585  0.5378  0.5806
 1246TIP3    H225154   4.837   6.573  16.866 -1.2487  1.7992  1.0559
 1247TIP3   OH225155   2.687   1.209   3.523  0.2732  0.0538 -0.3610
 1247TIP3    H125156   2.654   1.219   3.433  0.0558  1.5328 -0.1334
 1247TIP3    H225157   2.649   1.283   3.571 -0.0381 -1.0360  1.0876
 1248TIP3   OH225158   2.522   4.888  15.896 -0.2989 -0.3015  0.2004
 1248TIP3    H125159   2.589   4.839  15.848 -0.2638  0.7948 -0.9117
 1248TIP3    H225160   2.443   4.836  15.888 -0.0395 -0.6457 -0.1687
 1249TIP3   OH225161   4.931   3.687  12.882 -0.1993 -0.2734 -0.5057
 1249TIP3    H125162   4.945   3.664  12.974  1.2167  0.8602 -0.4158
 1249TIP3    H225163   4.897   3.607  12.842 -0.1538 -0.9815  0.8535
 1250TIP3   OH225164   3.600   0.246  15.951 -0.4218  0.1544  0.1246
 1250TIP3    H125165   3.603   0.332  15.995 -1.3676  0.2009  0.1023
 1250TIP3    H225166   3.554   0.263  15.869  2.2015  0.2647 -1.3851
 1251TIP3   OH225167   2.062   6.705   0.300  0.2315 -0.0881  0.5881
 1251TIP3    H125168   2.130   6.772   0.300 -0.4867  0.6539  0.9331
 1251TIP3    H225169   2.081   6.652   0.378  0.5934 -0.0783  0.5097
 1252TIP3   OH225170   5.911   4.733   6.600  0.2124 -0.6836  0.2734
 1252TIP3    H125171   5.904   4.653   6.653  0.6962 -1.6002 -1.0281
 1252TIP3    H225172   5.985   4.717   6.542 -0.2821  0.3303 -0.6576
 1253TIP3   OH225173   4.865   0.159  13.879 -0.5111 -0.0112  0.0485
 1253TIP3    H125174   4.821   0.216  13.816  0.1042 -0.5948 -0.9238
 1253TIP3    H225175   4.957   0.158  13.851 -0.1030  0.2247  1.3242
 1254TIP3   OH225176   1.610   6.682  13.505  0.2575  0.3376 -0.1511
 1254TIP3    H125177   1.660   6.623  13.561 -1.6965  0.9487  2.3225
 1254TIP3    H225178   1.565   6.624  13.443  1.0430 -0.4910  0.0416
 1255TIP3   OH225179   3.052   6.146  12.303  0.2248 -0.2894  0.1470
 1255TIP3    H125180   3.059   6.231  12.258  1.1586 -0.5613 -0.2377
 1255TIP3    H225181   3.140   6.129  12.335 -0.4362 -0.0930  2.1218
 1256TIP3   OH225182   0.071   0.289  17.023 -0.2051 -0.0541 -0.2446
 1256TIP3    H125183   0.157   0.315  17.056 -0.9786 -0.0250  1.8742
 1256TIP3    H225184   0.025   0.371  17.008 -0.1136 -0.0810 -0.6682
 1257TIP3   OH225185   6.240   3.791  14.899  0.0032  0.7520  0.1926
 1257TIP3    H125186   6.185   3.865  14.872 -1.4005  0.8855  3.2651
 1257TIP3    H225187   6.316   3.831  14.940  0.1517  0.5224  0.1443
 1258TIP3   OH225188   4.841   2.931   1.905  0.6906  0.0154  0.0702
 1258TIP3    H125189   4.799   2.861   1.955 -0.9481 -0.5559 -2.0451
 1258TIP3    H225190   4.920   2.952   1.955  0.7726 -2.7662  1.1934
 1259TIP3   OH225191   4.774   5.831   4.940  0.2308  0.9209 -0.1344
 1259TIP3    H125192   4.839   5.767   4.911  0.2236  0.1791  1.4443
 1259TIP3    H225193   4.826   5.908   4.965  0.2369  1.5672 -2.0446
 1260TIP3   OH225194   1.046   4.428  14.535  0.0685  0.3014  0.5463
 1260TIP3    H125195   0.973   4.444  14.595 -0.6226  1.2812 -0.5453
 1260TIP3    H225196   1.079   4.515  14.514 -0.3953  0.0318 -1.3511
 1261TIP3   OH225197   1.452   2.567  16.111  0.5471 -0.4512  0.5832
 1261TIP3    H125198   1.546   2.548  16.119  0.5283  0.1244  2.6855
 1261TIP3    H225199   1.425   2.587  16.201 -1.8582 -1.7778  0.1882
 1262TIP3   OH225200   6.408   3.500  11.647 -0.5078 -0.1505 -0.3893
 1262TIP3    H125201   6.435   3.574  11.592 -3.1758  2.9265  2.2288
 1262TIP3    H225202   6.320   3.478  11.615 -0.2494 -1.3408 -0.2888
 1263TIP3   OH225203   4.931   4.440  14.965  0.1731  0.2453  0.2375
 1263TIP3    H125204   4.973   4.360  14.932 -0.9202 -1.0004  1.8177
 1263TIP3    H225205   4.838   4.420  14.966 -0.0901  1.4453  0.9578
 1264TIP3   OH225206   5.224   1.522  14.525 -0.0096 -0.0409 -0.0306
 1264TIP3    H125207   5.311   1.498  14.493 -0.3202  0.2686 -1.1226
 1264TIP3    H225208   5.194   1.590  14.465 -0.6103  0.5376  0.9163
 1265TIP3   OH225209   3.848   2.594   1.848 -0.1262  0.3137 -0.0173
 1265TIP3    H125210   3.796   2.578   1.770 -0.1890  0.2022  0.0465
 1265TIP3    H225211   3.850   2.509   1.893 -1.5976  0.8115  1.0144
 1266TIP3   OH225212   0.080   4.291  14.823 -0.2593  0.1013  0.2767
 1266TIP3    H125213   0.152   4.237  14.790 -1.5155  0.6844 -3.5608
 1266TIP3    H225214   0.053   4.246  14.904  2.1062 -2.0541 -0.0385
 1267TIP3   OH225215   0.087   2.797  13.258  0.0653 -0.0004  0.4552
 1267TIP3    H125216   0.144   2.793  13.181 -1.0115  0.5440 -0.3767
 1267TIP3    H225217   0.077   2.890  13.276  1.4122 -0.1329  2.1087
 1268TIP3   OH225218   2.728   0.486   3.123 -0.0027  0.7978  0.4046
 1268TIP3    H125219   2.668   0.421   3.160  0.4401  0.0849 -0.1323
 1268TIP3    H225220   2.692   0.504   3.036  1.4425 -0.8169 -0.5583
 1269TIP3   OH225221   3.027   1.551   5.327  0.1040  0.7712  0.0208
 1269TIP3    H125222   3.003   1.583   5.414  1.7005 -0.5279  0.9729
 1269TIP3    H225223   2.949   1.504   5.297  0.0879 -0.1797  1.4670
 1270TIP3   OH225224   1.526   1.946  10.319 -0.1470 -0.1409 -0.1160
 1270TIP3    H125225   1.556   1.898  10.397  0.6537 -0.1994 -0.4480
 1270TIP3    H225226   1.603   1.948  10.262 -0.8420 -0.4397 -1.0812
 1271TIP3   OH225227   1.512   0.441   0.630  0.3273 -0.2219 -0.3917
 1271TIP3    H125228   1.471   0.369   0.679  1.4561 -0.8701 -0.3965
 1271TIP3    H225229   1.494   0.519   0.684 -0.4274 -0.5812 -0.1145
 1272TIP3   OH225230   6.617   0.203  16.292 -0.0900  0.1253 -1.0846
 1272TIP3    H125231   6.583   0.188  16.381  0.3263 -1.7777 -1.2341
 1272TIP3    H225232   6.577   0.285  16.265  1.8139  2.1616  1.8795
 1273TIP3   OH225233   0.581   5.671  14.318 -0.0469 -0.3254  0.1784
 1273TIP3    H125234   0.580   5.763  14.347 -0.8155 -0.6575  1.2171
 1273TIP3    H225235   0.670   5.658  14.284 -0.3643  1.2051 -1.2967
 1274TIP3   OH225236   5.035   0.412  11.301  0.1577 -0.5554 -0.5773
 1274TIP3    H125237   4.969   0.351  11.334 -1.5098  1.0622 -0.8286
 1274TIP3    H225238   5.008   0.497  11.334  1.4019  0.3306 -1.7646
 1275TIP3   OH225239   2.626   1.787  15.170 -0.5199  0.4746  0.1309
 1275TIP3    H125240   2.595   1.771  15.259  1.6403  0.2486  0.8755
 1275TIP3    H225241   2.720   1.767  15.174 -0.7191 -1.2508 -2.6051
 1276TIP3   OH225242   4.700   0.181   4.671 -0.7314  0.7597  0.3434
 1276TIP3    H125243   4.729   0.131   4.747 -0.0991  2.2415  1.0971
 1276TIP3    H225244   4.606   0.163   4.664 -0.7901  0.6095  1.4532
 1277TIP3   OH225245   4.491   6.599   1.626  0.2903 -0.0226 -0.4212
 1277TIP3    H125246   4.441   6.555   1.557 -0.0396 -1.2894  0.5910
 1277TIP3    H225247   4.480   6.692   1.609 -2.3436 -0.2768 -0.2860
 1278TIP3   OH225248   6.685   3.531  16.895 -0.1601  0.4726  0.1884
 1278TIP3    H125249   6.596   3.538  16.859 -1.0585  2.1558  2.5899
 1278TIP3    H225250   6.675   3.474  16.971  0.9734  0.0812  0.0474
 1279TIP3   OH225251   4.474   2.534   3.501  0.1775  0.5536 -0.0420
 1279TIP3    H125252   4.407   2.598   3.523 -0.1241  0.1093  0.3460
 1279TIP3    H225253   4.426   2.453   3.487  0.3832  0.7894 -2.2089
 1280TIP3   OH225254   0.798   2.118   2.350  0.2210 -0.7140  0.4299
 1280TIP3    H125255   0.886   2.085   2.334  1.5908  3.2100 -0.4685
 1280TIP3    H225256   0.800   2.147   2.442 -0.1788 -0.7134  0.4389
 1281TIP3   OH225257   5.159   3.932  14.559 -0.3254  0.6461 -0.5998
 1281TIP3    H125258   5.183   3.839  14.562 -0.1567  0.6901 -0.5762
 1281TIP3    H225259   5.240   3.978  14.581 -1.0447  0.7138  2.0297
 1282TIP3   OH225260   2.100   5.559  15.449  0.3355 -0.6171  0.6057
 1282TIP3    H125261   2.069   5.521  15.366 -1.0315 -0.7704  1.1737
 1282TIP3    H225262   2.150   5.636  15.422 -1.0113 -0.0310 -0.3498
 1283TIP3   OH225263   3.880   6.236   1.351 -0.2191 -0.0981  0.1876
 1283TIP3    H125264   3.953   6.280   1.395  0.3314 -0.9456  0.1319
 1283TIP3    H225265   3.864   6.289   1.273  0.0029  0.3746  0.4621
 1284TIP3   OH225266   4.153   4.951   5.041  1.0422 -0.3665 -0.8418
 1284TIP3    H125267   4.143   4.883   4.975  1.5006 -1.2828  0.0234
 1284TIP3    H225268   4.080   5.011   5.025  0.3986 -1.2827 -1.3468
 1285TIP3   OH225269   2.384   2.693  16.222  0.4138  0.6352 -0.0899
 1285TIP3    H125270   2.352   2.778  16.191  0.3131  0.4479 -0.5156
 1285TIP3    H225271   2.367   2.693  16.316 -0.2042  0.8175 -0.1995
 1286TIP3   OH225272   4.184   4.471  13.843 -0.3722  0.3816 -0.3777
 1286TIP3    H125273   4.261   4.514  13.879  0.2345  1.3606 -2.7075
 1286TIP3    H225274   4.216   4.387  13.811 -0.5431  0.2318 -0.1520
 1287TIP3   OH225275   4.859   2.418  16.050 -0.5093 -0.5391  0.1628
 1287TIP3    H125276   4.899   2.348  15.997 -1.5490  0.7580 -2.4087
 1287TIP3    H225277   4.796   2.372  16.106 -1.6147 -1.6262 -1.9156
 1288TIP3   OH225278   4.304   5.000  15.439  0.4317  0.4175 -0.4708
 1288TIP3    H125279   4.389   5.005  15.395 -0.5342 -0.5713 -2.5004
 1288TIP3    H225280   4.250   4.947  15.380 -1.5898  1.0366  0.8048
 1289TIP3   OH225281   4.547   1.755   1.268 -0.2987 -0.2245  0.3954
 1289TIP3    H125282   4.597   1.680   1.300  1.5711 -0.0500 -2.0164
 1289TIP3    H225283   4.571   1.826   1.328  1.7339 -0.3429 -0.2614
 1290TIP3   OH225284   6.783   1.114   3.965  0.3727  0.8291 -0.0972
 1290TIP3    H125285   6.761   1.030   3.923  0.1106  1.2858 -0.8816
 1290TIP3    H225286   6.862   1.143   3.920 -1.4759  2.6969 -2.2532
 1291TIP3   OH225287   6.519   5.496  15.931 -0.6719 -1.0651  0.7209
 1291TIP3    H125288   6.561   5.531  15.852  1.3439  2.6626  3.2965
 1291TIP3    H225289   6.432   5.467  15.901  0.1202  0.0191 -2.8864
 1292TIP3   OH225290   2.186   5.672  14.770 -0.3297  0.1574  0.3737
 1292TIP3    H125291   2.188   5.667  14.675 -0.9710  1.9620  0.2425
 1292TIP3    H225292   2.261   5.621  14.799  1.2760  1.5634 -1.2043
 1293TIP3   OH225293   5.376   0.351   4.359 -0.2279  0.4496  0.4342
 1293TIP3    H125294   5.351   0.326   4.270 -0.0643  0.1830  0.4617
 1293TIP3    H225295   5.457   0.401   4.348  0.7895 -1.1337  0.5787
 1294TIP3   OH225296   0.332   1.388  13.257 -0.2349 -0.3642  0.2494
 1294TIP3    H125297   0.286   1.428  13.183  0.3916  0.8940  0.5265
 1294TIP3    H225298   0.409   1.443  13.270  0.8679 -1.9017  0.3873
 1295TIP3   OH225299   0.055   1.802   3.471 -0.2093  0.1890 -0.3806
 1295TIP3    H125300   0.092   1.877   3.423  1.0880  0.1705  0.5569
 1295TIP3    H225301  -0.039   1.813   3.463 -0.0290  1.3660 -1.1298
 1296TIP3   OH225302   3.164   2.189   4.266 -0.4884  0.0850 -0.3957
 1296TIP3    H125303   3.158   2.180   4.171 -0.3361  1.2729 -0.5243
 1296TIP3    H225304   3.074   2.178   4.297 -0.4875 -0.6406 -0.6409
 1297TIP3   OH225305   5.552   0.605   4.624 -0.4832  0.3217 -0.0791
 1297TIP3    H125306   5.566   0.545   4.551  0.1920 -1.0052  1.1137
 1297TIP3    H225307   5.473   0.572   4.667  0.5592 -0.4406  1.2733
 1298TIP3   OH225308   3.874   5.576   3.283  0.7275 -0.6997 -0.1079
 1298TIP3    H125309   3.835   5.495   3.250  1.8258 -1.1410 -0.3106
 1298TIP3    H225310   3.961   5.579   3.244 -0.1654  1.7952 -2.0828
 1299TIP3   OH225311   2.787   3.566   4.083  0.8225 -0.2230 -0.3774
 1299TIP3    H125312   2.867   3.616   4.102  1.4607 -0.4248 -2.4072
 1299TIP3    H225313   2.800   3.482   4.127  1.2894  0.0899  0.0922
 1300TIP3   OH225314   6.695   0.242  10.635  0.7676  0.5405 -0.2073
 1300TIP3    H125315   6.649   0.311  10.587 -1.0492 -0.9825 -0.7119
 1300TIP3    H225316   6.677   0.163  10.585 -0.5932 -0.9832  2.5959
 1301TIP3   OH225317   0.008   0.568   5.739 -0.1766 -0.6072  0.2307
 1301TIP3    H125318   0.065   0.567   5.816 -0.4954 -0.7494  0.4640
 1301TIP3    H225319   0.066   0.593   5.667  0.4248 -1.8839  0.2601
 1302TIP3   OH225320   2.347   4.455   1.269 -0.5192 -0.2159 -0.5794
 1302TIP3    H125321   2.389   4.435   1.352  0.2062  0.5018 -0.7662
 1302TIP3    H225322   2.263   4.494   1.294  0.4631  1.7119 -0.1260
 1303TIP3   OH225323   6.246   5.788  11.675 -0.3563 -0.0551  0.0687
 1303TIP3    H125324   6.240   5.882  11.694  0.6014 -0.5981  3.5092
 1303TIP3    H225325   6.340   5.773  11.663 -0.4017 -0.7441  0.5619
 1304TIP3   OH225326   0.551   0.045   5.667 -0.1819  0.3164  0.7449
 1304TIP3    H125327   0.632   0.085   5.697 -0.3765  0.9026  0.5009
 1304TIP3    H225328   0.523   0.099   5.593 -0.4402 -0.2814  0.3939
 1305TIP3   OH225329   0.942   3.010  17.040 -0.4325  0.2157  0.5035
 1305TIP3    H125330   0.959   3.046  17.127  0.8895 -0.6995  0.6371
 1305TIP3    H225331   0.979   3.073  16.979  0.0716  0.0737  0.6630
 1306TIP3   OH225332   3.410   0.766  13.039  0.2644 -0.0732  1.2037
 1306TIP3    H125333   3.320   0.748  13.064  0.2333  0.1981  1.2902
 1306TIP3    H225334   3.408   0.856  13.005 -0.2576 -1.3616 -2.4869
 1307TIP3   OH225335   3.508   3.083  14.330 -0.2751  0.2557 -0.3005
 1307TIP3    H125336   3.587   3.053  14.375  0.2055  0.6869 -0.8582
 1307TIP3    H225337   3.437   3.061  14.390  0.3829  1.0089  0.7665
 1308TIP3   OH225338   4.737   3.791   4.538  0.1708  0.0263 -0.6975
 1308TIP3    H125339   4.644   3.789   4.561  0.3702 -0.6311  0.0720
 1308TIP3    H225340   4.765   3.700   4.541  0.6151  0.1093 -1.9001
 1309TIP3   OH225341   0.314   2.093   2.766  0.3788  0.6118  0.4864
 1309TIP3    H125342   0.389   2.065   2.714  0.2164  1.5262 -0.2375
 1309TIP3    H225343   0.239   2.053   2.723  0.4727 -0.6082  1.4256
 1310TIP3   OH225344   2.662   6.423  14.605  0.3312 -0.2716  0.2907
 1310TIP3    H125345   2.745   6.398  14.565  0.5880 -0.1178  0.7300
 1310TIP3    H225346   2.680   6.505  14.651 -0.2514  0.1713 -0.2562
 1311TIP3   OH225347   4.256   1.671  15.957 -0.6163  0.1965 -0.1562
 1311TIP3    H125348   4.217   1.733  15.896 -0.7296 -1.2793 -1.6332
 1311TIP3    H225349   4.196   1.596  15.957  0.1720 -0.4503  0.6208
 1312TIP3   OH225350   1.735   1.380  15.050 -0.0870 -0.0558  0.2642
 1312TIP3    H125351   1.805   1.443  15.067  0.1112  0.1519 -1.2364
 1312TIP3    H225352   1.661   1.434  15.021 -0.4344 -0.3842  0.5359
 1313TIP3   OH225353   4.620   2.106  10.751 -0.4203 -0.6880  0.1784
 1313TIP3    H125354   4.599   2.167  10.821 -1.1172 -1.7680  0.9296
 1313TIP3    H225355   4.712   2.124  10.730 -0.9843  1.4985 -0.5434
 1314TIP3   OH225356   6.603   5.179  12.638 -0.0143  0.0620 -0.0890
 1314TIP3    H125357   6.635   5.098  12.598 -0.1287 -0.9845  1.8783
 1314TIP3    H225358   6.576   5.153  12.726  1.7619  2.6115  1.2703
 1315TIP3   OH225359   2.914   4.072   3.728 -0.3115  0.0356 -0.1637
 1315TIP3    H125360   2.905   4.119   3.811  0.9788 -0.5455  0.3221
 1315TIP3    H225361   2.963   4.132   3.672 -0.4503  0.0963 -0.2185
 1316TIP3   OH225362   3.154   5.643   2.366 -0.5806 -0.5371  0.0304
 1316TIP3    H125363   3.164   5.626   2.272 -0.6433 -0.5470  0.0256
 1316TIP3    H225364   3.076   5.594   2.391 -0.1134 -1.1909  0.2522
 1317TIP3   OH225365   4.899   1.583   0.028 -0.8407  0.5327 -0.6148
 1317TIP3    H125366   4.822   1.529   0.010 -1.6116  1.5023 -0.3187
 1317TIP3    H225367   4.947   1.535   0.095 -0.7618 -0.4851 -1.4001
 1318TIP3   OH225368   5.914   2.312   1.463 -0.2875 -0.0078 -0.0912
 1318TIP3    H125369   5.875   2.351   1.385  0.8209  0.9303 -0.1942
 1318TIP3    H225370   5.842   2.268   1.507 -1.2189  0.7249 -0.8764
 1319TIP3   OH225371   1.385   0.498   5.613 -0.4589  0.5745 -0.0774
 1319TIP3    H125372   1.447   0.431   5.582  0.2664  0.5454  1.4360
 1319TIP3    H225373   1.339   0.457   5.686 -2.1785  0.6590 -1.0556
 1320TIP3   OH225374   2.163   6.220   0.068  0.1059 -0.6429  0.0821
 1320TIP3    H125375   2.246   6.239   0.026 -1.0329  2.4522 -0.9201
 1320TIP3    H225376   2.123   6.151   0.014  0.8826 -0.3197 -0.9067
 1321TIP3   OH225377   3.719   6.559   1.303 -0.7917  0.2007 -0.1512
 1321TIP3    H125378   3.680   6.637   1.342 -0.3246  0.3345  0.0585
 1321TIP3    H225379   3.778   6.593   1.236  0.8758  0.1420  1.2345
 1322TIP3   OH225380   3.680   6.629  12.022 -0.2534 -0.2339  0.5506
 1322TIP3    H125381   3.708   6.685  11.950  1.4861 -1.3972  0.2647
 1322TIP3    H225382   3.597   6.665  12.051 -0.5265  0.7984 -1.4501
 1323TIP3   OH225383   6.342   6.307  10.579  1.0270 -0.0636  0.6377
 1323TIP3    H125384   6.283   6.370  10.538  1.6608 -0.1814 -0.5012
 1323TIP3    H225385   6.401   6.360  10.632  0.8076  0.1864  0.6319
 1324TIP3   OH225386   3.097   5.036   3.169 -0.4312  0.3252 -0.2166
 1324TIP3    H125387   3.114   5.057   3.077 -1.1736  1.7882 -0.0330
 1324TIP3    H225388   3.151   5.098   3.218 -0.8983  0.2991  0.3320
 1325TIP3   OH225389   5.935   5.567  16.990 -0.0999 -0.4466 -0.3198
 1325TIP3    H125390   5.849   5.542  17.024  0.9718 -2.0473  1.2887
 1325TIP3    H225391   5.981   5.484  16.978  1.5981  0.4633 -0.1515
 1326TIP3   OH225392   1.294   2.796   5.664  0.4929 -0.0655 -0.1167
 1326TIP3    H125393   1.213   2.794   5.716  1.7944 -0.3404  1.9366
 1326TIP3    H225394   1.321   2.888   5.665  0.3491 -0.0168 -0.5897
 1327TIP3   OH225395   1.523   1.043   2.153  0.0192  0.1684 -0.0404
 1327TIP3    H125396   1.537   0.971   2.091  0.0912 -0.3476  0.5651
 1327TIP3    H225397   1.526   1.001   2.239 -0.5620  0.8035  0.2940
 1328TIP3   OH225398   1.845   2.269  14.817  0.0960  0.1916 -0.1803
 1328TIP3    H125399   1.758   2.237  14.843  0.7543 -2.4112 -1.0493
 1328TIP3    H225400   1.899   2.257  14.894  0.9903 -3.4171 -1.3073
 1329TIP3   OH225401   2.098   4.285  15.105 -0.1003 -0.3588  0.1494
 1329TIP3    H125402   2.191   4.299  15.089 -0.2124  0.2474  0.0133
 1329TIP3    H225403   2.094   4.202  15.153  0.3255 -1.5199 -1.7837
 1330TIP3   OH225404   5.228   4.907  12.507 -0.0898  0.0450  0.2150
 1330TIP3    H125405   5.304   4.876  12.457  1.6227  2.1774  1.3988
 1330TIP3    H225406   5.197   4.830  12.553  0.8085 -1.0586 -0.9671
 1331TIP3   OH225407   3.413   0.604   1.742  0.1990 -0.2831 -0.0347
 1331TIP3    H125408   3.466   0.684   1.741 -0.7605  0.3538 -1.0659
 1331TIP3    H225409   3.378   0.600   1.831 -0.3474  0.8471 -0.1909
 1332TIP3   OH225410   4.430   2.047  14.412 -0.4169 -0.2999  0.4065
 1332TIP3    H125411   4.494   2.070  14.478 -0.5238  1.3578 -0.0470
 1332TIP3    H225412   4.480   2.035  14.331 -0.4060 -1.3686  0.5554
 1333TIP3   OH225413   6.154   2.028   6.017 -0.2232 -0.0700 -0.3304
 1333TIP3    H125414   6.243   2.062   6.022  0.1017 -1.0802  1.1075
 1333TIP3    H225415   6.152   1.958   6.082 -1.7899 -0.6867 -1.0288
 1334TIP3   OH225416   1.152   0.925   3.580 -0.2627  0.0371  0.4091
 1334TIP3    H125417   1.158   1.019   3.564  1.0857 -0.1760 -0.3392
 1334TIP3    H225418   1.234   0.889   3.548  0.2325 -1.1133  2.8302
 1335TIP3   OH225419   1.872   0.291  13.984  0.4226  0.2934  0.8371
 1335TIP3    H125420   1.948   0.279  13.928  0.1654 -1.1545  0.7964
 1335TIP3    H225421   1.829   0.370  13.950  1.0474  0.2334 -0.0888
 1336TIP3   OH225422   3.387   1.519  16.860 -0.1283  0.0758  0.1605
 1336TIP3    H125423   3.300   1.490  16.885  0.8256 -1.7126  1.5978
 1336TIP3    H225424   3.393   1.609  16.893 -1.0314 -0.1867  1.0698
 1337TIP3   OH225425   1.279   6.102  16.131  0.1324  0.6313  0.7817
 1337TIP3    H125426   1.347   6.156  16.091 -0.1898  0.2074 -0.3727
 1337TIP3    H225427   1.197   6.145  16.107 -0.1597 -0.6331 -0.6135
 1338TIP3   OH225428   4.584   3.298   0.815  0.2424 -0.1784  0.0254
 1338TIP3    H125429   4.529   3.219   0.824 -2.0487  1.3151 -0.5117
 1338TIP3    H225430   4.619   3.293   0.726 -1.0887  0.1409 -0.5248
 1339TIP3   OH225431   4.699   5.582   2.461 -0.5628 -0.0165 -0.2042
 1339TIP3    H125432   4.607   5.602   2.479 -0.0887  2.0607  0.0911
 1339TIP3    H225433   4.734   5.663   2.424  0.8717 -1.1633 -1.3882
 1340TIP3   OH225434   4.202   2.342  12.988 -0.2405 -0.0771  0.0488
 1340TIP3    H125435   4.163   2.262  12.952  0.9869 -0.9011  0.5333
 1340TIP3    H225436   4.285   2.351  12.942 -1.3431  2.1543 -1.5955
 1341TIP3   OH225437   1.831   3.917   1.666 -0.4579 -0.2629 -0.0770
 1341TIP3    H125438   1.765   3.922   1.597  0.0625  0.0040 -0.5624
 1341TIP3    H225439   1.819   3.831   1.705 -0.6266 -0.4907 -0.6290
 1342TIP3   OH225440   0.828   3.730   4.145 -0.2384 -0.1653  0.3025
 1342TIP3    H125441   0.829   3.714   4.050  0.0737  0.8511  0.1193
 1342TIP3    H225442   0.735   3.733   4.167 -0.3159 -0.2763  0.0037
 1343TIP3   OH225443   0.115   0.499   0.758 -0.2335 -0.0756  0.4446
 1343TIP3    H125444   0.159   0.417   0.735  1.0787  0.9595 -0.7833
 1343TIP3    H225445   0.026   0.472   0.782 -0.3200 -1.6830 -1.5573
 1344TIP3   OH225446   6.608   6.704   4.854 -0.3589 -0.3332 -0.3281
 1344TIP3    H125447   6.676   6.667   4.798  1.3149  0.7207  0.9416
 1344TIP3    H225448   6.614   6.653   4.935  0.2055  0.9491  0.4635
 1345TIP3   OH225449   1.868   2.375   4.592 -0.1384  0.1624  0.3208
 1345TIP3    H125450   1.832   2.311   4.530  0.0115  1.4909 -1.1783
 1345TIP3    H225451   1.915   2.323   4.656 -1.1829 -1.3213 -0.0933
 1346TIP3   OH225452   4.992   2.619   2.898 -0.0335  0.2039 -0.0847
 1346TIP3    H125453   4.964   2.709   2.886 -1.7387 -0.3196 -0.1389
 1346TIP3    H225454   5.033   2.596   2.814 -1.3552  0.3053 -0.7656
 1347TIP3   OH225455   3.933   4.314   1.844  0.3027 -0.0334 -0.0718
 1347TIP3    H125456   3.840   4.305   1.863  0.5154 -1.5366  0.3105
 1347TIP3    H225457   3.939   4.391   1.787 -0.9139  1.4533  1.7300
 1348TIP3   OH225458   2.259   0.935   3.741  0.4170 -0.4412 -0.0063
 1348TIP3    H125459   2.289   1.006   3.797  1.0541 -0.1597 -0.7123
 1348TIP3    H225460   2.287   0.855   3.787  0.0915 -0.2387  0.5566
 1349TIP3   OH225461   3.812   5.781  12.636  0.4394  0.0363 -0.3133
 1349TIP3    H125462   3.894   5.747  12.601  1.0843  1.8873 -0.6692
 1349TIP3    H225463   3.749   5.710  12.622  1.9174 -1.3433 -0.1885
 1350TIP3   OH225464   4.981   5.737   4.174 -0.6029  0.3267  0.1017
 1350TIP3    H125465   4.914   5.804   4.187  1.3960  2.3294  0.2538
 1350TIP3    H225466   5.022   5.760   4.090  1.4710  0.5225  1.1446
 1351TIP3   OH225467   3.255   4.530  13.651 -0.4194  0.2200 -0.2504
 1351TIP3    H125468   3.203   4.543  13.730 -1.5465 -0.7144 -0.8171
 1351TIP3    H225469   3.344   4.514  13.683 -0.6658  0.8211  0.7714
 1352TIP3   OH225470   6.596   6.155   1.422  0.1309 -0.2380 -0.0442
 1352TIP3    H125471   6.595   6.080   1.482 -2.6087 -2.2211 -2.4215
 1352TIP3    H225472   6.683   6.154   1.383  0.9979 -0.5955  1.8598
 1353TIP3   OH225473   4.353   1.382   5.398  0.2600 -0.8097  0.0645
 1353TIP3    H125474   4.327   1.352   5.486  0.9404 -1.2263  0.1210
 1353TIP3    H225475   4.284   1.349   5.341 -0.8550  0.5255  0.6046
 1354TIP3   OH225476   6.602   5.502   1.959 -0.0385 -0.1679  0.3487
 1354TIP3    H125477   6.670   5.556   1.920  0.3570 -0.5986  0.4330
 1354TIP3    H225478   6.538   5.489   1.889  1.2500 -1.9406 -0.5538
 1355TIP3   OH225479   1.020   1.001   4.731  0.0741  0.5829 -0.5277
 1355TIP3    H125480   1.006   1.076   4.789 -2.3814 -0.0318 -0.2506
 1355TIP3    H225481   1.115   0.987   4.732  0.0508 -0.4052  4.6813
 1356TIP3   OH225482   1.029   5.730   5.393 -0.4377  0.4849 -0.0948
 1356TIP3    H125483   1.049   5.703   5.482 -1.5805  1.8360  0.6116
 1356TIP3    H225484   1.100   5.695   5.340 -0.5944 -1.7265  1.0948
 1357TIP3   OH225485   3.741   5.298  14.066 -0.4067  0.4137 -0.1119
 1357TIP3    H125486   3.695   5.229  14.019  1.3547 -0.6868 -0.2708
 1357TIP3    H225487   3.745   5.267  14.157  1.9848 -0.6162 -0.5147
 1358TIP3   OH225488   0.594   2.805  14.673  0.5614  0.1385 -0.9311
 1358TIP3    H125489   0.639   2.886  14.650 -0.3715  0.9923  0.2131
 1358TIP3    H225490   0.501   2.824  14.658  0.4928 -1.3970 -2.6559
 1359TIP3   OH225491   0.173   4.281   4.634  0.5513  0.0734  0.2435
 1359TIP3    H125492   0.121   4.208   4.669  1.7611 -0.4942  0.9205
 1359TIP3    H225493   0.242   4.238   4.583  1.4709  0.7116  0.9263
 1360TIP3   OH225494   4.697   1.832   2.677  0.3423  0.3873 -0.1821
 1360TIP3    H125495   4.680   1.920   2.643 -0.3136  0.6717  0.8683
 1360TIP3    H225496   4.668   1.774   2.607 -0.9477  0.9733 -0.1423
 1361TIP3   OH225497   3.323   4.953   0.351 -0.0863  0.3664 -0.7397
 1361TIP3    H125498   3.397   5.002   0.316  1.5230 -1.5947 -0.1635
 1361TIP3    H225499   3.358   4.910   0.429 -2.1213  0.2269  0.1143
 1362TIP3   OH225500   4.714   2.491   6.414  0.4998 -0.5440  0.0136
 1362TIP3    H125501   4.738   2.564   6.357  0.9922 -0.5494  0.2139
 1362TIP3    H225502   4.621   2.504   6.431  1.1084  1.3809  2.0121
 1363TIP3   OH225503   6.165   0.501  16.611 -0.4750 -0.2310  0.0611
 1363TIP3    H125504   6.130   0.513  16.699 -1.9838  0.7087 -0.6478
 1363TIP3    H225505   6.143   0.582  16.565  1.3450 -0.2299 -0.8434
 1364TIP3   OH225506   3.409   4.852   2.804  0.0922  0.7585  0.3232
 1364TIP3    H125507   3.387   4.875   2.714 -0.4339  0.5977  0.4092
 1364TIP3    H225508   3.428   4.758   2.800  1.6227  1.0737  0.0867
 1365TIP3   OH225509   1.924   2.593   2.505  0.7303  0.0159  0.1377
 1365TIP3    H125510   1.890   2.526   2.564  0.1617  0.2104  0.0413
 1365TIP3    H225511   2.019   2.587   2.513  0.7210 -1.6435 -0.8228
 1366TIP3   OH225512   2.259   5.880   3.203 -0.1449 -0.0222  0.1274
 1366TIP3    H125513   2.209   5.865   3.283  0.4242 -2.0641  0.1499
 1366TIP3    H225514   2.336   5.824   3.213 -0.9306 -1.7314 -2.5940
 1367TIP3   OH225515   5.783   2.703  16.745  0.3006  0.5726 -0.6313
 1367TIP3    H125516   5.736   2.721  16.663 -0.5490 -0.2654 -0.3423
 1367TIP3    H225517   5.730   2.745  16.812 -0.0710 -0.3871 -0.3035
 1368TIP3   OH225518   6.337   5.306   2.910  0.2655 -0.0259  0.3240
 1368TIP3    H125519   6.255   5.326   2.954 -0.8168 -0.7569 -1.3108
 1368TIP3    H225520   6.336   5.211   2.899  0.8390  0.0747 -0.6294
 1369TIP3   OH225521   3.177   1.801   3.873  0.3793 -0.2171 -0.5367
 1369TIP3    H125522   3.269   1.799   3.899  0.7132 -0.6961 -1.7449
 1369TIP3    H225523   3.138   1.725   3.916  0.6777 -0.3556 -0.5112
 1370TIP3   OH225524   4.096   1.219  15.633  0.2686 -0.4748  0.5456
 1370TIP3    H125525   4.172   1.188  15.682  0.6876 -2.6441 -1.4088
 1370TIP3    H225526   4.132   1.280  15.568  0.2047 -0.6115  0.3815
 1371TIP3   OH225527   1.619   1.100   1.211 -0.5539 -0.1279 -0.5541
 1371TIP3    H125528   1.662   1.093   1.126 -2.0099 -2.1033 -1.1698
 1371TIP3    H225529   1.551   1.165   1.198  1.4553  2.2006  0.1245
 1372TIP3   OH225530   3.323   3.028  15.895 -0.0803 -0.0309  0.1439
 1372TIP3    H125531   3.289   3.020  15.806 -0.8931  0.7544  0.3611
 1372TIP3    H225532   3.400   3.084  15.887  0.0395 -0.2336 -0.1100
 1373TIP3   OH225533   5.627   3.314   1.661 -0.0277  0.3208  0.1537
 1373TIP3    H125534   5.666   3.379   1.720 -0.0701  0.8235 -0.3758
 1373TIP3    H225535   5.549   3.283   1.708  0.0989  0.5108  0.4881
 1374TIP3   OH225536   0.154   3.436  13.306 -0.6793  0.1457 -0.7968
 1374TIP3    H125537   0.182   3.523  13.334 -1.7047  0.4860 -0.8063
 1374TIP3    H225538   0.087   3.411  13.370 -0.6504 -0.4824 -1.0061
 1375TIP3   OH225539   2.819   1.733   0.853  1.1295  0.2354 -0.4425
 1375TIP3    H125540   2.796   1.715   0.762 -3.0795 -1.2042  0.8233
 1375TIP3    H225541   2.835   1.828   0.855  1.1754  0.3102 -2.6316
 1376TIP3   OH225542   2.552   1.718  16.134  0.1976  0.0644 -0.2506
 1376TIP3    H125543   2.584   1.648  16.078 -0.0787 -0.5949  0.4063
 1376TIP3    H225544   2.569   1.687  16.223 -1.9423 -0.1585  0.1121
 1377TIP3   OH225545   3.584   5.149   6.926  0.0481 -0.0151 -1.1850
 1377TIP3    H125546   3.618   5.195   6.849 -0.5422 -0.2747 -1.6067
 1377TIP3    H225547   3.574   5.058   6.897 -0.2180 -0.1042 -0.8129
 1378TIP3   OH225548   2.013   0.800  13.596  0.0774  0.1303 -0.2862
 1378TIP3    H125549   2.084   0.838  13.648  1.6688 -1.0968 -1.5016
 1378TIP3    H225550   1.978   0.729  13.650 -0.1792  0.6780  0.2742
 1379TIP3   OH225551   6.450   3.268  12.908 -0.1749  0.5658  0.4399
 1379TIP3    H125552   6.480   3.276  12.817  0.1777 -0.5494  0.4525
 1379TIP3    H225553   6.409   3.352  12.927  0.7731  1.2372 -0.3861
 1380TIP3   OH225554   5.190   0.728   4.472 -0.5423 -0.1185 -0.5069
 1380TIP3    H125555   5.227   0.683   4.548 -2.8855  0.8577  1.2811
 1380TIP3    H225556   5.141   0.660   4.425 -0.1206 -0.4547 -0.4605
 1381TIP3   OH225557   2.823   6.559  16.301 -0.0139 -0.0148 -0.3613
 1381TIP3    H125558   2.839   6.553  16.207  2.8940  0.4360  0.0515
 1381TIP3    H225559   2.779   6.477  16.323 -0.8437 -0.0733 -2.1099
 1382TIP3   OH225560   4.987   2.866  16.456  0.2401  0.0751 -0.1245
 1382TIP3    H125561   5.018   2.949  16.492 -0.4376  0.1502  0.3190
 1382TIP3    H225562   4.895   2.883  16.433 -0.4857 -1.0678  1.7603
 1383TIP3   OH225563   6.322   5.710  12.275 -0.5671  0.1191  0.3397
 1383TIP3    H125564   6.240   5.674  12.240 -0.5204  1.8606 -1.6758
 1383TIP3    H225565   6.391   5.661  12.230 -0.5109  1.9333 -1.6389
 1384TIP3   OH225566   6.014   1.182  12.784  0.2944  0.2917 -0.4572
 1384TIP3    H125567   6.026   1.257  12.841  0.8104  1.0868 -1.5843
 1384TIP3    H225568   6.035   1.215  12.696 -0.4105 -0.9143 -1.0929
 1385TIP3   OH225569   5.952   2.767   5.189  0.2855  0.4996 -0.4765
 1385TIP3    H125570   5.948   2.674   5.166 -1.4751  0.5935 -0.6668
 1385TIP3    H225571   5.901   2.774   5.270  0.5002  1.2840 -0.3991
 1386TIP3   OH225572   3.033   6.441  15.639 -0.3054  0.8793 -0.0015
 1386TIP3    H125573   3.103   6.427  15.702 -0.7571  0.6883  0.4652
 1386TIP3    H225574   2.992   6.356  15.628 -1.8315  1.4032  1.3843
 1387TIP3   OH225575   6.197   6.254   4.290  0.1439 -0.6063  0.4007
 1387TIP3    H125576   6.164   6.311   4.359 -0.4649 -1.0480  0.4783
 1387TIP3    H225577   6.145   6.276   4.213  2.6275  1.8080 -0.6825
 1388TIP3   OH225578   1.122   6.535  14.459  0.2514 -0.1533  0.3359
 1388TIP3    H125579   1.133   6.451  14.413 -2.0979  0.4220 -1.3425
 1388TIP3    H225580   1.075   6.590  14.397  1.2162  2.2296  1.6694
 1389TIP3   OH225581   0.851   2.157  14.450 -0.9458  0.0765 -0.4345
 1389TIP3    H125582   0.858   2.064  14.470  2.7403  0.8707  2.4327
 1389TIP3    H225583   0.763   2.181  14.480 -0.7794 -1.8433  1.7353
 1390TIP3   OH225584   0.477   5.911   0.752 -0.1969  0.2123  0.1187
 1390TIP3    H125585   0.484   5.921   0.657  0.1807 -1.0357  0.0024
 1390TIP3    H225586   0.408   5.973   0.778 -1.8856 -1.0307 -1.2670
 1391TIP3   OH225587   6.310   1.703   4.139  0.1791 -0.9098  0.4907
 1391TIP3    H125588   6.233   1.647   4.141 -0.4855  0.0248  1.5575
 1391TIP3    H225589   6.277   1.790   4.116  0.6200 -0.0714  2.9372
 1392TIP3   OH225590   5.024   6.766   3.254  0.7777  0.2644  0.2017
 1392TIP3    H125591   5.061   6.744   3.339  1.1936 -0.1899 -0.0935
 1392TIP3    H225592   4.929   6.756   3.266  0.9871 -3.0880 -0.2580
 1393TIP3   OH225593   4.422   0.761   5.386 -0.4345  0.5696  0.5848
 1393TIP3    H125594   4.425   0.727   5.475 -1.9824 -0.6307  0.1975
 1393TIP3    H225595   4.482   0.706   5.336 -2.2060 -1.0252  0.1649
 1394TIP3   OH225596   0.211   1.896   2.353 -0.1593  0.0501 -0.0936
 1394TIP3    H125597   0.257   1.915   2.271 -0.4662  0.0094 -0.2739
 1394TIP3    H225598   0.119   1.915   2.334 -0.5923 -2.2915 -0.4954
 1395TIP3   OH225599   5.926   0.847  12.058 -0.2472  0.8365 -0.2905
 1395TIP3    H125600   5.907   0.938  12.034 -2.3670  0.0400 -1.7481
 1395TIP3    H225601   5.978   0.813  11.986 -1.0561  0.3432 -0.6400
 1396TIP3   OH225602   2.600   2.125  12.127 -0.2410  0.1384  0.4364
 1396TIP3    H125603   2.534   2.153  12.063  0.3846 -0.2737 -0.3929
 1396TIP3    H225604   2.662   2.197  12.131  2.2202 -1.6377 -2.8503
 1397TIP3   OH225605   1.100   5.870  12.118 -0.6504 -0.5617  0.0671
 1397TIP3    H125606   1.106   5.787  12.070 -0.5295 -0.6800  0.2898
 1397TIP3    H225607   1.108   5.845  12.210 -0.9351 -0.3384  0.1531
 1398TIP3   OH225608   2.590   1.798  14.892  0.1183 -0.3342 -0.0684
 1398TIP3    H125609   2.602   1.802  14.987  0.1504  0.1434 -0.0950
 1398TIP3    H225610   2.672   1.829  14.855 -1.1228  2.8713 -0.2464
 1399TIP3   OH225611   5.286   5.257  13.447  0.4629  0.4046  0.1462
 1399TIP3    H125612   5.226   5.243  13.520 -0.7097  0.1327 -0.8669
 1399TIP3    H225613   5.249   5.332  13.400  0.0642 -0.7161 -1.3482
 1400TIP3   OH225614   5.649   1.374   5.007  0.6349  0.2766  0.4244
 1400TIP3    H125615   5.558   1.399   5.022  1.0358  1.8821  0.3245
 1400TIP3    H225616   5.645   1.301   4.945 -0.5555  0.6694  0.0353
 1401TIP3   OH225617   5.986   3.688   6.121 -0.0688 -0.0530 -0.4027
 1401TIP3    H125618   6.074   3.713   6.094 -0.0195  0.6759  0.3893
 1401TIP3    H225619   5.973   3.600   6.085  1.9452 -1.2096  1.5883
 1402TIP3   OH225620   4.455   3.950  14.827  0.7095  0.4438  0.2475
 1402TIP3    H125621   4.537   3.919  14.866  0.1930  1.0403  1.8314
 1402TIP3    H225622   4.483   4.006  14.754  1.6989  0.4937  0.6652
 1403TIP3   OH225623   5.006   0.785  12.235 -0.0143 -0.6736 -0.2307
 1403TIP3    H125624   5.005   0.742  12.150 -1.7629  1.1655 -1.1961
 1403TIP3    H225625   4.929   0.750  12.280 -1.7370  1.6861 -1.2121
 1404TIP3   OH225626   3.734   4.614   0.415 -0.9206 -0.0724 -0.2779
 1404TIP3    H125627   3.711   4.692   0.365 -0.3498  0.3509  0.1043
 1404TIP3    H225628   3.815   4.638   0.461  0.3532 -1.5530 -1.6727
 1405TIP3   OH225629   4.240   4.832   4.401  0.2354 -0.5241  0.0034
 1405TIP3    H125630   4.257   4.924   4.383 -1.0407 -0.2370  0.1813
 1405TIP3    H225631   4.145   4.824   4.395  0.2887 -1.6989  0.5931
 1406TIP3   OH225632   3.853   4.299  13.183  0.4481 -0.6417  0.4072
 1406TIP3    H125633   3.912   4.273  13.254  0.7349 -1.4998 -0.1293
 1406TIP3    H225634   3.768   4.264  13.209  0.2890  0.1065  0.9096
 1407TIP3   OH225635   2.515   0.189  17.227 -0.4497 -0.5158  0.0939
 1407TIP3    H125636   2.459   0.198  17.304 -1.0753  0.7455 -0.4962
 1407TIP3    H225637   2.461   0.220  17.154 -0.2054 -2.5941 -0.9989
 1408TIP3   OH225638   4.958   2.865   3.757 -0.0327 -0.3899 -0.1763
 1408TIP3    H125639   5.024   2.833   3.696  0.8564  2.0695 -0.5517
 1408TIP3    H225640   4.883   2.888   3.701  0.4559  1.0267 -0.2649
 1409TIP3   OH225641   1.525   4.326   4.644  0.4920 -0.3065  0.0770
 1409TIP3    H125642   1.460   4.264   4.677  0.1180 -0.6931 -1.3679
 1409TIP3    H225643   1.609   4.295   4.678  0.0113 -0.2044  1.3652
 1410TIP3   OH225644   6.645   0.370  11.404 -0.2868  0.0942  0.0450
 1410TIP3    H125645   6.725   0.420  11.390 -1.5850  2.3036  0.3396
 1410TIP3    H225646   6.589   0.428  11.455 -1.9346 -1.5881  0.2111
 1411TIP3   OH225647   4.581   3.624  15.254 -0.0565  0.4415 -0.4589
 1411TIP3    H125648   4.554   3.714  15.271 -3.3058 -0.6175  0.3358
 1411TIP3    H225649   4.581   3.617  15.158 -1.8926  0.7252 -0.5035
 1412TIP3   OH225650   3.092   3.975   0.704  0.0821 -0.1221 -0.1015
 1412TIP3    H125651   3.126   3.905   0.648 -0.4510 -1.5123  1.2837
 1412TIP3    H225652   3.020   3.934   0.752 -0.5438  1.5176  0.3684
 1413TIP3   OH225653   3.896   4.132   5.883 -0.2225 -0.7801  0.1520
 1413TIP3    H125654   3.884   4.208   5.940  0.6413 -0.6275  0.1446
 1413TIP3    H225655   3.962   4.160   5.819 -0.0628 -1.4624  0.0086
 1414TIP3   OH225656   3.581   4.184  11.723  0.4708  0.6343 -0.3042
 1414TIP3    H125657   3.657   4.234  11.754  1.3758 -1.3067  0.7144
 1414TIP3    H225658   3.612   4.138  11.645  0.3851 -0.2492  0.1779
 1415TIP3   OH225659   3.716   4.073   3.526  0.2570 -0.1725 -0.2346
 1415TIP3    H125660   3.735   4.096   3.617 -0.1005 -0.0876 -0.1792
 1415TIP3    H225661   3.777   4.002   3.506 -0.6121 -1.1686  0.5261
 1416TIP3   OH225662   0.771   3.853   0.136  0.0942 -0.0433  0.3145
 1416TIP3    H125663   0.853   3.887   0.172  0.0974  0.2860 -0.0013
 1416TIP3    H225664   0.721   3.931   0.115 -0.7215 -0.2449  1.4583
 1417TIP3   OH225665   1.056   6.616  13.933 -0.0588 -0.5061  0.0476
 1417TIP3    H125666   0.977   6.603  13.881 -0.4751  0.8476  0.3413
 1417TIP3    H225667   1.127   6.612  13.869 -0.5927  1.5260 -0.7016
 1418TIP3   OH225668   4.273   5.968  16.635  0.5033 -0.0952 -0.2408
 1418TIP3    H125669   4.269   5.898  16.701 -0.3913  0.3726  0.2058
 1418TIP3    H225670   4.202   5.947  16.574  0.7853 -0.0554 -0.5805
 1419TIP3   OH225671   2.121   2.159  15.822 -0.2731 -0.4303  0.3307
 1419TIP3    H125672   2.197   2.202  15.863  0.5975 -1.8827  0.2563
 1419TIP3    H225673   2.058   2.151  15.893 -1.1275  2.4632 -0.0242
 1420TIP3   OH225674   3.124   4.803   4.554  0.6713 -0.2881  0.2884
 1420TIP3    H125675   3.150   4.738   4.619 -0.3319 -0.7523  0.2255
 1420TIP3    H225676   3.099   4.751   4.477 -0.7644  0.1509  0.4615
 1421TIP3   OH225677   0.533   6.674   5.288  0.7128 -0.0235  0.3354
 1421TIP3    H125678   0.473   6.644   5.219 -1.0890 -0.2700  1.9628
 1421TIP3    H225679   0.565   6.593   5.328  1.0329  0.1313  0.3938
 1422TIP3   OH225680   2.346   4.495   1.882  0.1430  0.3083 -0.0432
 1422TIP3    H125681   2.351   4.540   1.967  1.1026  0.1265 -0.0029
 1422TIP3    H225682   2.320   4.405   1.905  1.0546  0.0799  0.1227
 1423TIP3   OH225683   2.444   2.538  10.579 -0.4265 -0.4703 -0.6079
 1423TIP3    H125684   2.408   2.451  10.562 -1.6052  0.2072 -1.6581
 1423TIP3    H225685   2.453   2.543  10.674  0.3046 -1.9904 -0.5892
 1424TIP3   OH225686   3.360   4.215   0.827 -0.0996 -0.9746 -0.1212
 1424TIP3    H125687   3.333   4.125   0.809 -0.6154 -1.0706  1.0426
 1424TIP3    H225688   3.369   4.219   0.922  0.1944  0.1297 -0.1796
 1425TIP3   OH225689   1.214   3.677   2.210 -0.3093  0.7253 -0.4811
 1425TIP3    H125690   1.223   3.694   2.116  0.3427 -1.1635 -0.7673
 1425TIP3    H225691   1.130   3.633   2.219 -1.0279  2.1421  0.0200
 1426TIP3   OH225692   4.129   2.099   4.370  0.0286 -0.4478 -0.6504
 1426TIP3    H125693   4.161   2.050   4.445 -1.5896  0.1613  0.4605
 1426TIP3    H225694   4.082   2.035   4.317  0.0071 -0.5906 -0.4574
 1427TIP3   OH225695   0.737   2.061   2.955  0.1341  0.4220  0.1685
 1427TIP3    H125696   0.691   1.990   2.910  1.0021  1.2393 -2.1089
 1427TIP3    H225697   0.824   2.025   2.973  0.0259  0.3437  0.5360
 1428TIP3   OH225698   0.216   4.475  15.300  0.4033  0.1622 -0.0128
 1428TIP3    H125699   0.226   4.568  15.322 -0.0520  0.0992  0.4646
 1428TIP3    H225700   0.245   4.468  15.209  1.6307  0.5540  0.3378
 1429TIP3   OH225701   1.609   4.617  17.121  0.0941 -0.2886 -0.0087
 1429TIP3    H125702   1.635   4.649  17.035 -0.5794  0.3764  0.0332
 1429TIP3    H225703   1.591   4.524  17.107  0.8756 -0.3889 -0.3836
 1430TIP3   OH225704   0.684   6.130   3.470 -0.2650 -0.8178 -0.1018
 1430TIP3    H125705   0.694   6.150   3.563 -1.4114 -1.4561  0.1629
 1430TIP3    H225706   0.628   6.053   3.468 -0.8404 -0.3715 -1.3520
 1431TIP3   OH225707   5.977   5.079  11.590  0.6428  0.6310 -0.5878
 1431TIP3    H125708   6.000   4.991  11.558 -1.6875  0.1693 -1.1007
 1431TIP3    H225709   5.933   5.120  11.516  0.5135  1.7480  0.1056
 1432TIP3   OH225710   3.989   3.254   3.582 -0.8030  0.0658 -0.0132
 1432TIP3    H125711   4.077   3.235   3.615 -1.9839 -1.1769  2.5173
 1432TIP3    H225712   3.996   3.343   3.546  1.7173 -0.3942 -0.8126
 1433TIP3   OH225713   1.260   1.884  12.927 -0.1655  0.3564  0.1647
 1433TIP3    H125714   1.229   1.972  12.904 -0.7370  0.2347  0.4617
 1433TIP3    H225715   1.345   1.898  12.968  0.1820  0.6969 -0.6707
 1434TIP3   OH225716   0.681   4.778  13.184  0.0928  0.2455 -0.3663
 1434TIP3    H125717   0.634   4.754  13.105 -0.5751 -0.3723  0.2167
 1434TIP3    H225718   0.675   4.701  13.241 -0.8201  1.2437  0.9261
 1435TIP3   OH225719   5.647   1.168   1.724  0.0642 -0.4578 -0.0990
 1435TIP3    H125720   5.595   1.242   1.692  2.0384  1.4442  0.9694
 1435TIP3    H225721   5.587   1.120   1.782 -0.5833  1.6265  1.0166
 1436TIP3   OH225722   0.285   0.962  15.912  0.5128  0.0541 -0.6717
 1436TIP3    H125723   0.233   0.980  15.833 -0.8089 -1.6063 -0.2007
 1436TIP3    H225724   0.310   0.870  15.904  1.3510  0.1888  0.3012
 1437TIP3   OH225725   3.528   5.725   3.474  0.2787  0.1168  0.2811
 1437TIP3    H125726   3.562   5.728   3.384  0.1156  0.2078  0.2242
 1437TIP3    H225727   3.531   5.815   3.504  0.5766  0.0486  0.4580
 1438TIP3   OH225728   5.982   6.423  15.387 -0.4005  0.2175 -0.2261
 1438TIP3    H125729   6.056   6.414  15.447 -0.2928  0.1795 -0.3629
 1438TIP3    H225730   5.953   6.333  15.371  0.7825  0.0737 -1.7290
 1439TIP3   OH225731   4.482   1.291  16.654 -0.1270  0.0952 -0.1694
 1439TIP3    H125732   4.483   1.381  16.685  2.1756  0.3208 -0.7363
 1439TIP3    H225733   4.473   1.238  16.733 -2.7449  0.8199  0.0564
 1440TIP3   OH225734   2.747   3.845   1.431 -0.2139 -0.5725  0.6282
 1440TIP3    H125735   2.777   3.880   1.516  0.0487  0.8467 -0.0300
 1440TIP3    H225736   2.797   3.895   1.366 -0.4421 -1.6316 -0.3666
 1441TIP3   OH225737   5.469   5.141   4.661 -0.3831 -0.2334  0.2429
 1441TIP3    H125738   5.413   5.212   4.694 -0.7066  0.3690 -1.5496
 1441TIP3    H225739   5.432   5.061   4.698  0.1217  0.5256  2.4886
 1442TIP3   OH225740   6.628   1.700   0.446 -0.0564  0.6647 -0.1301
 1442TIP3    H125741   6.646   1.750   0.525  0.3851 -0.5883  0.5775
 1442TIP3    H225742   6.562   1.751   0.399 -2.1045  0.2528  2.2090
 1443TIP3   OH225743   6.154   0.446   4.283 -0.7405  0.3479 -0.1061
 1443TIP3    H125744   6.094   0.430   4.355  1.3177  0.4502  1.7059
 1443TIP3    H225745   6.195   0.530   4.305  0.8584 -0.2545 -0.7015
 1444TIP3   OH225746   5.021   5.588  12.480 -0.2567 -0.0569  0.0414
 1444TIP3    H125747   5.028   5.678  12.512  0.8791 -0.4641  0.9941
 1444TIP3    H225748   4.955   5.592  12.411  1.0208  1.8416 -1.1390
 1445TIP3   OH225749   1.147   1.941   2.852 -0.3026  0.1708  0.1410
 1445TIP3    H125750   1.188   1.941   2.939 -0.9833 -0.1683  0.4633
 1445TIP3    H225751   1.191   1.870   2.806  0.9430  1.1475 -0.2221
 1446TIP3   OH225752   2.736   4.544  15.235 -0.2841  0.1857 -0.2361
 1446TIP3    H125753   2.680   4.466  15.232  0.3640 -0.2872 -0.0890
 1446TIP3    H225754   2.820   4.513  15.269 -0.2661  1.0975  0.5999
 1447TIP3   OH225755   6.462   2.699   3.074 -0.1692  0.8615 -0.3472
 1447TIP3    H125756   6.387   2.660   3.118  1.7700 -1.2992  1.1065
 1447TIP3    H225757   6.484   2.776   3.126 -1.0390  1.2143 -0.4949
 1448TIP3   OH225758   2.768   3.529  16.294  1.0400 -0.1563 -0.1651
 1448TIP3    H125759   2.680   3.491  16.301  1.4371 -0.8473  1.1634
 1448TIP3    H225760   2.758   3.617  16.332  0.5760  0.3692 -1.4570
 1449TIP3   OH225761   1.523   2.880   4.520 -0.0179  0.1804  1.0383
 1449TIP3    H125762   1.435   2.879   4.559 -0.2347 -0.0602  0.5441
 1449TIP3    H225763   1.537   2.790   4.491  0.0382  0.4097  0.3336
 1450TIP3   OH225764   6.110   2.331   0.418  0.0999 -0.1268  0.4429
 1450TIP3    H125765   6.184   2.327   0.478  0.9061  0.0271 -0.5424
 1450TIP3    H225766   6.084   2.239   0.406  0.6939 -0.2498  0.0910
 1451TIP3   OH225767   0.687   3.275   3.871 -0.4868 -0.1692  0.7639
 1451TIP3    H125768   0.663   3.366   3.854  1.6258  0.4664  1.1033
 1451TIP3    H225769   0.699   3.237   3.784  0.8291  0.4821  0.6570
 1452TIP3   OH225770   2.236   1.064  16.995 -0.1018  0.1305  0.0664
 1452TIP3    H125771   2.284   1.146  17.003 -0.5879  0.6462 -2.0216
 1452TIP3    H225772   2.163   1.084  16.937 -1.1422 -1.3912  0.8035
 1453TIP3   OH225773   2.133   3.521   4.871 -0.1741 -0.2048 -0.2613
 1453TIP3    H125774   2.044   3.493   4.850 -0.6225  0.9623  0.0478
 1453TIP3    H225775   2.132   3.538   4.965  0.6658 -1.2271 -0.0620
 1454TIP3   OH225776   6.771   6.380   1.348 -0.2483 -0.0278  0.4452
 1454TIP3    H125777   6.685   6.369   1.389  0.0652  3.5086  2.2751
 1454TIP3    H225778   6.754   6.370   1.254 -2.2155 -1.6325  0.9348
 1455TIP3   OH225779   5.379   0.277  14.002 -0.4776  0.2904  0.4233
 1455TIP3    H125780   5.441   0.344  14.032 -1.2044  1.7245 -1.2217
 1455TIP3    H225781   5.339   0.245  14.083  1.4214  0.2972  1.4048
 1456TIP3   OH225782   5.629   5.408  13.439 -0.2866 -0.2447 -0.0235
 1456TIP3    H125783   5.643   5.341  13.372  1.2367  1.3556 -1.3674
 1456TIP3    H225784   5.534   5.420  13.441 -0.5820 -2.4352  0.2547
 1457TIP3   OH225785   2.184   3.209  15.087  0.5688 -0.3028 -0.1571
 1457TIP3    H125786   2.231   3.270  15.144 -2.7388  3.1239 -0.9331
 1457TIP3    H225787   2.237   3.206  15.007  0.9431  1.3778 -0.0019
 1458TIP3   OH225788   6.494   2.320   0.142  0.0705  0.3780  0.4927
 1458TIP3    H125789   6.533   2.232   0.136 -1.0019  0.0036 -1.4170
 1458TIP3    H225790   6.407   2.310   0.105  0.9151  2.8266 -2.3971
 1459TIP3   OH225791   4.398   4.925  11.220 -0.0415 -0.6752  0.0294
 1459TIP3    H125792   4.397   4.835  11.185 -0.7675 -0.5408 -0.3063
 1459TIP3    H225793   4.491   4.948  11.224  0.0934 -1.0015 -1.0355
 1460TIP3   OH225794   3.453   6.585  14.588  0.3048 -0.4589  0.3167
 1460TIP3    H125795   3.469   6.526  14.662 -2.3788 -1.0572  0.4597
 1460TIP3    H225796   3.392   6.650  14.621  1.2097  0.8919 -0.6121
 1461TIP3   OH225797   5.084   1.042   2.622 -0.4862  0.7887  0.3183
 1461TIP3    H125798   5.106   1.134   2.630  1.1983  0.4998 -0.6386
 1461TIP3    H225799   5.060   1.031   2.530  1.3911 -0.1251 -0.0856
 1462TIP3   OH225800   3.462   2.359  10.863 -0.0631  0.1383  0.3667
 1462TIP3    H125801   3.535   2.408  10.825  0.5105  0.2606  1.6253
 1462TIP3    H225802   3.384   2.401  10.826  0.4069  2.1900  1.6432
 1463TIP3   OH225803   6.177   1.232  15.122 -0.1635  0.3549  0.2604
 1463TIP3    H125804   6.200   1.258  15.212 -0.4889  0.5583  0.2854
 1463TIP3    H225805   6.124   1.305  15.089  0.0255  0.3179 -0.1264
 1464TIP3   OH225806   0.718   6.530  15.449  0.1818  0.2580 -0.0903
 1464TIP3    H125807   0.755   6.493  15.529 -1.0369  4.0927  2.3977
 1464TIP3    H225808   0.759   6.617  15.442 -2.3107  1.3533 -1.6820
 1465TIP3   OH225809   5.331   0.036  15.051 -0.4461 -0.5194 -0.5486
 1465TIP3    H125810   5.251   0.007  15.007 -0.3248  0.2072 -1.2631
 1465TIP3    H225811   5.347   0.124  15.016  1.2051 -1.0437 -1.1844
 1466TIP3   OH225812   4.527   4.903   3.076 -0.4131  1.0578 -0.0035
 1466TIP3    H125813   4.531   4.850   2.997 -0.2350  1.0815 -0.0111
 1466TIP3    H225814   4.502   4.991   3.046 -1.0783  0.8867  0.0538
 1467TIP3   OH225815   4.823   6.055   6.204 -0.0179 -0.2609  0.5169
 1467TIP3    H125816   4.884   5.987   6.232 -0.5300 -0.9597 -0.0323
 1467TIP3    H225817   4.754   6.056   6.271 -0.7619 -1.2939 -0.2081
 1468TIP3   OH225818   6.770   2.286   2.430  0.5045  0.0177  0.0459
 1468TIP3    H125819   6.676   2.278   2.414 -0.0073  1.4741  2.0496
 1468TIP3    H225820   6.800   2.197   2.448 -0.8198 -0.2508  0.9838
 1469TIP3   OH225821   5.321   1.535   5.525 -0.5626 -0.4320 -0.3413
 1469TIP3    H125822   5.247   1.591   5.548 -0.6566 -0.5061 -0.4668
 1469TIP3    H225823   5.324   1.469   5.594  0.1989  0.3513  0.3927
 1470TIP3   OH225824   5.610   4.767   1.776 -0.0286  0.2086  0.1124
 1470TIP3    H125825   5.585   4.679   1.805 -1.1106  0.3089 -0.4825
 1470TIP3    H225826   5.528   4.817   1.776  0.2435  0.6948 -1.3910
 1471TIP3   OH225827   1.258   5.323   4.335 -0.3536  0.7141  0.3823
 1471TIP3    H125828   1.171   5.284   4.341 -0.1150  0.0460 -0.5489
 1471TIP3    H225829   1.242   5.418   4.330 -1.0856  0.5189 -1.0669
 1472TIP3   OH225830   4.270   0.999   4.285 -1.1045  0.0038 -0.2032
 1472TIP3    H125831   4.265   1.073   4.346 -2.4264 -0.9975  0.9232
 1472TIP3    H225832   4.179   0.970   4.274 -0.5519 -1.7669 -0.2535
 1473TIP3   OH225833   0.956   3.984  14.545 -0.1035  0.0525 -0.7989
 1473TIP3    H125834   0.935   3.982  14.452 -0.9308  0.9200 -0.6411
 1473TIP3    H225835   0.921   4.068  14.576  2.2493  0.8240 -0.1737
 1474TIP3   OH225836   0.991   5.198   4.359  0.2353 -0.2099 -0.0075
 1474TIP3    H125837   0.924   5.253   4.400  1.1544  0.0017  1.2455
 1474TIP3    H225838   0.942   5.125   4.321 -0.7811  0.3487  0.2103
 1475TIP3   OH225839   1.359   2.071   5.286  0.3084 -0.1053  0.2157
 1475TIP3    H125840   1.415   2.100   5.214 -0.9505 -1.9589 -1.5549
 1475TIP3    H225841   1.370   2.138   5.353  2.4092  1.0552 -1.2328
 1476TIP3   OH225842   0.328   3.127  11.943 -0.0876  0.7126 -0.4505
 1476TIP3    H125843   0.365   3.164  11.863 -2.0824  0.1711 -1.6730
 1476TIP3    H225844   0.317   3.034  11.924 -0.4480  0.5521  0.5011
 1477TIP3   OH225845   1.700   1.714  15.200  0.2610  0.2190 -0.0235
 1477TIP3    H125846   1.686   1.697  15.293  1.2711  1.2357  0.3322
 1477TIP3    H225847   1.633   1.662  15.155 -0.8386  0.4669  1.3084
 1478TIP3   OH225848   1.844   6.163   1.462  0.5297 -0.0347  0.2895
 1478TIP3    H125849   1.839   6.095   1.395  1.8320 -0.1227  0.2493
 1478TIP3    H225850   1.875   6.241   1.416  3.1847 -0.5624  1.0435
 1479TIP3   OH225851   6.115   5.231  12.973  0.1518 -0.3322 -0.0540
 1479TIP3    H125852   6.059   5.221  12.896  0.4444 -2.0194 -0.0876
 1479TIP3    H225853   6.193   5.276  12.941 -1.0213  1.7393 -0.0721
 1480TIP3   OH225854   1.161   5.752  15.427  0.0034 -0.2459 -0.5609
 1480TIP3    H125855   1.248   5.780  15.456  1.5404 -0.7325 -4.3934
 1480TIP3    H225856   1.108   5.831  15.432  1.1960  0.5533 -0.1355
 1481TIP3   OH225857   2.299   4.228   4.178 -0.2121 -0.4795  0.5676
 1481TIP3    H125858   2.269   4.261   4.263 -3.0872  1.7176 -1.1741
 1481TIP3    H225859   2.230   4.167   4.150 -0.8933  1.1405 -1.4756
 1482TIP3   OH225860   3.192   5.282   3.594  0.0661 -0.2380  0.1618
 1482TIP3    H125861   3.256   5.318   3.655  0.3246  1.0301 -0.8438
 1482TIP3    H225862   3.109   5.323   3.618 -0.0026 -0.4162  0.2299
 1483TIP3   OH225863   2.538   4.792   0.341  0.2055 -0.8966 -0.0003
 1483TIP3    H125864   2.588   4.779   0.421  0.8142  0.2747 -0.1751
 1483TIP3    H225865   2.591   4.753   0.272  1.7979  1.9590 -0.4553
 1484TIP3   OH225866   2.986   6.634  12.731  0.0026 -0.1156  0.3194
 1484TIP3    H125867   2.956   6.586  12.809  0.0816  1.2910  1.2329
 1484TIP3    H225868   2.931   6.600  12.660 -0.3125 -1.1617  1.0463
 1485TIP3   OH225869   5.509   1.747  14.571  0.7581 -0.1849  0.0266
 1485TIP3    H125870   5.480   1.783  14.487 -1.3260 -1.1222  0.2962
 1485TIP3    H225871   5.568   1.676  14.548  0.2370 -0.4045 -0.6687
 1486TIP3   OH225872   4.666   4.892  14.738  0.7829  0.9558  0.2555
 1486TIP3    H125873   4.659   4.961  14.672 -0.7199  0.0572 -0.5521
 1486TIP3    H225874   4.665   4.810  14.688 -0.7877  0.2509  1.4021
 1487TIP3   OH225875   1.036   0.244  16.876 -0.2547 -0.0132 -0.3377
 1487TIP3    H125876   1.087   0.224  16.798 -0.1372 -1.8838  0.1835
 1487TIP3    H225877   1.063   0.178  16.940 -0.7357  1.1578  1.1129
 1488TIP3   OH225878   6.421   2.968  16.742  0.2241 -0.3273 -0.3085
 1488TIP3    H125879   6.492   2.968  16.678  0.1076  0.9210 -0.4581
 1488TIP3    H225880   6.465   2.967  16.827  0.3860 -1.5071 -0.4022
 1489TIP3   OH225881   1.842   6.427   6.593  1.2230  0.0369 -0.3958
 1489TIP3    H125882   1.829   6.502   6.536  1.6475 -0.6012 -1.3536
 1489TIP3    H225883   1.768   6.369   6.574  0.4986  0.5366  0.8732
 1490TIP3   OH225884   3.184   1.357  16.946  0.8818 -0.4541 -0.3095
 1490TIP3    H125885   3.203   1.282  17.002 -0.4202  0.4562  1.4124
 1490TIP3    H225886   3.130   1.322  16.875  0.7992 -1.2490  0.1403
 1491TIP3   OH225887   3.373   6.134  15.895  0.5955  0.3653  0.2506
 1491TIP3    H125888   3.408   6.223  15.894 -1.3339  1.1815  1.7728
 1491TIP3    H225889   3.347   6.120  15.986  1.2380 -1.9202  0.1102
 1492TIP3   OH225890   0.591   6.387   5.144  0.1807 -0.2526 -0.0018
 1492TIP3    H125891   0.591   6.415   5.236 -1.2576  0.5081 -0.2204
 1492TIP3    H225892   0.537   6.309   5.143 -0.8382  0.4477 -0.3965
 1493TIP3   OH225893   3.366   5.696   0.613  0.2777 -0.7445  0.4242
 1493TIP3    H125894   3.455   5.670   0.590  0.7624  2.1593 -1.3100
 1493TIP3    H225895   3.311   5.647   0.552  0.9095 -0.4159 -0.4317
 1494TIP3   OH225896   1.195   4.573   6.138 -0.5941  0.0846 -0.6744
 1494TIP3    H125897   1.197   4.547   6.046  1.9489 -0.4593 -0.5122
 1494TIP3    H225898   1.243   4.504   6.184 -0.8761  0.9098  0.9211
 1495TIP3   OH225899   6.473   2.250   3.085  0.1151  0.1130 -0.9445
 1495TIP3    H125900   6.483   2.192   3.160 -1.5513 -0.5171 -1.1949
 1495TIP3    H225901   6.382   2.279   3.089  0.4357  1.2904 -1.8508
 1496TIP3   OH225902   4.593   1.342   2.291 -0.4262 -0.1701  0.6000
 1496TIP3    H125903   4.682   1.376   2.298 -0.7544  0.8348  0.0228
 1496TIP3    H225904   4.538   1.421   2.288 -1.1818 -0.7444 -1.1251
 1497TIP3   OH225905   3.968   0.204   4.952  0.0251 -0.1496  0.1727
 1497TIP3    H125906   3.969   0.259   5.031  0.6914  0.4496 -0.2544
 1497TIP3    H225907   3.933   0.261   4.884  0.3071 -0.3918 -0.1752
 1498TIP3   OH225908   5.057   5.838   3.692  0.3615 -0.0044 -0.2421
 1498TIP3    H125909   5.106   5.761   3.663  0.6943  0.3498 -0.6229
 1498TIP3    H225910   4.975   5.834   3.644  1.7555  1.7257 -2.8861
 1499TIP3   OH225911   2.155   3.612  12.039  0.2168  0.7064  0.0412
 1499TIP3    H125912   2.199   3.581  11.959 -1.9099 -1.2338 -0.4380
 1499TIP3    H225913   2.189   3.555  12.108 -0.3887  0.2349 -0.0528
 1500TIP3   OH225914   5.167   3.293   5.789 -0.6682  0.6618 -0.7366
 1500TIP3    H125915   5.231   3.314   5.856  0.2243  1.0162 -1.6904
 1500TIP3    H225916   5.148   3.199   5.801  0.8421  0.2956 -1.1326
 1501TIP3   OH225917   4.009   4.334  14.426  0.3506  0.4006  0.4090
 1501TIP3    H125918   4.012   4.289  14.342 -2.4678  1.9528 -0.5870
 1501TIP3    H225919   3.972   4.269  14.487 -0.9880  0.3885 -0.3856
 1502TIP3   OH225920   0.221   2.855  11.953 -0.7533  0.3502  0.5771
 1502TIP3    H125921   0.172   2.772  11.959  1.7173 -1.0869  1.6576
 1502TIP3    H225922   0.202   2.899  12.036 -1.1237  0.2986  0.5207
 1503TIP3   OH225923   4.701   0.384  16.847 -0.2650 -0.2825 -0.0405
 1503TIP3    H125924   4.739   0.308  16.892  1.7787  0.5981 -0.1965
 1503TIP3    H225925   4.674   0.443  16.918  0.3463 -0.1279  0.0667
 1504TIP3   OH225926   1.770   5.143   6.408  0.2233 -0.2451  0.1141
 1504TIP3    H125927   1.683   5.108   6.388  0.1859  1.7744 -3.9195
 1504TIP3    H225928   1.754   5.228   6.447  0.3260  0.3346 -1.0645
 1505TIP3   OH225929   5.667   5.579  15.874  0.0873 -0.9928  0.3404
 1505TIP3    H125930   5.629   5.548  15.792 -1.1873 -2.2972  1.4079
 1505TIP3    H225931   5.614   5.656  15.897 -1.2843 -2.1694  1.2605
 1506TIP3   OH225932   6.315   3.587   1.064 -0.5519 -0.3301 -0.5525
 1506TIP3    H125933   6.389   3.613   1.008 -0.4100  0.5580  0.0355
 1506TIP3    H225934   6.300   3.495   1.042  1.4794 -0.8674  0.1376
 1507TIP3   OH225935   4.037   1.387  12.833 -0.2216 -0.0187 -0.1334
 1507TIP3    H125936   3.960   1.433  12.865 -0.9600 -1.1208 -0.2860
 1507TIP3    H225937   4.039   1.405  12.739 -0.3252 -0.0351 -0.1386
 1508TIP3   OH225938   0.591   0.551  12.805  0.0298  0.2988 -0.7214
 1508TIP3    H125939   0.532   0.626  12.797  0.5304  0.8851  0.9577
 1508TIP3    H225940   0.627   0.558  12.893  1.5522 -0.8345 -1.2323
 1509TIP3   OH225941   5.278   6.530  11.393  0.0167  0.1238  0.6066
 1509TIP3    H125942   5.302   6.560  11.305 -2.4146  0.5591  0.0728
 1509TIP3    H225943   5.220   6.455  11.378 -2.4218  1.7331  1.7527
 1510TIP3   OH225944   1.752   3.851   2.041  0.7987  0.5776  0.4792
 1510TIP3    H125945   1.699   3.773   2.026 -0.2748  1.5232 -0.8060
 1510TIP3    H225946   1.688   3.919   2.063  1.5681  1.4661  0.0019
 1511TIP3   OH225947   5.683   0.604   1.971  0.2762 -0.3790 -0.7231
 1511TIP3    H125948   5.703   0.697   1.958  0.0260 -0.0241  1.3026
 1511TIP3    H225949   5.756   0.571   2.023  0.6323 -1.4503 -1.8961
 1512TIP3   OH225950   4.128   2.666   1.424  0.6059  0.4732 -0.3461
 1512TIP3    H125951   4.198   2.708   1.473  0.2029  1.1776 -0.3638
 1512TIP3    H225952   4.110   2.585   1.471  1.1161  0.5113 -0.0844
 1513TIP3   OH225953   5.694   4.918   0.539  0.6913 -0.3699 -0.2606
 1513TIP3    H125954   5.690   4.828   0.571  0.6065 -0.3090 -0.0980
 1513TIP3    H225955   5.732   4.911   0.452 -1.7258 -0.8405 -1.3181
 1514TIP3   OH225956   4.090   0.068  15.784  0.2080  0.4649  0.0030
 1514TIP3    H125957   4.137  -0.016  15.792  0.5373  0.7205  0.8724
 1514TIP3    H225958   4.159   0.132  15.769  0.2120  0.9055  1.7395
 1515TIP3   OH225959   1.049   2.191   1.549  0.6386 -0.1497  0.3307
 1515TIP3    H125960   1.015   2.279   1.533  0.2451 -0.4826 -0.6968
 1515TIP3    H225961   1.111   2.176   1.477  1.1249 -0.4988  0.8173
 1516TIP3   OH225962   1.431   0.715   0.771 -0.1078 -0.4642 -0.3967
 1516TIP3    H125963   1.392   0.787   0.721 -1.1299  0.2380  1.3484
 1516TIP3    H225964   1.480   0.759   0.841 -0.3860 -1.4535  0.4303
 1517TIP3   OH225965   4.963   5.957   0.500  0.0684 -0.5056  0.4725
 1517TIP3    H125966   4.984   5.877   0.452 -2.1204 -0.1443 -1.1313
 1517TIP3    H225967   4.877   5.940   0.538  0.1512  0.6206  1.1790
 1518TIP3   OH225968   2.455   1.798   5.700  0.1110  0.4695 -0.3596
 1518TIP3    H125969   2.402   1.814   5.779  0.2598  0.5221 -0.2697
 1518TIP3    H225970   2.458   1.702   5.693  2.3768  0.3961  1.2562
 1519TIP3   OH225971   4.317   0.335  16.796  0.5745  0.0467 -0.2401
 1519TIP3    H125972   4.234   0.382  16.783  1.8977  2.2273 -0.9631
 1519TIP3    H225973   4.329   0.334  16.891  0.7937  1.6787 -0.2321
 1520TIP3   OH225974   0.604   0.489   1.654 -0.0928 -0.2092 -0.3822
 1520TIP3    H125975   0.580   0.491   1.561  1.3652 -0.3580 -0.7737
 1520TIP3    H225976   0.635   0.400   1.669  0.3167  0.0107  0.0827
 1521TIP3   OH225977   2.348   6.473   4.576  0.0832 -0.5101 -0.6534
 1521TIP3    H125978   2.419   6.457   4.638  1.3926 -1.5134 -2.3655
 1521TIP3    H225979   2.270   6.441   4.621  0.7803  0.1041  1.0407
 1522TIP3   OH225980   3.850   4.568  13.485  0.0399 -0.0144 -0.4756
 1522TIP3    H125981   3.900   4.487  13.492 -0.3690 -0.2035  0.2178
 1522TIP3    H225982   3.894   4.629  13.545  0.2567  0.2362 -0.8846
 1523TIP3   OH225983   4.304   5.033   1.104  0.2205 -0.8046 -0.0558
 1523TIP3    H125984   4.214   5.052   1.076  0.6614 -0.1391 -1.0521
 1523TIP3    H225985   4.330   4.958   1.051 -0.3065 -2.0524  1.4074
 1524TIP3   OH225986   3.747   3.539  13.041 -0.2032 -0.0361 -0.7187
 1524TIP3    H125987   3.675   3.602  13.046  1.9425  2.4955 -0.3722
 1524TIP3    H225988   3.710   3.457  13.076 -2.6190  1.4481  0.3382
 1525TIP3   OH225989   0.100   6.707  10.512  0.5262 -0.2593  0.3636
 1525TIP3    H125990   0.026   6.764  10.491  1.3366  1.1470  1.1450
 1525TIP3    H225991   0.089   6.687  10.605  2.0592  1.4358  0.9410
 1526TIP3   OH225992   6.515   0.996   4.565 -0.3108 -0.5765  0.0204
 1526TIP3    H125993   6.538   0.933   4.498  1.8016  0.5444 -0.3517
 1526TIP3    H225994   6.479   1.070   4.517 -2.0368 -1.1585  0.3955
 1527TIP3   OH225995   4.578   2.093   4.020  0.5195  0.2686 -0.0792
 1527TIP3    H125996   4.536   2.167   4.063  0.1836  0.0242  0.0163
 1527TIP3    H225997   4.597   2.032   4.091  0.9320  0.3281 -0.1370
 1528TIP3   OH225998   3.220   2.667   0.563  0.0525  0.2597 -0.1481
 1528TIP3    H125999   3.209   2.731   0.633 -1.7465  1.8545 -1.8455
 1528TIP3    H226000   3.143   2.609   0.571  0.6266 -0.4805  0.1159
 1529TIP3   OH226001   4.706   2.959  16.423  0.0593  0.4009  0.6693
 1529TIP3    H126002   4.612   2.962  16.404  0.4547 -0.2780 -1.5189
 1529TIP3    H226003   4.748   2.988  16.342  1.7898 -0.8406  1.0961
 1530TIP3   OH226004   5.768   1.878  16.103 -0.2612 -0.4852 -0.0475
 1530TIP3    H126005   5.853   1.897  16.065  0.3822 -1.7905  0.7029
 1530TIP3    H226006   5.772   1.914  16.192 -0.5453 -0.4074 -0.0683
 1531TIP3   OH226007   5.378   4.578   0.043 -0.4275 -0.1428  0.0536
 1531TIP3    H126008   5.354   4.609  -0.044 -0.6665  1.0560  0.5353
 1531TIP3    H226009   5.440   4.507   0.028 -2.1350 -1.4170 -1.1593
 1532TIP3   OH226010   2.630   1.873  12.964  0.5295  0.0390 -0.0507
 1532TIP3    H126011   2.699   1.808  12.953  0.3704 -0.3095  0.9356
 1532TIP3    H226012   2.677   1.954  12.985  0.6148 -0.3851  1.4529
 1533TIP3   OH226013   0.735   4.982  11.650  0.7033  0.2705  0.0134
 1533TIP3    H126014   0.672   4.912  11.635  1.1039 -0.1245  0.1438
 1533TIP3    H226015   0.740   4.989  11.745 -0.5156  1.5615 -0.0036
 1534TIP3   OH226016   0.076   2.777   3.272 -0.7131  0.1196 -0.4071
 1534TIP3    H126017   0.031   2.857   3.245 -3.3652 -1.6564 -1.3476
 1534TIP3    H226018   0.045   2.761   3.361  2.1451  1.7210  0.9741
 1535TIP3   OH226019   2.448   4.384   3.712 -0.4247 -0.5690  0.3244
 1535TIP3    H126020   2.417   4.472   3.733  0.0687 -0.8162  2.1768
 1535TIP3    H226021   2.465   4.387   3.618 -1.2932  1.0367  0.1941
 1536TIP3   OH226022   0.400   6.058   3.670 -0.4240 -0.4012  0.1432
 1536TIP3    H126023   0.421   6.148   3.644 -0.2174  0.0243  1.7472
 1536TIP3    H226024   0.312   6.043   3.636 -0.4872  0.4275 -0.0736
 1537TIP3   OH226025   6.330   1.194  12.194  0.2560 -0.1468 -0.2410
 1537TIP3    H126026   6.312   1.271  12.139  2.4930  0.9639  0.5140
 1537TIP3    H226027   6.379   1.135  12.137 -0.6567 -0.6362 -0.5360
 1538TIP3   OH226028   3.424   6.170  10.748 -0.5997  0.0462  0.1309
 1538TIP3    H126029   3.465   6.165  10.835 -0.1093  0.7447 -0.0533
 1538TIP3    H226030   3.398   6.262  10.740 -0.4820  0.0213 -0.5326
 1539TIP3   OH226031   2.989   5.468   2.119 -0.0724 -0.3495 -0.6982
 1539TIP3    H126032   2.920   5.456   2.184  0.0500  1.7833 -0.1119
 1539TIP3    H226033   3.070   5.459   2.168  0.0494 -1.3078 -1.0763
 1540TIP3   OH226034   2.950   0.668  12.879 -0.4478  0.2128  0.7271
 1540TIP3    H126035   2.854   0.667  12.878 -0.4697  0.1490  2.1606
 1540TIP3    H226036   2.975   0.600  12.817 -1.3056  1.5789 -1.1536
 1541TIP3   OH226037   1.108   3.040   0.618  0.2079 -0.2622  0.5051
 1541TIP3    H126038   1.056   3.113   0.651  0.6506 -1.0711  3.0918
 1541TIP3    H226039   1.156   3.009   0.694  0.3301 -3.0053 -0.6519
 1542TIP3   OH226040   0.649   3.517  12.481 -0.6411  0.1732  0.3738
 1542TIP3    H126041   0.744   3.516  12.470 -0.6449  2.1543  0.0389
 1542TIP3    H226042   0.619   3.439  12.434  0.8404 -0.6664  0.7796
 1543TIP3   OH226043   3.993   2.870  17.034 -0.7992 -0.3586  0.1871
 1543TIP3    H126044   3.992   2.776  17.018  0.1648 -0.4997  0.9410
 1543TIP3    H226045   3.912   2.887  17.083 -1.1565 -0.7337 -0.2742
 1544TIP3   OH226046   1.355   4.496   4.969 -0.1925 -0.7949  0.6617
 1544TIP3    H126047   1.371   4.571   5.025 -0.1974 -0.8349  0.7170
 1544TIP3    H226048   1.304   4.436   5.024 -2.2104  0.1488 -0.1166
 1545TIP3   OH226049   5.987   1.880   1.207 -0.6014 -0.7432  0.6962
 1545TIP3    H126050   5.922   1.828   1.159 -0.8998  0.8432 -0.6350
 1545TIP3    H226051   5.941   1.909   1.285 -1.6466  0.6494 -0.3978
 1546TIP3   OH226052   2.677   4.952  16.647 -0.1077  0.5666 -0.2808
 1546TIP3    H126053   2.706   5.024  16.591 -0.7053  0.2606 -0.9932
 1546TIP3    H226054   2.583   4.968  16.659 -0.2128 -0.0230 -0.3283
 1547TIP3   OH226055   3.733   2.874  15.090  0.2842  0.0304  0.2352
 1547TIP3    H126056   3.683   2.797  15.061  0.2907 -0.0915  0.5402
 1547TIP3    H226057   3.697   2.947  15.040  0.1913 -0.1509  0.0367
 1548TIP3   OH226058   1.034   1.312  14.383 -0.3779  0.1465  0.0960
 1548TIP3    H126059   1.046   1.376  14.313 -1.1897  0.5900  0.3510
 1548TIP3    H226060   1.107   1.252  14.374  0.3321  1.0518 -0.2273
 1549TIP3   OH226061   4.518   1.318  10.522  0.8211 -0.1372  0.0351
 1549TIP3    H126062   4.505   1.224  10.533  1.5123 -0.2028  0.3043
 1549TIP3    H226063   4.480   1.357  10.601 -1.8031  0.0148 -1.2400
 1550TIP3   OH226064   5.352   4.156  13.875  0.1009  0.2658  0.1521
 1550TIP3    H126065   5.424   4.171  13.936  0.0636  1.8079 -0.1457
 1550TIP3    H226066   5.381   4.198  13.794 -1.2771  1.2331  0.1393
 1551TIP3   OH226067   0.210   3.087   2.984 -0.2158  0.1752  0.1405
 1551TIP3    H126068   0.195   3.048   2.897 -1.0951  0.2832  0.2441
 1551TIP3    H226069   0.298   3.058   3.008  0.1526  0.3917 -0.9223
 1552TIP3   OH226070   5.561   4.799   0.847  0.1589 -0.8965 -0.5295
 1552TIP3    H126071   5.601   4.719   0.814 -0.9421 -1.1234 -1.3361
 1552TIP3    H226072   5.635   4.851   0.878  1.1638 -0.9775 -2.6719
 1553TIP3   OH226073   3.086   4.904  13.296  0.1968 -0.3525  0.7248
 1553TIP3    H126074   3.007   4.882  13.345  1.0251 -0.0097  2.2437
 1553TIP3    H226075   3.088   4.840  13.224 -3.6231  2.1645 -1.8167
 1554TIP3   OH226076   2.633   0.593   3.856  0.3133  0.8098 -0.6911
 1554TIP3    H126077   2.555   0.637   3.888  0.3805 -0.0402  0.6953
 1554TIP3    H226078   2.704   0.655   3.871  0.3502  0.3935  0.8948
 1555TIP3   OH226079   3.724   5.041  16.862  0.5842  0.0399  0.1712
 1555TIP3    H126080   3.738   5.050  16.768  1.1660  0.0524  0.2617
 1555TIP3    H226081   3.769   4.960  16.886  2.5268  1.2990  0.8777
 1556TIP3   OH226082   2.237   3.245   2.139  0.1498  0.0333 -0.3493
 1556TIP3    H126083   2.326   3.220   2.115  0.4542  1.6960 -1.0259
 1556TIP3    H226084   2.184   3.168   2.117  1.3190 -0.7117 -0.5862
 1557TIP3   OH226085   4.925   3.443  13.940  0.1513  0.2354 -0.2196
 1557TIP3    H126086   4.885   3.370  13.893 -1.1346  0.2784  0.7703
 1557TIP3    H226087   4.966   3.402  14.017 -0.4313  0.5281  0.2516
 1558TIP3   OH226088   3.994   6.330   0.037 -0.2861  0.2633 -0.0187
 1558TIP3    H126089   4.038   6.415   0.035  0.3599 -0.0397  0.8996
 1558TIP3    H226090   3.990   6.303  -0.055 -0.5208  1.2940 -0.3177
 1559TIP3   OH226091   3.024   3.288   5.418  0.0270  0.1413 -0.2339
 1559TIP3    H126092   3.019   3.384   5.420  2.3287  0.2901 -0.3849
 1559TIP3    H226093   3.088   3.269   5.350 -2.5887 -1.6573 -2.3039
 1560TIP3   OH226094   1.285   2.779  13.381  0.3158 -0.2672  0.2101
 1560TIP3    H126095   1.271   2.806  13.473 -1.4520 -0.7756  0.1070
 1560TIP3    H226096   1.242   2.694  13.374 -0.2661  0.1320 -1.2933
 1561TIP3   OH226097   6.739   3.190   0.064 -0.2491  0.2301  0.1476
 1561TIP3    H126098   6.820   3.140   0.064 -0.6038 -0.3484  0.3247
 1561TIP3    H226099   6.682   3.144   0.125 -1.3374 -0.4233 -1.3277
 1562TIP3   OH226100   2.781   3.835  15.189 -0.4671 -0.2958  0.4032
 1562TIP3    H126101   2.738   3.750  15.179  0.0866 -0.5068 -0.2236
 1562TIP3    H226102   2.780   3.851  15.283 -1.7554 -0.3799  0.4199
 1563TIP3   OH226103   0.284   3.688   4.702  0.0795 -0.5337 -0.0552
 1563TIP3    H126104   0.238   3.744   4.764  0.4801  0.7749 -0.9024
 1563TIP3    H226105   0.376   3.698   4.725  0.1310 -1.1184  0.0011
 1564TIP3   OH226106   1.170   6.628  12.292 -0.3183  0.5581 -0.3687
 1564TIP3    H126107   1.225   6.701  12.265 -1.6613  0.6113 -3.1656
 1564TIP3    H226108   1.092   6.670  12.330 -0.5818  0.5875 -0.9294
 1565TIP3   OH226109   2.448   3.826  12.889  0.2727  0.3250 -0.2777
 1565TIP3    H126110   2.482   3.890  12.951  1.3730 -0.7499  0.2614
 1565TIP3    H226111   2.496   3.844  12.808 -2.4667  2.9133 -1.4087
 1566TIP3   OH226112   5.621   1.660   2.657 -0.5176 -0.2398 -0.5149
 1566TIP3    H126113   5.595   1.751   2.647 -0.6226 -0.3254 -0.9964
 1566TIP3    H226114   5.592   1.637   2.746  1.1299  0.7254  0.2770
 1567TIP3   OH226115   3.985   6.301  13.118 -0.0225 -0.3222 -0.0174
 1567TIP3    H126116   3.948   6.389  13.125 -0.3813 -0.5183  0.5766
 1567TIP3    H226117   4.050   6.296  13.189 -0.0053 -0.5389 -0.0468
 1568TIP3   OH226118   0.688   0.891   4.830  0.4952  0.0647 -0.5409
 1568TIP3    H126119   0.728   0.841   4.900 -0.2212  0.7211  0.3529
 1568TIP3    H226120   0.712   0.982   4.849  0.8485  0.1859 -1.5192
 1569TIP3   OH226121   1.853   0.990  17.177  0.1644  0.1744  0.8641
 1569TIP3    H126122   1.897   0.966  17.096  0.2992  2.6584  0.1622
 1569TIP3    H226123   1.788   0.921  17.190  0.0530 -0.1876 -1.4120
 1570TIP3   OH226124   2.815   5.110   3.330  0.7023 -0.7076  0.4600
 1570TIP3    H126125   2.867   5.172   3.278 -1.4823 -0.2317 -1.2674
 1570TIP3    H226126   2.821   5.027   3.282 -1.0321 -0.3529 -0.4378
 1571TIP3   OH226127   3.545   4.242   2.252 -0.1196 -0.0529 -0.3201
 1571TIP3    H126128   3.617   4.208   2.305  0.4035 -0.1224 -1.0661
 1571TIP3    H226129   3.509   4.314   2.303  0.2514 -0.2467  0.2199
 1572TIP3   OH226130   6.118   6.005  16.429  0.1912  0.6234  0.7025
 1572TIP3    H126131   6.189   6.045  16.480  2.2828 -1.3627 -0.5451
 1572TIP3    H226132   6.063   5.962  16.494  0.0069  2.3499  1.7127
 1573TIP3   OH226133   3.065   3.713  12.303 -0.0610 -0.3534  0.0244
 1573TIP3    H126134   3.072   3.808  12.297 -0.8431 -0.2608  0.5257
 1573TIP3    H226135   3.002   3.689  12.235 -1.0905 -0.3405  0.9527
 1574TIP3   OH226136   2.638   1.101  13.789  0.0155  0.0620  0.1819
 1574TIP3    H126137   2.715   1.136  13.744 -1.4191  1.1108 -1.5152
 1574TIP3    H226138   2.659   1.010  13.806  0.9740 -0.1122 -1.7919
 1575TIP3   OH226139   0.150   4.030  16.558  0.2674  0.5109  0.2113
 1575TIP3    H126140   0.193   4.115  16.560 -1.6447  1.5544 -1.0408
 1575TIP3    H226141   0.148   4.007  16.465  0.6911 -0.8547  0.5337
 1576TIP3   OH226142   4.952   3.158   0.531  0.4893  0.5963  0.2239
 1576TIP3    H126143   5.027   3.206   0.495  0.2242  1.5439  0.9257
 1576TIP3    H226144   4.951   3.182   0.624 -0.2064 -0.0418  0.3790
 1577TIP3   OH226145   6.153   0.619   3.824 -0.3346  0.3058  0.3142
 1577TIP3    H126146   6.167   0.627   3.918  0.3973  3.5939 -0.0310
 1577TIP3    H226147   6.216   0.553   3.795  1.4572  1.3685  1.7023
 1578TIP3   OH226148   5.715   3.841   4.130 -0.1054 -0.5553  0.2409
 1578TIP3    H126149   5.798   3.870   4.091  0.6265 -0.5275  1.7871
 1578TIP3    H226150   5.663   3.810   4.056  1.0085  0.1061 -0.8321
 1579TIP3   OH226151   6.247   1.831  16.245  1.0464 -0.4275 -0.8513
 1579TIP3    H126152   6.174   1.879  16.285 -0.6020 -0.9692 -3.1284
 1579TIP3    H226153   6.285   1.783  16.318 -2.4177 -2.0354  0.0266
 1580TIP3   OH226154   4.179   2.403  14.595  0.0245 -0.5055  0.1892
 1580TIP3    H126155   4.219   2.344  14.531  1.8091  0.3524  0.4893
 1580TIP3    H226156   4.217   2.377  14.678 -1.5293 -0.9488  0.7729
 1581TIP3   OH226157   5.103   6.365   2.341  0.2785  0.1125  0.6684
 1581TIP3    H126158   5.083   6.392   2.251 -0.3495 -0.9693  0.4784
 1581TIP3    H226159   5.046   6.419   2.395 -1.7512 -1.5595  0.2292
 1582TIP3   OH226160   3.556   0.724  10.448  0.1415 -0.4667 -0.5488
 1582TIP3    H126161   3.514   0.738  10.363  0.2452  1.0064 -0.3729
 1582TIP3    H226162   3.620   0.655  10.432 -0.6137 -0.9816 -1.3997
 1583TIP3   OH226163   0.726   0.894   5.899  0.0137 -0.2094 -0.1310
 1583TIP3    H126164   0.669   0.827   5.938 -0.4209 -0.3114 -0.9304
 1583TIP3    H226165   0.672   0.973   5.899  1.4441  0.8566  3.3108
 1584TIP3   OH226166   3.727   0.886   3.996  0.1398  0.0111  0.2210
 1584TIP3    H126167   3.791   0.869   4.065  0.1181  0.8642  0.4581
 1584TIP3    H226168   3.767   0.848   3.917  1.3882  1.3402  0.1758
 1585TIP3   OH226169   2.245   0.646   3.390 -0.0617 -0.3809  0.5279
 1585TIP3    H126170   2.315   0.581   3.389 -1.0009 -1.3972  0.6800
 1585TIP3    H226171   2.274   0.711   3.455  0.4531 -1.1096  1.0374
 1586TIP3   OH226172   1.752   3.566   4.159 -0.3315  0.0582  0.5265
 1586TIP3    H126173   1.670   3.587   4.114 -0.5057  0.4948  1.0508
 1586TIP3    H226174   1.800   3.512   4.096 -0.7142  0.3970 -0.0641
 1587TIP3   OH226175   5.071   0.498  13.314 -0.3810  0.2981 -0.2589
 1587TIP3    H126176   5.119   0.581  13.319 -0.6137  0.7440 -4.1213
 1587TIP3    H226177   5.140   0.431  13.315  0.1242  0.7719 -1.9341
 1588TIP3   OH226178   4.060   3.814   1.873  0.7034 -1.0612 -0.0750
 1588TIP3    H126179   4.039   3.798   1.965 -0.0788  1.2509  0.1941
 1588TIP3    H226180   4.154   3.832   1.873  0.4345  0.4034  0.5090
 1589TIP3   OH226181   0.378   4.513  13.181 -0.6014  0.3107  0.2640
 1589TIP3    H126182   0.473   4.504  13.176 -0.6797 -0.4567  0.0186
 1589TIP3    H226183   0.352   4.543  13.094 -0.6431 -0.0752  0.1432
 1590TIP3   OH226184   0.513   6.529   1.513  1.0874  0.5103 -0.5717
 1590TIP3    H126185   0.563   6.609   1.528 -1.6320  2.2858 -0.6939
 1590TIP3    H226186   0.491   6.532   1.419  0.3265  0.0211 -0.4126
 1591TIP3   OH226187   0.217   1.554   3.289  0.0679  0.2855 -0.4508
 1591TIP3    H126188   0.206   1.603   3.207  2.3654 -0.3512 -1.1772
 1591TIP3    H226189   0.278   1.607   3.340 -0.1588 -0.0868  0.2043
 1592TIP3   OH226190   2.491   4.482   3.371 -0.9572 -0.2960  0.6703
 1592TIP3    H126191   2.395   4.475   3.374 -0.9118 -3.2348 -1.7802
 1592TIP3    H226192   2.522   4.401   3.411  0.4050 -1.0797 -1.8578
 1593TIP3   OH226193   0.831   1.302  15.161 -0.5123  0.3778 -0.8877
 1593TIP3    H126194   0.792   1.389  15.149  0.3738  0.4672 -3.2349
 1593TIP3    H226195   0.845   1.269  15.073  1.9595 -0.9194 -0.0637
 1594TIP3   OH226196   5.054   5.404   2.341 -0.2450 -0.1311  0.1757
 1594TIP3    H126197   5.133   5.374   2.385 -1.4159 -0.7190  1.9424
 1594TIP3    H226198   5.042   5.494   2.371 -0.7614 -0.3585  0.6599
 1595TIP3   OH226199   4.894   2.195  12.556 -0.0073 -0.5160 -0.7913
 1595TIP3    H126200   4.973   2.143  12.545 -0.2507 -1.0948  0.1218
 1595TIP3    H226201   4.848   2.154  12.630 -1.1144 -0.1396 -1.2550
 1596TIP3   OH226202   4.569   3.272   4.988 -0.0033  0.0456 -0.0138
 1596TIP3    H126203   4.588   3.365   5.001 -0.4704 -0.0639  1.5746
 1596TIP3    H226204   4.615   3.228   5.060 -0.2413 -0.8916 -0.4310
 1597TIP3   OH226205   1.371   4.276   1.323 -0.1804 -0.4772 -0.0781
 1597TIP3    H126206   1.352   4.233   1.240 -1.0807 -0.4225  0.0965
 1597TIP3    H226207   1.411   4.360   1.299 -0.5268 -0.4212 -0.4570
 1598TIP3   OH226208   1.524   5.606  16.619  0.0731  0.6912 -0.2505
 1598TIP3    H126209   1.601   5.568  16.577 -0.8745 -2.1910  0.5270
 1598TIP3    H226210   1.557   5.646  16.699  0.6174 -1.7807  0.8061
 1599TIP3   OH226211   1.642   3.793   2.546 -0.6342 -0.0660 -0.3684
 1599TIP3    H126212   1.668   3.833   2.630 -1.4708 -0.9094  0.2986
 1599TIP3    H226213   1.720   3.802   2.491  0.1927 -0.2088  0.7504
 1600TIP3   OH226214   1.598   2.403  12.997  0.1544 -0.1453  0.2711
 1600TIP3    H126215   1.677   2.408  12.943 -0.1792 -1.2744 -0.3259
 1600TIP3    H226216   1.629   2.364  13.079  0.5609  1.1117  0.7408
 1601TIP3   OH226217   1.751   0.911  15.180  0.6116 -0.5073  0.2798
 1601TIP3    H126218   1.735   1.002  15.205 -4.7817 -1.8160  2.3733
 1601TIP3    H226219   1.796   0.872  15.255 -1.4245 -0.6322  1.4833
 1602TIP3   OH226220   0.761   3.377  15.508 -0.2091  0.2934  0.3929
 1602TIP3    H126221   0.810   3.458  15.497  0.3767 -0.1397 -0.2793
 1602TIP3    H226222   0.698   3.396  15.577  0.6707  0.9762  1.0279
 1603TIP3   OH226223   3.664   1.455   3.719 -0.8435  0.1986 -0.3540
 1603TIP3    H126224   3.598   1.522   3.703 -1.4812 -0.4247 -0.3591
 1603TIP3    H226225   3.676   1.455   3.814 -1.9181 -0.6882 -0.2113
 1604TIP3   OH226226   1.859   1.254  13.090  0.1677  0.1658  0.0486
 1604TIP3    H126227   1.935   1.238  13.034 -0.4894  0.8204 -1.0387
 1604TIP3    H226228   1.865   1.347  13.114  0.8550 -0.2880  1.6838
 1605TIP3   OH226229   3.563   6.355   5.990 -0.4462  1.0396 -0.3255
 1605TIP3    H126230   3.575   6.332   5.898 -2.2971 -0.0358 -0.3099
 1605TIP3    H226231   3.645   6.397   6.015  0.9938 -0.8099 -1.8103
 1606TIP3   OH226232   6.732   6.549   0.389  0.3977 -0.6471  0.2443
 1606TIP3    H126233   6.778   6.472   0.355  0.2299 -0.0169 -1.4672
 1606TIP3    H226234   6.716   6.603   0.311  1.2201  1.4945  1.5333
 1607TIP3   OH226235   2.612   6.735  13.260  0.6061  0.0148  0.9565
 1607TIP3    H126236   2.691   6.788  13.272  2.0120 -1.7761 -0.0896
 1607TIP3    H226237   2.583   6.756  13.171 -0.2445  0.8611  1.4329
 1608TIP3   OH226238   6.527   2.722   2.196  0.3748 -0.0417 -0.5811
 1608TIP3    H126239   6.504   2.631   2.218  1.7871 -0.7131 -1.7216
 1608TIP3    H226240   6.443   2.765   2.180 -0.4117 -0.7011  1.5779
 1609TIP3   OH226241   6.082   1.957  13.776 -0.4101 -0.1396  0.6416
 1609TIP3    H126242   6.018   1.936  13.708  1.6409  0.0321 -1.3908
 1609TIP3    H226243   6.124   2.037  13.746  2.5047 -1.5913  0.5934
 1610TIP3   OH226244   0.519   0.063  15.495 -0.3750 -0.2845  0.1259
 1610TIP3    H126245   0.575   0.070  15.572 -0.2445  2.0024 -0.1276
 1610TIP3    H226246   0.563   0.116  15.428 -1.1205 -1.2217 -1.1432
 1611TIP3   OH226247   0.708   6.328   1.220 -0.0943  0.5233  0.2854
 1611TIP3    H126248   0.627   6.342   1.269 -0.8695  1.2746 -1.1671
 1611TIP3    H226249   0.680   6.327   1.128  1.6179  1.4483 -0.2687
 1612TIP3   OH226250   5.740   5.570  11.702 -0.3713 -0.1731  0.4352
 1612TIP3    H126251   5.737   5.650  11.648  0.8996 -1.1842 -1.1775
 1612TIP3    H226252   5.816   5.522  11.669 -1.2761 -2.1830  1.2085
 1613TIP3   OH226253   4.655   5.995  11.551 -0.1712 -0.4012  0.0556
 1613TIP3    H126254   4.663   5.964  11.460 -1.3652 -0.8032  0.0777
 1613TIP3    H226255   4.599   6.072  11.545 -1.2057 -1.0914  0.5722
 1614TIP3   OH226256   0.994   3.763  16.170 -0.2013 -0.4928 -0.3067
 1614TIP3    H126257   0.976   3.669  16.166 -1.0983 -0.4475  1.8988
 1614TIP3    H226258   0.914   3.804  16.138 -0.0264 -0.4466 -0.6974
 1615TIP3   OH226259   5.475   3.486  10.807  0.3992 -0.3979  0.0353
 1615TIP3    H126260   5.423   3.563  10.831  0.3247 -0.3449 -0.2960
 1615TIP3    H226261   5.462   3.425  10.880 -2.8967 -1.7820 -1.5800
 1616TIP3   OH226262   6.774   6.086   2.979  0.1665  0.0023 -0.0149
 1616TIP3    H126263   6.808   6.000   2.956  0.9967  0.9926 -2.6936
 1616TIP3    H226264   6.789   6.093   3.073  1.3715 -2.1985  0.0019
 1617TIP3   OH226265   2.615   3.761   2.748 -0.4972 -1.0992  0.5611
 1617TIP3    H126266   2.552   3.783   2.817 -0.2673  0.5031  0.2936
 1617TIP3    H226267   2.688   3.721   2.795 -1.4065 -2.3251  0.9515
 1618TIP3   OH226268   2.218   3.807  13.591  0.3665 -0.3811 -0.8050
 1618TIP3    H126269   2.281   3.771  13.653 -1.8733 -2.7238  0.2193
 1618TIP3    H226270   2.199   3.734  13.532 -1.4055  0.2793 -1.0783
 1619TIP3   OH226271   0.368   2.926  14.571 -0.2236 -0.2511 -0.3426
 1619TIP3    H126272   0.284   2.952  14.534 -1.6104  0.0661  2.8589
 1619TIP3    H226273   0.410   3.008  14.596 -0.7080 -0.5723  1.6270
 1620TIP3   OH226274   5.611   3.165  12.152 -0.0697 -1.2324  0.0509
 1620TIP3    H126275   5.696   3.122  12.141  1.1548  1.1277 -0.1179
 1620TIP3    H226276   5.627   3.233  12.217 -1.6190 -0.1679 -0.6512
 1621TIP3   OH226277   2.030   5.101  13.749 -1.0326 -0.2961 -0.2476
 1621TIP3    H126278   2.098   5.063  13.803 -0.5229 -0.3256 -0.9015
 1621TIP3    H226279   1.948   5.080  13.795 -0.5784  0.1383  0.7730
 1622TIP3   OH226280   3.422   3.389  15.270 -0.1683 -0.3319  0.4358
 1622TIP3    H126281   3.332   3.418  15.259  0.0305 -0.6942 -2.3484
 1622TIP3    H226282   3.415   3.311  15.325 -1.4824 -0.0120  0.7389
 1623TIP3   OH226283   1.263   3.038  16.232  0.2150 -0.9308  0.0923
 1623TIP3    H126284   1.248   3.119  16.182  2.3347 -1.0973 -0.8455
 1623TIP3    H226285   1.228   2.969  16.176 -0.2823 -0.8256  0.2648
 1624TIP3   OH226286   4.676   5.594   5.790  0.0923 -0.3135 -0.2256
 1624TIP3    H126287   4.586   5.570   5.772 -0.3867  1.4937 -0.3361
 1624TIP3    H226288   4.718   5.513   5.818 -1.9344 -0.8665  1.2770
 1625TIP3   OH226289   0.680   3.882   5.751 -0.3032 -0.2826  0.0756
 1625TIP3    H126290   0.674   3.793   5.715 -1.4750 -0.9605  1.8375
 1625TIP3    H226291   0.590   3.904   5.776  0.3071  0.5619  1.5821
 1626TIP3   OH226292   1.923   3.659   6.616 -0.1832 -0.1728 -0.8581
 1626TIP3    H126293   1.938   3.566   6.631  0.4636  0.2545  1.4648
 1626TIP3    H226294   1.830   3.665   6.592 -0.3716 -1.3508 -0.4681
 1627TIP3   OH226295   3.465   5.177   4.756 -0.3439 -0.3563  0.7503
 1627TIP3    H126296   3.499   5.114   4.820 -1.0419 -1.2667  0.2493
 1627TIP3    H226297   3.407   5.125   4.700 -2.0764  1.0263  1.2196
 1628TIP3   OH226298   3.588   4.012   5.663  0.6208 -0.2966 -0.0337
 1628TIP3    H126299   3.518   3.978   5.718 -0.5132 -0.1897 -1.3737
 1628TIP3    H226300   3.570   3.976   5.576  1.9498  0.1320 -0.5043
 1629TIP3   OH226301   3.069   3.141  16.188  0.7150 -0.3686  0.1582
 1629TIP3    H126302   3.039   3.101  16.107  0.7069 -3.3843  1.5516
 1629TIP3    H226303   3.136   3.080  16.221  0.3928  0.5498  2.6193
 1630TIP3   OH226304   3.548   0.101  13.008  0.3229 -0.0069  0.0764
 1630TIP3    H126305   3.524   0.124  13.098  0.8947  1.5412 -0.1439
 1630TIP3    H226306   3.642   0.086  13.011  0.1319 -1.2718 -0.0126
 1631TIP3   OH226307   1.156   2.916  15.986 -0.0344  0.0261 -0.3760
 1631TIP3    H126308   1.188   2.910  15.896 -0.3351 -0.6744 -0.4353
 1631TIP3    H226309   1.071   2.960  15.977 -0.5865 -1.0765 -0.5503
 1632TIP3   OH226310   4.394   1.012   3.691 -0.1161 -0.3447  0.3106
 1632TIP3    H126311   4.487   0.988   3.691 -0.0110  0.0613  0.2063
 1632TIP3    H226312   4.387   1.080   3.625 -0.9150 -1.9450 -1.3139
 1633TIP3   OH226313   6.190   1.596   4.811  0.0574 -0.0312  0.3911
 1633TIP3    H126314   6.222   1.599   4.721 -0.0678 -2.3634  0.2350
 1633TIP3    H226315   6.097   1.619   4.805 -0.1122 -0.8296 -0.1919
 1634TIP3   OH226316   2.547   4.913   4.600  0.2333  0.1887 -0.2420
 1634TIP3    H126317   2.570   4.895   4.691 -2.1285 -0.5613  0.2511
 1634TIP3    H226318   2.622   4.881   4.549  1.9563  1.4050  1.4590
 1635TIP3   OH226319   6.704   0.604   4.234 -0.0221 -0.1539  0.2369
 1635TIP3    H126320   6.715   0.634   4.143 -1.7882  4.0775  1.2815
 1635TIP3    H226321   6.793   0.601   4.269  0.5430 -0.1692 -1.1552
 1636TIP3   OH226322   0.639   2.872   2.053  0.0691 -0.5945 -0.8329
 1636TIP3    H126323   0.547   2.876   2.024  0.1715  1.2531 -0.9574
 1636TIP3    H226324   0.644   2.934   2.125  1.5886  0.4728 -1.8483
 1637TIP3   OH226325   0.736   3.970   1.419  0.3216  0.1610  0.2007
 1637TIP3    H126326   0.733   3.885   1.462 -0.6341 -0.8416 -1.7792
 1637TIP3    H226327   0.826   4.000   1.429  0.2900 -0.3980  2.2038
 1638TIP3   OH226328   3.166   6.688   0.464  0.2072 -0.2404  0.2105
 1638TIP3    H126329   3.134   6.650   0.382  1.3050  0.0030 -0.3406
 1638TIP3    H226330   3.220   6.763   0.437  0.5262 -0.1198  1.1480
 1639TIP3   OH226331   2.063   3.231   4.726 -0.5795  0.0384  0.2794
 1639TIP3    H126332   2.084   3.152   4.775 -1.6943 -0.1562  0.4550
 1639TIP3    H226333   2.147   3.272   4.708  0.0445 -1.4886 -0.2974
 1640TIP3   OH226334   6.693   3.580   2.758 -0.2782 -0.5153  0.2759
 1640TIP3    H126335   6.726   3.573   2.847  0.3878  2.2757  0.2872
 1640TIP3    H226336   6.771   3.578   2.703 -0.6197 -1.2233 -0.1874
 1641TIP3   OH226337   1.475   2.063  16.084  0.2697  1.1131  0.4998
 1641TIP3    H126338   1.469   2.018  15.999 -1.5083 -0.0274  1.1904
 1641TIP3    H226339   1.398   2.120  16.086 -1.6886 -1.4955  2.7922
 1642TIP3   OH226340   4.446   3.005  11.512  0.0111  0.5623  0.7313
 1642TIP3    H126341   4.428   3.077  11.573 -0.6202  1.4266 -0.4471
 1642TIP3    H226342   4.364   2.958  11.505  0.1232  0.3754  0.6690
 1643TIP3   OH226343   0.626   1.187  15.837  0.2423 -0.3874  0.2045
 1643TIP3    H126344   0.596   1.120  15.776 -0.6698 -0.7997  1.0979
 1643TIP3    H226345   0.558   1.191  15.904  1.4173 -0.2171  1.4015
 1644TIP3   OH226346   6.650   2.522   4.906  0.2463  0.4320 -0.0176
 1644TIP3    H126347   6.708   2.570   4.847 -1.9015  3.2722  0.0963
 1644TIP3    H226348   6.681   2.432   4.902  2.0212  1.1243 -3.1557
 1645TIP3   OH226349   2.429   5.075   2.812  0.2368  0.0460  0.5338
 1645TIP3    H126350   2.390   5.162   2.802 -0.9071 -0.2194  2.5634
 1645TIP3    H226351   2.487   5.067   2.736 -0.1315  2.3121 -0.0375
 1646TIP3   OH226352   6.404   5.977  11.347  0.3160 -0.6515 -0.1097
 1646TIP3    H126353   6.390   6.070  11.363 -0.8999 -0.8878  0.2587
 1646TIP3    H226354   6.491   5.972  11.308 -0.0776  0.7563 -1.2114
 1647TIP3   OH226355   6.615   6.065  16.425 -0.3504 -0.1916  0.0971
 1647TIP3    H126356   6.608   5.989  16.367  1.9999 -0.4168  0.0500
 1647TIP3    H226357   6.660   6.032  16.503 -0.4326  0.8810  0.6080
 1648TIP3   OH226358   1.295   6.101   3.188  0.6071 -0.9597 -0.6450
 1648TIP3    H126359   1.256   6.073   3.270  1.9848 -1.6459 -0.1984
 1648TIP3    H226360   1.227   6.151   3.144 -0.7138 -2.0486  0.1415
 1649TIP3   OH226361   3.067   4.988  11.983  0.1826  0.3818 -0.7142
 1649TIP3    H126362   3.098   4.964  12.070  0.1284 -1.4133 -1.1607
 1649TIP3    H226363   3.122   5.062  11.957  1.6902 -0.4758 -0.0373
 1650TIP3   OH226364   1.861   5.147   1.831  0.1382 -0.4386 -0.2747
 1650TIP3    H126365   1.887   5.145   1.923 -0.3752 -1.7369 -0.1485
 1650TIP3    H226366   1.802   5.222   1.825 -1.3913 -1.5246  0.8808
 1651TIP3   OH226367   3.447   3.666   1.143  0.0297 -0.0572 -0.2217
 1651TIP3    H126368   3.458   3.654   1.048 -0.1810  1.4883 -0.4449
 1651TIP3    H226369   3.533   3.644   1.179  0.5839  0.8923 -0.9279
 1652TIP3   OH226370   1.081   5.686   5.979 -0.5387 -0.1930 -1.0634
 1652TIP3    H126371   1.039   5.658   6.061  0.1769  1.0937 -0.2373
 1652TIP3    H226372   1.072   5.610   5.921 -0.9450 -1.1776  0.2414
 1653TIP3   OH226373   2.951   3.088   4.455  0.2445  0.1327  0.4358
 1653TIP3    H126374   3.003   3.153   4.503  2.0995 -1.2515  0.3694
 1653TIP3    H226375   3.002   3.007   4.462 -1.8850 -1.2567  0.2772
 1654TIP3   OH226376   0.414   2.104  11.756 -0.2308  0.4089 -0.2084
 1654TIP3    H126377   0.365   2.180  11.787 -0.3441 -0.6809  2.3888
 1654TIP3    H226378   0.359   2.029  11.779  0.9035 -0.6055 -0.7512
 1655TIP3   OH226379   4.462   2.594  15.071 -0.3964  0.6975 -0.1861
 1655TIP3    H126380   4.405   2.593  14.994 -1.7701 -0.9248  0.8322
 1655TIP3    H226381   4.405   2.575  15.145  1.6554 -2.7092  0.6670
 1656TIP3   OH226382   4.050   3.949  14.486  0.0505 -0.0311 -0.1665
 1656TIP3    H126383   3.956   3.956  14.469  0.3577  0.3494 -1.7862
 1656TIP3    H226384   4.066   3.856  14.498 -0.4042 -0.1815 -0.7083
 1657TIP3   OH226385   3.036   3.512  13.523 -0.0998  0.2114  0.4980
 1657TIP3    H126386   3.124   3.487  13.549 -0.1575  1.6940  2.1748
 1657TIP3    H226387   3.033   3.607  13.533 -1.8153  0.2083  0.2507
 1658TIP3   OH226388   4.483   2.748  16.619  0.3128 -1.1120  0.0839
 1658TIP3    H126389   4.422   2.674  16.625 -1.5878  0.2110 -2.1723
 1658TIP3    H226390   4.543   2.723  16.548  0.5806 -1.1219  0.3139
 1659TIP3   OH226391   2.145   5.377  13.735 -0.0887 -0.5369  0.1170
 1659TIP3    H126392   2.173   5.382  13.643  0.3014  0.1289  0.2727
 1659TIP3    H226393   2.103   5.291  13.742  0.0485 -0.6708 -0.6384
 1660TIP3   OH226394   4.326   0.943  17.010 -0.2996 -0.1893  0.5829
 1660TIP3    H126395   4.233   0.930  17.031 -0.3114 -1.4000 -0.1619
 1660TIP3    H226396   4.345   0.877  16.943  1.2810 -0.3974  1.2203
 1661TIP3   OH226397   4.928   2.755   4.722  0.2409  0.0188 -0.5384
 1661TIP3    H126398   5.006   2.753   4.665 -0.4428  0.1914 -1.4859
 1661TIP3    H226399   4.910   2.662   4.740  0.0417 -0.0668 -1.1782
 1662TIP3   OH226400   1.872   5.192   4.488  0.0955  0.1955 -0.3914
 1662TIP3    H126401   1.939   5.179   4.421 -0.6977  0.3694 -1.2179
 1662TIP3    H226402   1.910   5.154   4.568  1.3296  0.6341 -0.7672
 1663TIP3   OH226403   1.367   1.720  12.737 -0.3475  0.3568  0.2344
 1663TIP3    H126404   1.320   1.771  12.803 -1.4231 -0.1190 -0.1662
 1663TIP3    H226405   1.374   1.633  12.775 -0.8623  0.1138 -0.2331
 1664TIP3   OH226406   1.340   0.657   0.261  0.0402 -0.1754 -0.1915
 1664TIP3    H126407   1.322   0.706   0.341  0.3858 -1.3550  0.6209
 1664TIP3    H226408   1.326   0.566   0.285  0.2242 -0.5550 -1.4634
 1665TIP3   OH226409   6.291   6.737   5.082 -0.0053  0.2920 -0.2553
 1665TIP3    H126410   6.321   6.655   5.122 -0.5435  1.4097  2.5631
 1665TIP3    H226411   6.196   6.731   5.085 -0.0521  0.3937 -1.4091
 1666TIP3   OH226412   2.403   0.945  14.584  0.4066 -0.2168  0.3123
 1666TIP3    H126413   2.484   0.988  14.555 -0.5760  0.6105 -1.3075
 1666TIP3    H226414   2.421   0.852  14.574  1.1255 -0.0364 -0.1366
 1667TIP3   OH226415   5.802   2.106  14.115  0.1926  0.1392  0.1052
 1667TIP3    H126416   5.746   2.124  14.039 -2.0889  0.6793  1.8634
 1667TIP3    H226417   5.764   2.027  14.154  2.2058 -0.9492 -0.0799
 1668TIP3   OH226418   1.485   3.218  11.537  0.1499 -0.1191  0.7922
 1668TIP3    H126419   1.525   3.300  11.566  0.0692  0.8010 -1.5469
 1668TIP3    H226420   1.558   3.166  11.503 -0.0658 -0.1567  0.3774
 1669TIP3   OH226421   5.046   1.476   1.598  0.3266 -0.3182 -0.1192
 1669TIP3    H126422   5.124   1.514   1.639 -0.0476 -1.8316  2.0768
 1669TIP3    H226423   4.986   1.458   1.671 -0.6420 -2.4985 -1.3824
 1670TIP3   OH226424   5.874   4.283  16.401 -0.4573 -0.0856 -0.3640
 1670TIP3    H126425   5.924   4.362  16.380 -0.1298 -0.5716 -1.4528
 1670TIP3    H226426   5.917   4.246  16.478 -0.6463  0.8194  0.1818
 1671TIP3   OH226427   5.786   5.758  15.577 -0.3705  0.2802 -0.2246
 1671TIP3    H126428   5.858   5.703  15.544 -0.7537 -0.4255  0.0981
 1671TIP3    H226429   5.718   5.695  15.602 -0.5852  0.8798  0.7071
 1672TIP3   OH226430   2.876   1.794   1.522  0.3829  0.8255  0.5353
 1672TIP3    H126431   2.842   1.829   1.440  0.8211  0.8709  0.3724
 1672TIP3    H226432   2.912   1.708   1.498  0.6399  0.9003  0.6509
 1673TIP3   OH226433   3.326   4.145  12.962  0.1965  0.3052 -0.4610
 1673TIP3    H126434   3.243   4.161  12.918  0.0590  0.7916 -0.0324
 1673TIP3    H226435   3.338   4.050  12.957 -1.7080 -0.1053  1.7839
 1674TIP3   OH226436   6.262   5.569  11.870  0.1251  0.3257 -0.3047
 1674TIP3    H126437   6.246   5.650  11.821 -0.9328  0.2722 -0.0588
 1674TIP3    H226438   6.211   5.503  11.823 -0.4566  0.1643  0.5449
 1675TIP3   OH226439   1.167   4.485  16.609 -0.0138  0.1165 -0.3093
 1675TIP3    H126440   1.142   4.432  16.684  1.2285  0.0046  0.0240
 1675TIP3    H226441   1.170   4.575  16.643 -1.3985  0.3300 -0.7049
 1676TIP3   OH226442   3.886   3.403   2.915  0.1796 -0.1747 -0.2306
 1676TIP3    H126443   3.824   3.357   2.858  0.7655 -1.0678 -0.1620
 1676TIP3    H226444   3.831   3.441   2.984 -0.3650 -0.4075 -0.5299
 1677TIP3   OH226445   0.331   1.298  15.564  0.0922 -0.3888 -0.5591
 1677TIP3    H126446   0.304   1.207  15.567 -1.4127 -0.0032 -1.5909
 1677TIP3    H226447   0.343   1.316  15.470  1.8166  0.0704 -0.2677
 1678TIP3   OH226448   5.842   2.995  12.066 -0.2102 -0.2855 -0.4562
 1678TIP3    H126449   5.844   3.014  11.972  3.0424 -1.8205 -0.7554
 1678TIP3    H226450   5.918   3.041  12.102 -0.1197 -1.5486  1.0349
 1679TIP3   OH226451   2.509   1.705   4.424  0.0773  0.4037 -0.1883
 1679TIP3    H126452   2.432   1.719   4.368 -0.7872  0.4610  1.0063
 1679TIP3    H226453   2.571   1.774   4.396 -1.7998  2.8501  1.4755
 1680TIP3   OH226454   6.008   3.930  13.034 -0.0009  0.0579 -0.4366
 1680TIP3    H126455   6.064   4.008  13.027  0.1637  0.0757  0.9722
 1680TIP3    H226456   5.937   3.957  13.093 -1.0458 -0.2344 -1.5312
 1681TIP3   OH226457   2.288   6.542  14.769 -0.0803 -0.3704 -0.4848
 1681TIP3    H126458   2.210   6.580  14.807  0.0428  0.2100 -0.8108
 1681TIP3    H226459   2.256   6.493  14.693 -0.1563 -0.3803 -0.4462
 1682TIP3   OH226460   4.762   2.607  15.859 -0.1081 -0.1883  0.1247
 1682TIP3    H126461   4.817   2.685  15.850 -1.7447  0.9549 -0.2768
 1682TIP3    H226462   4.814   2.547  15.913  0.4843  1.8775  1.9348
 1683TIP3   OH226463   4.600   2.895   1.538 -0.0365  0.0690 -0.4296
 1683TIP3    H126464   4.623   2.942   1.458  1.1544  0.2554  0.0175
 1683TIP3    H226465   4.682   2.886   1.585 -0.3521 -1.9443 -0.2301
 1684TIP3   OH226466   0.597   5.318   0.291 -0.3770  0.2143  0.2486
 1684TIP3    H126467   0.583   5.275   0.206  1.2435 -0.2879  0.2211
 1684TIP3    H226468   0.609   5.410   0.270  2.0686 -0.1907 -0.3056
 1685TIP3   OH226469   3.501   3.963   2.922  0.2825 -0.3823 -0.0616
 1685TIP3    H126470   3.568   3.919   2.976 -0.0979 -0.9099 -0.0141
 1685TIP3    H226471   3.450   4.014   2.984  0.7448  0.1570 -0.1201
 1686TIP3   OH226472   0.433   5.859  15.092  0.4704  0.6547 -0.8149
 1686TIP3    H126473   0.526   5.837  15.098  0.0423 -0.8734  0.6689
 1686TIP3    H226474   0.413   5.898  15.178 -0.4465  0.2156 -0.8261
 1687TIP3   OH226475   6.033   2.719  13.470 -0.2707  0.0733  0.9803
 1687TIP3    H126476   5.998   2.683  13.551 -0.9356 -1.3868  0.0660
 1687TIP3    H226477   6.124   2.690  13.468  0.2167  1.4408  1.9444
 1688TIP3   OH226478   1.458   2.382   3.700 -0.1049  0.0668 -0.7139
 1688TIP3    H126479   1.451   2.367   3.794  0.6795 -0.5837 -0.7553
 1688TIP3    H226480   1.552   2.397   3.685 -0.2803  0.6175 -1.3292
 1689TIP3   OH226481   0.331   1.627   0.152 -0.1799  0.0203  0.3268
 1689TIP3    H126482   0.347   1.542   0.193 -2.3153 -0.4570  0.2599
 1689TIP3    H226483   0.331   1.609   0.058  0.6025  0.3339  0.2649
 1690TIP3   OH226484   4.130   2.610  12.986 -0.3997 -0.4412  0.0489
 1690TIP3    H126485   4.177   2.687  12.955 -1.9110 -0.5532 -2.6143
 1690TIP3    H226486   4.170   2.537  12.939 -1.5869 -0.8190 -0.3751
 1691TIP3   OH226487   0.101   3.740  16.595 -0.7152 -0.0469 -0.6146
 1691TIP3    H126488   0.109   3.835  16.604 -1.2032 -0.0141 -0.4932
 1691TIP3    H226489   0.143   3.704  16.674  0.9845  0.0035 -1.4798
 1692TIP3   OH226490   0.837   3.478   4.937  0.7779  0.4375  0.2038
 1692TIP3    H126491   0.836   3.524   4.853  1.0669 -1.6452 -0.9599
 1692TIP3    H226492   0.753   3.501   4.977 -0.0592  0.1949 -1.3618
 1693TIP3   OH226493   6.369   4.952  11.585 -0.9832 -0.0807 -0.7508
 1693TIP3    H126494   6.334   5.035  11.554  1.9389  1.7897  0.7782
 1693TIP3    H226495   6.377   4.962  11.680 -0.9725 -2.2528 -0.4913
 1694TIP3   OH226496   0.571   2.046  13.544  0.6994  0.4631  0.2127
 1694TIP3    H126497   0.531   2.090  13.469 -0.9020  0.0215  0.7666
 1694TIP3    H226498   0.496   2.020  13.599  1.6020 -2.3130  0.2287
 1695TIP3   OH226499   5.109   2.389   0.120  0.0646  0.6956  0.3429
 1695TIP3    H126500   5.016   2.381   0.103  0.2900  0.9022 -0.9951
 1695TIP3    H226501   5.116   2.462   0.182 -0.5984  1.0952 -0.0592
 1696TIP3   OH226502   4.093   2.669  16.519  0.2484 -0.1071 -0.8942
 1696TIP3    H126503   4.015   2.613  16.524 -0.3886  0.7000 -1.7098
 1696TIP3    H226504   4.156   2.628  16.579 -1.2398 -0.0468  0.7291
 1697TIP3   OH226505   6.042   6.523   4.843  0.3440 -0.4492 -0.0152
 1697TIP3    H126506   6.041   6.518   4.939 -0.6759 -0.9940 -0.0415
 1697TIP3    H226507   6.057   6.433   4.814  1.1495 -0.2050 -0.3675
 1698TIP3   OH226508   5.321   1.011  14.214  0.0078 -0.1831  0.3035
 1698TIP3    H126509   5.285   1.083  14.162  0.1133  0.4475  1.0864
 1698TIP3    H226510   5.395   0.979  14.163  0.8161  1.1827  0.5942
 1699TIP3   OH226511   1.611   2.690   0.279  0.3492 -0.1772 -0.1215
 1699TIP3    H126512   1.642   2.631   0.210  1.2322 -0.4272  0.4819
 1699TIP3    H226513   1.564   2.633   0.340 -0.8305  0.1147 -0.7423
 1700TIP3   OH226514   3.660   3.708  11.650  0.5039  0.2757  0.5700
 1700TIP3    H126515   3.625   3.674  11.567  2.4046  1.3500 -0.7214
 1700TIP3    H226516   3.722   3.641  11.679  0.6431  0.3971  0.5539
 1701TIP3   OH226517   5.032   5.263   5.242 -0.0217  0.1601 -0.4268
 1701TIP3    H126518   5.029   5.171   5.266  3.7320  0.4377  1.4526
 1701TIP3    H226519   4.944   5.296   5.263 -0.6253 -2.3944  1.2956
 1702TIP3   OH226520   2.367   0.130   0.824 -0.1357  0.1354  0.2686
 1702TIP3    H126521   2.316   0.197   0.779 -1.4898 -0.5395  0.7747
 1702TIP3    H226522   2.453   0.170   0.836 -1.3979  2.4633  2.1046
 1703TIP3   OH226523   3.224   2.627   3.490  0.2895 -0.4305  0.3954
 1703TIP3    H126524   3.163   2.661   3.425 -0.2420 -0.4392  0.8850
 1703TIP3    H226525   3.191   2.539   3.510 -0.7181  0.3202  2.1478
 1704TIP3   OH226526   5.849   2.945  13.390 -0.0105  0.2925  0.0481
 1704TIP3    H126527   5.932   2.990  13.401  1.0794 -1.6732  0.1371
 1704TIP3    H226528   5.871   2.852  13.395 -2.4700 -0.2689  2.1585
 1705TIP3   OH226529   5.839   3.818  14.746 -0.0571  0.0925  0.3831
 1705TIP3    H126530   5.757   3.804  14.698  0.4361  0.8669 -0.7317
 1705TIP3    H226531   5.898   3.749  14.713 -0.2690 -0.4854  1.2081
 1706TIP3   OH226532   6.543   6.408  13.377 -0.1493  0.3089 -0.0105
 1706TIP3    H126533   6.580   6.346  13.314  0.4181 -0.5890  1.1640
 1706TIP3    H226534   6.582   6.492  13.355 -0.0673  0.0272 -0.9424
 1707TIP3   OH226535   0.390   1.203   4.066 -0.0653  0.3942  0.0713
 1707TIP3    H126536   0.377   1.129   4.125  0.6675 -0.8605 -1.2964
 1707TIP3    H226537   0.465   1.250   4.101  1.1031 -1.0072 -0.4744
 1708TIP3   OH226538   3.299   3.109   1.371 -0.7414 -0.2353 -0.0167
 1708TIP3    H126539   3.324   3.043   1.306 -0.2998 -1.1101  1.0151
 1708TIP3    H226540   3.382   3.134   1.412 -1.0090  0.3566  0.1633
 1709TIP3   OH226541   6.368   6.239   5.218  0.4553  0.2679  0.5666
 1709TIP3    H126542   6.309   6.181   5.266  0.5214  0.6554  1.1284
 1709TIP3    H226543   6.347   6.224   5.126 -0.0974 -0.0393  0.7394
 1710TIP3   OH226544   5.749   0.624  11.744 -0.6948  0.2872  0.0614
 1710TIP3    H126545   5.674   0.570  11.770 -1.8159  1.6038 -0.3320
 1710TIP3    H226546   5.768   0.596  11.654 -1.5045  0.7459 -0.2707
 1711TIP3   OH226547   4.943   3.810   2.019  0.3062  0.5422  0.3961
 1711TIP3    H126548   4.970   3.821   1.928  0.9241  1.3355  0.6705
 1711TIP3    H226549   5.005   3.862   2.069  3.5418 -4.3224  1.7900
 1712TIP3   OH226550   2.002   4.100   0.906 -0.6527  0.2614  0.0044
 1712TIP3    H126551   1.978   4.048   0.982 -1.2951 -0.3609 -0.6167
 1712TIP3    H226552   2.096   4.085   0.894 -0.5017  0.5493  0.8088
 1713TIP3   OH226553   3.521   5.248   4.512  0.3868  0.1703  0.0350
 1713TIP3    H126554   3.595   5.308   4.503 -1.4388  2.6370  0.7787
 1713TIP3    H226555   3.518   5.228   4.606 -0.4913  0.9350  0.1810
 1714TIP3   OH226556   6.721   5.778  17.115  0.6168  0.2769 -0.2209
 1714TIP3    H126557   6.737   5.683  17.109  1.2847  0.3744  0.0480
 1714TIP3    H226558   6.740   5.800  17.206  1.8928  0.9336 -0.6444
 1715TIP3   OH226559   1.373   5.879  11.722  0.7018 -0.1398 -0.0687
 1715TIP3    H126560   1.343   5.812  11.661  1.8628  0.6216 -1.5372
 1715TIP3    H226561   1.295   5.907  11.769 -0.0255 -1.5115 -0.4516
 1716TIP3   OH226562   6.314   4.084   0.082  0.2894  0.0725  0.2000
 1716TIP3    H126563   6.356   4.093  -0.004 -0.5015 -0.9401 -0.3042
 1716TIP3    H226564   6.382   4.109   0.145  2.4624 -3.8133 -0.4616
 1717TIP3   OH226565   6.419   5.357   0.822 -0.9875  0.0556 -0.3894
 1717TIP3    H126566   6.340   5.306   0.841 -0.0347 -1.6596 -0.8734
 1717TIP3    H226567   6.419   5.366   0.726  0.0966 -1.1367 -0.5153
 1718TIP3   OH226568   4.173   5.672   0.320  0.2894  0.1651 -0.2493
 1718TIP3    H126569   4.114   5.676   0.245  1.4079 -2.1498 -1.3165
 1718TIP3    H226570   4.121   5.632   0.389  0.2966 -1.0684 -0.9275
 1719TIP3   OH226571   0.865   6.711  12.397  0.4662  0.1788 -0.5159
 1719TIP3    H126572   0.812   6.777  12.441  0.9639 -0.4835  1.0991
 1719TIP3    H226573   0.886   6.750  12.312 -1.9215  0.7806 -0.8641
 1720TIP3   OH226574   3.371   2.328   2.793  0.5223 -0.1280 -0.6424
 1720TIP3    H126575   3.333   2.271   2.859  1.0615  0.7229  0.4245
 1720TIP3    H226576   3.402   2.269   2.724  0.0252 -1.0202 -0.0980
 1721TIP3   OH226577   0.213   3.834   3.843  0.1055  0.1822  0.1786
 1721TIP3    H126578   0.262   3.758   3.812 -0.1037 -0.0176  0.3365
 1721TIP3    H226579   0.209   3.892   3.767 -0.9525 -0.5764 -0.3613
 1722TIP3   OH226580   0.927   5.790  13.612  0.4913  0.5875 -0.3834
 1722TIP3    H126581   0.940   5.774  13.518 -0.3837 -0.8343 -0.2775
 1722TIP3    H226582   1.005   5.754  13.653  1.2320  1.8849 -0.5989
 1723TIP3   OH226583   5.261   3.092  15.629 -0.4083  0.2068 -0.1801
 1723TIP3    H126584   5.339   3.074  15.577 -0.3483  0.2858 -0.1189
 1723TIP3    H226585   5.270   3.184  15.654 -0.5222  0.2173 -0.1761
 1724TIP3   OH226586   5.923   6.774  13.411 -0.0916  0.0692  0.0850
 1724TIP3    H126587   5.957   6.863  13.418  0.9998 -0.1899 -1.7651
 1724TIP3    H226588   5.830   6.786  13.391  0.5526  0.8232 -2.5851
 1725TIP3   OH226589   2.679   4.867  15.419  0.1238 -0.0552  0.2813
 1725TIP3    H126590   2.674   4.818  15.337 -0.9482  0.8328 -0.2006
 1725TIP3    H226591   2.710   4.804  15.483  0.1711 -0.9731 -0.6362
 1726TIP3   OH226592   0.840   6.060   5.005 -0.3029  0.1262  0.1274
 1726TIP3    H126593   0.928   6.085   5.029  0.3585  0.3466 -2.3929
 1726TIP3    H226594   0.847   5.966   4.984 -0.5059  0.2999 -0.7384
 1727TIP3   OH226595   3.894   4.919  14.326  0.2076 -0.0891  0.0156
 1727TIP3    H126596   3.962   4.960  14.272  0.3455  1.2651  1.1901
 1727TIP3    H226597   3.836   4.991  14.350 -1.3964 -1.1635 -0.5908
 1728TIP3   OH226598   0.800   0.420  10.551  0.0918 -0.1445 -0.6505
 1728TIP3    H126599   0.852   0.476  10.493 -0.1454 -0.2215 -0.9367
 1728TIP3    H226600   0.718   0.406  10.504 -0.1900 -0.0213 -0.1997
 1729TIP3   OH226601   6.638   6.548   0.921  0.1325  0.5210  0.4691
 1729TIP3    H126602   6.564   6.517   0.868  0.3964 -0.8404  0.8619
 1729TIP3    H226603   6.608   6.541   1.011  0.8282 -0.3419  0.6478
 1730TIP3   OH226604   1.617   1.159  10.689  0.0910 -0.0159  0.2867
 1730TIP3    H126605   1.665   1.229  10.734 -0.4400 -0.6344  1.8408
 1730TIP3    H226606   1.658   1.078  10.719 -0.7221 -0.4624  0.2235
 1731TIP3   OH226607   5.894   5.346  14.684  0.3193  0.4616 -0.0564
 1731TIP3    H126608   5.931   5.325  14.598 -0.6994 -1.1541 -0.1155
 1731TIP3    H226609   5.892   5.262  14.730 -4.7727  0.1402 -0.6450
 1732TIP3   OH226610   1.080   5.632   5.648  0.1598  0.5207  0.7946
 1732TIP3    H126611   1.146   5.598   5.709  0.0122  0.7002  1.0553
 1732TIP3    H226612   0.997   5.602   5.683  0.1229  0.0737  0.3188
 1733TIP3   OH226613   1.465   2.716   2.238  0.1227  0.2628  0.1186
 1733TIP3    H126614   1.508   2.732   2.322  0.4319 -0.5329  0.1178
 1733TIP3    H226615   1.375   2.694   2.262  0.8563 -2.5560  0.4357
 1734TIP3   OH226616   1.564   5.774  15.332 -0.2350  0.8821  0.9195
 1734TIP3    H126617   1.650   5.732  15.340 -0.4804  0.3399  0.7594
 1734TIP3    H226618   1.580   5.851  15.277  0.0298  0.4075  0.3176
 1735TIP3   OH226619   5.590   6.448  12.230  0.1254  0.3761  0.1126
 1735TIP3    H126620   5.621   6.503  12.158 -3.5504  0.8973 -1.1576
 1735TIP3    H226621   5.537   6.507  12.284  0.1370 -0.8038  1.4460
 1736TIP3   OH226622   2.190   4.316   4.384 -0.9009 -0.2516 -0.4644
 1736TIP3    H126623   2.206   4.408   4.400  0.7440 -0.3575 -1.4116
 1736TIP3    H226624   2.118   4.293   4.444  0.9525  0.7981  2.2394
 1737TIP3   OH226625   6.688   5.664  14.143 -0.7368 -1.2843 -0.3928
 1737TIP3    H126626   6.737   5.590  14.179 -1.9585 -0.4393  3.2352
 1737TIP3    H226627   6.743   5.740  14.159 -1.2834 -0.8879 -0.3827
 1738TIP3   OH226628   2.789   3.905  16.744  0.1101 -0.2177 -0.4475
 1738TIP3    H126629   2.830   3.888  16.829 -1.3833 -0.6352  0.2155
 1738TIP3    H226630   2.698   3.927  16.766 -0.0424  0.6379 -1.8809
 1739TIP3   OH226631   0.134   2.989  11.368  0.0610 -0.2962 -0.3604
 1739TIP3    H126632   0.116   2.971  11.275 -1.8846 -2.7481  0.4424
 1739TIP3    H226633   0.129   2.904  11.410  0.4781  0.8685  2.1127
 1740TIP3   OH226634   3.987   0.687  11.216  0.1189  0.3685 -0.2578
 1740TIP3    H126635   3.913   0.694  11.156  0.8534  0.9092 -1.1266
 1740TIP3    H226636   3.962   0.618  11.278 -1.0030  0.3885 -0.6772
 1741TIP3   OH226637   1.093   1.957   1.896  0.4945  0.1481  0.4232
 1741TIP3    H126638   1.149   2.008   1.838  0.3023 -0.8260 -0.6449
 1741TIP3    H226639   1.074   2.016   1.970 -0.5023  1.9783 -1.2278
 1742TIP3   OH226640   6.649   3.627  14.959 -0.2164  0.0096 -0.5592
 1742TIP3    H126641   6.716   3.686  14.927  1.6396 -0.6005  2.0467
 1742TIP3    H226642   6.612   3.671  15.036 -3.0930  0.5006 -2.1487
 1743TIP3   OH226643   4.373   2.821  13.983 -0.1634  0.2323 -0.1532
 1743TIP3    H126644   4.388   2.727  13.982 -1.0425  0.0515  1.1494
 1743TIP3    H226645   4.456   2.859  13.956  1.2429 -0.8340  2.4205
 1744TIP3   OH226646   6.707   5.450   5.597  0.1695 -0.4943 -0.4405
 1744TIP3    H126647   6.678   5.392   5.527  0.1495 -2.0320  0.8135
 1744TIP3    H226648   6.795   5.418   5.619 -0.4185 -0.9946  1.2485
 1745TIP3   OH226649   5.097   3.898   2.901 -1.2670  0.2517  0.3661
 1745TIP3    H126650   5.020   3.865   2.947 -1.3711 -0.4153 -0.2708
 1745TIP3    H226651   5.167   3.836   2.923 -1.6447 -0.8800 -1.4442
 1746TIP3   OH226652   4.051   4.033   2.634 -0.2180 -0.2822  0.1789
 1746TIP3    H126653   4.117   4.082   2.584 -0.7661  0.0436 -0.2380
 1746TIP3    H226654   4.078   3.941   2.626 -0.8931 -0.3337 -1.6151
 1747TIP3   OH226655   3.916   4.675  12.501  0.2475 -0.3064 -0.0084
 1747TIP3    H126656   4.011   4.674  12.493  0.5968  0.6733  3.1749
 1747TIP3    H226657   3.900   4.650  12.592 -2.3950  2.4375  0.3508
 1748TIP3   OH226658   1.399   3.114  12.431  0.7177  0.1932 -0.0755
 1748TIP3    H126659   1.332   3.048  12.414  0.9353  0.1848 -0.9063
 1748TIP3    H226660   1.388   3.178  12.361 -0.5234  1.8782  1.5786
 1749TIP3   OH226661   4.632   4.035   5.467 -0.0956 -0.3923 -0.3832
 1749TIP3    H126662   4.661   4.046   5.376 -0.1912  0.3512 -0.3222
 1749TIP3    H226663   4.711   4.046   5.519 -0.3428  0.8853 -0.2666
 1750TIP3   OH226664   6.519   2.541  13.990 -0.0217  0.2192  0.2284
 1750TIP3    H126665   6.517   2.530  13.895 -0.6936 -0.8183  0.3507
 1750TIP3    H226666   6.447   2.602  14.008 -0.7628 -0.6351  0.1922
 1751TIP3   OH226667   0.550   3.650  14.819  0.8117  0.0894  0.0975
 1751TIP3    H126668   0.638   3.612  14.822  0.9840  0.6097  1.9608
 1751TIP3    H226669   0.549   3.714  14.890 -0.6088  1.1105 -0.8338
 1752TIP3   OH226670   0.009   4.514  13.585  0.8383 -0.0932  0.2288
 1752TIP3    H126671   0.019   4.442  13.647 -1.4618 -0.0158  0.7271
 1752TIP3    H226672   0.094   4.557  13.584  1.7719 -1.8773  1.0989
 1753TIP3   OH226673   6.283   1.859   2.409 -0.5184 -0.0286 -0.0762
 1753TIP3    H126674   6.284   1.930   2.345 -0.4872  0.6758  0.7097
 1753TIP3    H226675   6.368   1.816   2.398 -0.0886  0.7370  0.2091
 1754TIP3   OH226676   6.244   5.549   5.659 -0.8526  0.2879 -0.3705
 1754TIP3    H126677   6.164   5.590   5.692 -0.8360 -1.3117  1.8028
 1754TIP3    H226678   6.216   5.461   5.633 -0.0170  0.1253 -0.7331
 1755TIP3   OH226679   1.880   3.632  16.840  0.3506  0.3253  0.3590
 1755TIP3    H126680   1.820   3.643  16.913 -0.2553 -0.3955 -0.0183
 1755TIP3    H226681   1.924   3.549  16.857 -1.5264 -1.0444 -1.2890
 1756TIP3   OH226682   1.788   5.630  15.866 -0.6779 -0.1734 -0.0501
 1756TIP3    H126683   1.747   5.623  15.952 -0.7053 -2.5777 -0.2123
 1756TIP3    H226684   1.720   5.667  15.810 -1.2107 -0.1392  0.6146
 1757TIP3   OH226685   2.779   4.594  11.910  0.1063 -0.4688  0.3019
 1757TIP3    H126686   2.729   4.640  11.977 -0.6923  0.6390 -1.0342
 1757TIP3    H226687   2.833   4.663  11.870  0.1244 -1.0041 -0.6001
 1758TIP3   OH226688   4.066   1.924   1.463 -0.5903 -0.6980  0.2098
 1758TIP3    H126689   4.157   1.953   1.450 -1.0535  0.7480  0.1301
 1758TIP3    H226690   4.070   1.869   1.541  0.6139 -1.8694 -0.6630
 1759TIP3   OH226691   2.539   3.430   5.277  0.0221  0.5653 -0.2425
 1759TIP3    H126692   2.528   3.360   5.342 -0.2628  1.5180  0.7562
 1759TIP3    H226693   2.617   3.405   5.228 -0.0753 -0.4526  0.1004
 1760TIP3   OH226694   3.294   0.326   2.140  0.2668 -0.1143 -0.4987
 1760TIP3    H126695   3.349   0.404   2.130  2.3320 -1.7054 -1.9560
 1760TIP3    H226696   3.230   0.332   2.069 -0.6527  1.0579  0.3951
 1761TIP3   OH226697   2.936   5.689   1.919 -0.4266  0.3326 -0.0447
 1761TIP3    H126698   2.916   5.763   1.975  1.4306  0.2943  0.7227
 1761TIP3    H226699   2.965   5.621   1.979  0.2487 -0.1811 -0.9387
 1762TIP3   OH226700   2.488   4.104  12.930  0.1216 -0.0096 -0.2687
 1762TIP3    H126701   2.412   4.134  12.979  0.4462 -0.4132  0.4970
 1762TIP3    H226702   2.461   4.107  12.838 -0.2141  1.5472 -0.1232
 1763TIP3   OH226703   5.138   3.850   3.604 -0.5161  0.5264 -0.2052
 1763TIP3    H126704   5.119   3.942   3.587  1.7637  1.0637  0.0804
 1763TIP3    H226705   5.146   3.844   3.699 -1.0568 -0.0428 -0.1960
 1764TIP3   OH226706   6.502   0.993   1.833 -0.0189 -0.0861  0.3009
 1764TIP3    H126707   6.556   1.021   1.759  0.7044  0.6305  1.0884
 1764TIP3    H226708   6.501   0.897   1.828  1.9705 -0.1507  0.7133
 1765TIP3   OH226709   6.426   1.137   3.506 -0.0442 -0.3336  0.1084
 1765TIP3    H126710   6.483   1.211   3.485  0.8577 -1.3580 -1.0327
 1765TIP3    H226711   6.356   1.141   3.441 -1.2271  0.8151  1.3980
 1766TIP3   OH226712   0.406   1.721   1.739 -0.2056  0.5143 -0.0151
 1766TIP3    H126713   0.362   1.692   1.659  2.5747 -0.6835 -1.1926
 1766TIP3    H226714   0.406   1.643   1.795 -0.0966  0.6795  0.2130
 1767TIP3   OH226715   2.472   3.901   2.147  0.4998  0.3091 -0.1426
 1767TIP3    H126716   2.425   3.984   2.148  1.3696  0.8429 -2.1989
 1767TIP3    H226717   2.403   3.835   2.133 -0.2999  0.5602  2.3567
 1768TIP3   OH226718   3.620   2.170   3.064  0.6136 -0.3711 -0.3546
 1768TIP3    H126719   3.598   2.196   3.154  2.2490 -0.8632  0.2048
 1768TIP3    H226720   3.716   2.160   3.065  0.7563  0.6653 -2.4276
 1769TIP3   OH226721   1.704   5.364   5.159  0.6485  0.3799 -0.2196
 1769TIP3    H126722   1.714   5.415   5.239 -0.1770  0.4182 -0.1344
 1769TIP3    H226723   1.778   5.304   5.159  0.8818  0.6622  0.3588
 1770TIP3   OH226724   6.035   0.774  17.235 -0.6758  0.0664 -0.0723
 1770TIP3    H126725   5.996   0.850  17.276  0.9320  0.5093  0.6928
 1770TIP3    H226726   6.099   0.810  17.174  1.4153 -0.6527  1.6236
 1771TIP3   OH226727   2.057   1.269  13.689  0.2177 -0.1924  0.0517
 1771TIP3    H126728   1.963   1.285  13.703  0.1816 -0.1616 -0.2234
 1771TIP3    H226729   2.067   1.174  13.699  0.4793  0.0115  1.9674
 1772TIP3   OH226730   0.779   2.284  16.741  0.4933 -0.6178 -0.5983
 1772TIP3    H126731   0.708   2.227  16.770 -0.2247  1.0716  1.0704
 1772TIP3    H226732   0.744   2.373  16.750  1.4805  0.1041 -3.4539
 1773TIP3   OH226733   2.933   5.253  11.211  0.3279  0.2905 -0.4127
 1773TIP3    H126734   2.887   5.170  11.223  0.2225  0.4282  0.1067
 1773TIP3    H226735   3.025   5.227  11.198 -0.1551 -0.1453 -3.5569
 1774TIP3   OH226736   0.370   2.341   3.048  0.5857  0.4675  0.4969
 1774TIP3    H126737   0.324   2.375   2.971 -2.0130 -1.4539  1.1155
 1774TIP3    H226738   0.442   2.289   3.011 -0.2541  0.0854 -0.6342
 1775TIP3   OH226739   5.703   2.269   3.302  0.3112 -0.6126  0.6538
 1775TIP3    H126740   5.757   2.260   3.381 -1.2971  2.0219  2.1352
 1775TIP3    H226741   5.627   2.214   3.319 -0.5292  0.7643  1.4292
 1776TIP3   OH226742   6.440   1.487  12.335 -0.1597  0.1519  0.2406
 1776TIP3    H126743   6.477   1.574  12.319 -0.0610  0.0546 -0.0680
 1776TIP3    H226744   6.380   1.472  12.261  0.3940 -0.3542 -0.1127
 1777TIP3   OH226745   3.550   0.259  10.866 -0.2488 -0.1061  0.2334
 1777TIP3    H126746   3.632   0.219  10.896  0.7295  1.7067  0.0646
 1777TIP3    H226747   3.494   0.259  10.944 -0.2434 -1.7176  0.2532
 1778TIP3   OH226748   1.420   3.886   6.445 -0.5698  0.2364  0.0069
 1778TIP3    H126749   1.430   3.976   6.414 -1.7959  0.4113  0.1277
 1778TIP3    H226750   1.340   3.887   6.497  1.0603 -0.2017  2.6121
 1779TIP3   OH226751   2.311   4.760   3.036  0.7275 -0.0860 -0.0902
 1779TIP3    H126752   2.256   4.834   3.009  0.3752 -0.5337 -0.6098
 1779TIP3    H226753   2.337   4.781   3.126 -2.7652 -1.2844  1.2802
 1780TIP3   OH226754   1.851   1.580  17.025  0.4634 -0.3924 -0.2845
 1780TIP3    H126755   1.779   1.551  17.080  0.0879  0.2041 -0.4496
 1780TIP3    H226756   1.907   1.504  17.016  1.1668 -0.1630  1.9264
 1781TIP3   OH226757   2.691   5.329   3.849 -0.0022 -0.0194 -0.1769
 1781TIP3    H126758   2.725   5.293   3.768  0.7588  0.6746 -0.1843
 1781TIP3    H226759   2.724   5.270   3.917 -0.2071 -0.3092 -0.3288
 1782TIP3   OH226760   1.624   5.606  11.122  0.7494 -0.2330 -0.3627
 1782TIP3    H126761   1.573   5.575  11.197  0.3880  1.0542 -0.0648
 1782TIP3    H226762   1.683   5.533  11.102  0.5845 -0.7427  0.9299
 1783TIP3   OH226763   2.043   4.659  15.565 -0.1265  0.0129 -0.0073
 1783TIP3    H126764   1.972   4.605  15.531  1.4450 -1.4224 -1.1217
 1783TIP3    H226765   2.078   4.608  15.639 -0.8652  1.1572  1.1361
 1784TIP3   OH226766   2.889   0.182   2.902  0.7266 -0.4752  0.3336
 1784TIP3    H126767   2.917   0.158   2.990  0.8177 -0.7967  0.2176
 1784TIP3    H226768   2.846   0.104   2.868  0.0133 -0.0979  0.3735
 1785TIP3   OH226769   0.198   3.593  16.364  0.4418  0.0804  0.7379
 1785TIP3    H126770   0.159   3.649  16.431 -0.5371 -0.0259  0.2584
 1785TIP3    H226771   0.236   3.654  16.301 -2.0880  0.2696 -0.6598
 1786TIP3   OH226772   6.655   5.057  12.373  0.5928 -0.1383  0.1624
 1786TIP3    H126773   6.746   5.029  12.379  0.0960 -1.2614  2.7456
 1786TIP3    H226774   6.661   5.153  12.367  1.9530 -0.2504 -0.6608
 1787TIP3   OH226775   0.926   2.374  12.814 -0.2779 -0.5211 -0.0768
 1787TIP3    H126776   0.882   2.459  12.822  1.8009  0.5417  0.5313
 1787TIP3    H226777   0.917   2.334  12.901  1.4188  0.4714  0.5902
 1788TIP3   OH226778   5.374   3.360   4.167 -0.0130  0.0133  0.5211
 1788TIP3    H126779   5.286   3.357   4.128 -0.2374 -1.1381  1.1226
 1788TIP3    H226780   5.421   3.288   4.126  0.9825  1.2336 -0.5427
 1789TIP3   OH226781   2.178   3.131   0.889 -0.2458 -0.0535 -0.0467
 1789TIP3    H126782   2.252   3.113   0.947 -1.0073 -0.2993  0.8496
 1789TIP3    H226783   2.182   3.060   0.824 -1.1818 -1.5289  1.4743
 1790TIP3   OH226784   5.937   4.413   6.472  0.1572  0.1749 -0.3483
 1790TIP3    H126785   5.937   4.412   6.568  1.3738  0.2827 -0.3477
 1790TIP3    H226786   5.911   4.324   6.448 -0.4313  0.2247  0.0756
 1791TIP3   OH226787   1.114   3.837   4.445 -0.6327 -0.0835  0.0939
 1791TIP3    H126788   1.193   3.790   4.471 -1.7511 -2.1013  0.0232
 1791TIP3    H226789   1.062   3.771   4.398 -1.7684  1.5532 -1.0101
 1792TIP3   OH226790   3.808   3.825   4.701  0.1313 -0.0317 -0.1747
 1792TIP3    H126791   3.813   3.891   4.632 -0.3963 -0.0659 -0.2475
 1792TIP3    H226792   3.800   3.742   4.653 -1.0437  0.0097 -0.0756
 1793TIP3   OH226793   1.830   6.663   2.158 -0.2704 -0.2637  0.0599
 1793TIP3    H126794   1.748   6.667   2.207 -0.2590 -0.1173  0.0691
 1793TIP3    H226795   1.805   6.629   2.072 -0.5453  0.9488 -0.3540
 1794TIP3   OH226796   0.221   4.582  12.962 -0.0718 -0.3033 -0.6234
 1794TIP3    H126797   0.173   4.659  12.933 -0.9512 -1.4633 -2.2763
 1794TIP3    H226798   0.157   4.530  13.010 -0.2533 -1.4293 -2.0740
 1795TIP3   OH226799   3.025   1.178  16.489  0.2962  0.5646 -0.4284
 1795TIP3    H126800   2.977   1.146  16.412  0.6589  0.3023 -0.5473
 1795TIP3    H226801   3.113   1.140  16.480  0.9452  2.1366 -0.9375
 1796TIP3   OH226802   5.033   6.307   4.961  0.1750  0.4217  0.4162
 1796TIP3    H126803   5.035   6.281   5.053  1.0553 -1.2597 -0.0479
 1796TIP3    H226804   5.109   6.263   4.922 -0.1861  1.1042 -1.1080
 1797TIP3   OH226805   0.724   5.306  15.738  0.4317 -0.1124 -0.4906
 1797TIP3    H126806   0.747   5.247  15.666 -0.2263 -1.1599  0.1469
 1797TIP3    H226807   0.673   5.252  15.798  1.3228  0.6293  0.9744
 1798TIP3   OH226808   3.870   4.259   6.701  0.0297  0.0039 -0.5080
 1798TIP3    H126809   3.836   4.291   6.617  0.4470  0.7643 -0.3983
 1798TIP3    H226810   3.964   4.273   6.695  0.1120 -0.3886 -0.0991
 1799TIP3   OH226811   4.877   1.286  16.974  0.4325  0.1719 -0.2346
 1799TIP3    H126812   4.841   1.197  16.972 -0.9365  0.6693  1.0247
 1799TIP3    H226813   4.965   1.275  17.008  0.2995 -0.7109 -0.1570
 1800TIP3   OH226814   2.395   0.303   5.435  0.0900  0.1979  0.4936
 1800TIP3    H126815   2.356   0.302   5.348 -0.9907  1.8285  0.9327
 1800TIP3    H226816   2.369   0.219   5.474 -2.0163  0.7382  0.3349
 1801TIP3   OH226817   6.763   2.176  15.140  0.6592 -0.3230  0.3941
 1801TIP3    H126818   6.803   2.212  15.219 -0.3383  0.3777  0.5915
 1801TIP3    H226819   6.735   2.088  15.166 -1.3051  0.5670  1.3861
 1802TIP3   OH226820   3.053   2.563   1.701 -0.3923  0.2681 -0.1665
 1802TIP3    H126821   3.093   2.576   1.787  1.4452  0.8926 -1.0780
 1802TIP3    H226822   3.044   2.652   1.666 -1.3237  0.0313 -0.5461
 1803TIP3   OH226823   1.316   2.740   6.033  0.0017 -0.1695 -0.1005
 1803TIP3    H126824   1.347   2.798   6.102  0.1577  1.1015 -1.2282
 1803TIP3    H226825   1.379   2.667   6.033  2.5538  1.9363 -1.7620
 1804TIP3   OH226826   4.398   5.702  15.392 -0.2155  0.0977  0.1279
 1804TIP3    H126827   4.370   5.793  15.385  0.7033  0.2908 -1.0722
 1804TIP3    H226828   4.488   5.701  15.361  0.5016 -0.8667  2.1540
 1805TIP3   OH226829   2.088   5.601  17.060  0.1409 -0.5042  0.4749
 1805TIP3    H126830   2.167   5.647  17.087 -2.1596  2.6727  2.2198
 1805TIP3    H226831   2.069   5.542  17.133  0.2686 -0.3713  0.6172
 1806TIP3   OH226832   1.525   1.821  14.197  0.3688 -0.2222 -0.1309
 1806TIP3    H126833   1.505   1.807  14.289 -0.8694  2.3560  0.0344
 1806TIP3    H226834   1.489   1.744  14.152 -2.5399  0.3753  1.1103
 1807TIP3   OH226835   2.239   2.439   4.215  0.4963  0.6181 -0.8301
 1807TIP3    H126836   2.328   2.405   4.226  0.2472  0.4204  0.7744
 1807TIP3    H226837   2.191   2.405   4.291 -0.8689  0.9767 -1.5157
 1808TIP3   OH226838   6.686   3.319   2.557 -0.4508  0.4517 -0.6221
 1808TIP3    H126839   6.772   3.292   2.591 -0.0797 -1.1112 -2.7077
 1808TIP3    H226840   6.707   3.383   2.489 -0.9670  0.4055 -0.8236
 1809TIP3   OH226841   0.257   1.728   4.607 -0.3892  0.0302  0.2824
 1809TIP3    H126842   0.344   1.769   4.610 -0.9989  1.3019  1.1078
 1809TIP3    H226843   0.196   1.801   4.618 -1.5926 -0.7841 -0.8732
 1810TIP3   OH226844   1.097   1.147   4.465 -0.2779  0.2227  0.3661
 1810TIP3    H126845   1.086   1.088   4.540  0.4735 -0.3199  0.0643
 1810TIP3    H226846   1.192   1.157   4.457 -0.2952 -0.7928 -1.3294
 1811TIP3   OH226847   0.371   5.709  11.626 -0.4034  0.1880  0.7517
 1811TIP3    H126848   0.284   5.688  11.592 -0.3660  1.7899 -0.4154
 1811TIP3    H226849   0.429   5.645  11.585 -0.5122  1.4295 -1.4623
 1812TIP3   OH226850   5.155   0.138   4.709 -0.0053 -0.0760  0.2201
 1812TIP3    H126851   5.162   0.042   4.705  3.2310  0.1098  0.0492
 1812TIP3    H226852   5.078   0.159   4.657 -1.4941 -2.6663  1.2908
 1813TIP3   OH226853   5.601   3.908   5.014 -0.2700  0.6131  0.1538
 1813TIP3    H126854   5.610   3.894   4.919 -0.8170 -1.5272  0.4011
 1813TIP3    H226855   5.671   3.970   5.035 -1.1898  2.4256 -1.9162
 1814TIP3   OH226856   6.401   3.469  16.347  0.0538  0.3071  0.1275
 1814TIP3    H126857   6.344   3.535  16.386 -0.2694  0.2332 -0.2102
 1814TIP3    H226858   6.422   3.410  16.418 -1.8355 -0.7334 -0.1593
 1815TIP3   OH226859   0.444   1.574  11.004 -0.7188  0.0829  1.0762
 1815TIP3    H126860   0.359   1.583  10.961 -1.5009 -1.0045  2.3502
 1815TIP3    H226861   0.489   1.506  10.953  0.6909  2.8588 -1.5444
 1816TIP3   OH226862   4.125   0.828  16.197 -0.1530  0.0926  0.0412
 1816TIP3    H126863   4.195   0.799  16.255 -0.7070 -0.7260  0.3005
 1816TIP3    H226864   4.166   0.897  16.144  0.3200  0.9273  1.4613
 1817TIP3   OH226865   5.037   0.238   2.212 -0.1517 -0.0427  0.2431
 1817TIP3    H126866   4.956   0.199   2.243  0.4329 -1.6626 -0.1940
 1817TIP3    H226867   5.070   0.176   2.147  0.7695  1.2319 -0.5193
 1818TIP3   OH226868   2.207   2.728  12.404  0.0686 -0.0842  0.1495
 1818TIP3    H126869   2.162   2.684  12.332  1.7203 -1.2077 -0.2455
 1818TIP3    H226870   2.279   2.775  12.362 -0.6047  1.5358  0.7820
 1819TIP3   OH226871   5.717   0.589   4.029  0.3504 -0.1291 -0.2576
 1819TIP3    H126872   5.629   0.565   4.055  0.1745  3.1897  2.6631
 1819TIP3    H226873   5.705   0.652   3.958  0.2973  0.5818  0.3668
 1820TIP3   OH226874   1.039   1.344  15.311  0.1618 -0.0134  0.0908
 1820TIP3    H126875   1.002   1.343  15.399 -0.0656  1.3142  0.0282
 1820TIP3    H226876   0.963   1.343  15.253  0.3031 -0.4845 -0.0919
 1821TIP3   OH226877   6.180   5.281   1.749  0.1888  0.5467  0.5529
 1821TIP3    H126878   6.262   5.323   1.722  0.5864 -0.3018  0.4119
 1821TIP3    H226879   6.176   5.296   1.844  0.3130  0.9274  0.4989
 1822TIP3   OH226880   3.875   0.086  10.262 -0.3666 -0.0869  0.1614
 1822TIP3    H126881   3.923   0.165  10.238 -2.2410  0.8993 -0.4003
 1822TIP3    H226882   3.790   0.117  10.292 -1.4644 -1.9350 -0.9294
 1823TIP3   OH226883   1.099   5.678  11.736 -0.1093 -0.0341 -0.1829
 1823TIP3    H126884   1.021   5.637  11.700 -0.7716  0.9020  0.1628
 1823TIP3    H226885   1.128   5.740  11.669  0.8621 -1.0189 -0.6887
 1824TIP3   OH226886   1.152   6.358   2.575  0.3043  0.0522  0.0273
 1824TIP3    H126887   1.207   6.327   2.503  1.5140 -0.8088  1.3096
 1824TIP3    H226888   1.208   6.420   2.623 -0.5017  0.6415  0.2225
 1825TIP3   OH226889   3.347   2.159   3.991 -0.1716  0.1010 -0.4122
 1825TIP3    H126890   3.430   2.114   4.007  0.4523  1.8581  1.5071
 1825TIP3    H226891   3.362   2.209   3.911  0.3935 -0.1456 -0.4639
 1826TIP3   OH226892   5.724   0.787  13.392 -0.0060  0.0941 -0.3141
 1826TIP3    H126893   5.751   0.873  13.360 -0.8943  0.3979 -0.2633
 1826TIP3    H226894   5.781   0.725  13.346 -2.4978  0.3589 -4.0044
 1827TIP3   OH226895   0.094   1.722  16.027  0.4314 -0.1472 -0.8067
 1827TIP3    H126896   0.144   1.699  15.948  0.2475  0.0487 -0.9833
 1827TIP3    H226897   0.150   1.785  16.073 -0.6597  1.8642 -2.1828
 1828TIP3   OH226898   3.996   6.188  12.637  0.2731 -0.3948  0.3475
 1828TIP3    H126899   4.055   6.197  12.712 -1.3664  1.1390  1.4788
 1828TIP3    H226900   3.911   6.168  12.674 -0.5714  0.4122 -1.0986
 1829TIP3   OH226901   1.948   5.697  16.853  0.4880 -0.1103  0.1624
 1829TIP3    H126902   1.995   5.674  16.933 -0.8932 -0.6715  0.8455
 1829TIP3    H226903   1.986   5.640  16.786  1.8453  0.5634  0.3462
 1830TIP3   OH226904   1.585   2.885   0.069  0.1029 -0.5059 -0.0362
 1830TIP3    H126905   1.575   2.817   0.002 -2.7219 -0.6102  0.4167
 1830TIP3    H226906   1.631   2.841   0.141  1.6264 -0.8612 -1.1991
 1831TIP3   OH226907   0.461   2.596   4.619  0.1424 -0.2492 -0.3351
 1831TIP3    H126908   0.508   2.675   4.644  0.4532 -0.6002  0.2161
 1831TIP3    H226909   0.369   2.615   4.639  0.1577  0.1270 -0.6145
 1832TIP3   OH226910   5.775   4.379  16.104 -0.2276 -0.1603 -0.0136
 1832TIP3    H126911   5.853   4.324  16.110 -1.3343 -1.5163  2.8716
 1832TIP3    H226912   5.709   4.323  16.063 -0.2101  0.3797 -0.7895
 1833TIP3   OH226913   4.290   2.246  16.566 -1.0243 -0.1629  0.4012
 1833TIP3    H126914   4.252   2.322  16.610 -1.5676  0.3375 -0.9105
 1833TIP3    H226915   4.258   2.252  16.476  0.7199 -0.7226 -0.2670
 1834TIP3   OH226916   1.848   2.738   1.885  0.1363  0.0320  0.0311
 1834TIP3    H126917   1.901   2.672   1.929 -0.1585 -0.6590 -0.6389
 1834TIP3    H226918   1.850   2.713   1.792 -0.2342  0.7803 -0.1828
 1835TIP3   OH226919   1.250   1.479  17.139  0.1755  0.1414  1.0737
 1835TIP3    H126920   1.284   1.545  17.199 -0.5594  2.6258 -1.1832
 1835TIP3    H226921   1.293   1.498  17.056 -0.9626 -1.4965  0.0985
 1836TIP3   OH226922   3.906   3.035   3.431 -0.3507 -0.1142  0.1383
 1836TIP3    H126923   3.954   2.974   3.375 -0.8429 -1.5263  1.2442
 1836TIP3    H226924   3.971   3.100   3.457 -0.2501  0.9370 -2.5803
 1837TIP3   OH226925   2.704   3.805   0.025  0.6032  0.0007 -0.1445
 1837TIP3    H126926   2.644   3.754   0.078 -0.1177 -0.0950 -1.0411
 1837TIP3    H226927   2.789   3.794   0.067  0.0998 -0.3399  0.7866
 1838TIP3   OH226928   2.774   5.331  16.827  0.3175 -0.2190 -0.8678
 1838TIP3    H126929   2.683   5.361  16.819  0.1061 -0.7484 -0.5031
 1838TIP3    H226930   2.776   5.283  16.910  0.7847 -0.7425 -1.1846
 1839TIP3   OH226931   5.003   3.593   4.306  0.1941 -0.2847 -0.0922
 1839TIP3    H126932   5.032   3.536   4.235  1.9779 -0.4898  0.7762
 1839TIP3    H226933   5.038   3.679   4.283  0.2326 -0.2152  0.2327
 1840TIP3   OH226934   2.248   4.252  14.820  0.0193 -0.1204 -0.2138
 1840TIP3    H126935   2.221   4.175  14.770  1.8229 -2.0470  1.6732
 1840TIP3    H226936   2.204   4.243  14.905  1.2332  0.2460  0.4767
 1841TIP3   OH226937   5.803   6.769   4.945 -0.3900  0.6652  0.6657
 1841TIP3    H126938   5.721   6.781   4.898  0.4487 -0.6916 -1.1958
 1841TIP3    H226939   5.827   6.857   4.974 -1.4342  1.3809 -0.5889
 1842TIP3   OH226940   1.262   3.358  11.727 -0.0953 -0.0903 -0.1289
 1842TIP3    H126941   1.318   3.285  11.755 -0.6143 -0.5207 -0.1976
 1842TIP3    H226942   1.306   3.436  11.761 -0.1143 -0.5193  0.8950
 1843TIP3   OH226943   1.845   0.673   5.285  0.2850  0.5800  0.4219
 1843TIP3    H126944   1.756   0.648   5.259  0.8460 -0.6545 -0.3772
 1843TIP3    H226945   1.848   0.767   5.271 -1.4408  0.9364  2.1354
 1844TIP3   OH226946   6.263   6.540  15.341 -0.2152  0.4802 -0.1699
 1844TIP3    H126947   6.230   6.455  15.311 -0.7591  0.0001  1.7190
 1844TIP3    H226948   6.281   6.588  15.260  0.9438 -1.7469 -1.2894
 1845TIP3   OH226949   3.224   2.225   6.438  0.1696  0.1369  0.1738
 1845TIP3    H126950   3.272   2.307   6.443  1.1783 -0.4845  0.6671
 1845TIP3    H226951   3.291   2.157   6.434 -0.6503 -0.8416  2.4450
 1846TIP3   OH226952   4.941   6.146   0.874 -0.1128  0.1268 -0.4134
 1846TIP3    H126953   4.953   6.216   0.938  0.7433 -0.2991 -0.0929
 1846TIP3    H226954   4.863   6.099   0.904  0.0880  0.1369  0.1326
 1847TIP3   OH226955   6.136   2.256   2.949  0.1285  0.2411 -0.0926
 1847TIP3    H126956   6.076   2.252   2.875  0.3332 -0.5439 -0.2282
 1847TIP3    H226957   6.157   2.164   2.967 -0.4523  0.3875  1.3715
 1848TIP3   OH226958   2.863   3.496  12.882 -0.1590 -0.6190  0.2483
 1848TIP3    H126959   2.942   3.494  12.827  0.0968 -0.3547  0.6006
 1848TIP3    H226960   2.793   3.519  12.821  0.2401  0.4236  0.1561
 1849TIP3   OH226961   1.724   5.825   3.488  0.3503  0.0940  0.3659
 1849TIP3    H126962   1.728   5.903   3.543  0.9946  0.5905 -0.3716
 1849TIP3    H226963   1.690   5.857   3.404  0.3870 -0.4635  0.1374
 1850TIP3   OH226964   1.188   1.123   1.962 -0.1911 -0.1957  0.4041
 1850TIP3    H126965   1.139   1.205   1.970 -0.9598 -0.6002 -0.1316
 1850TIP3    H226966   1.236   1.116   2.044  0.1463  0.9646  0.3196
 1851TIP3   OH226967   1.967   1.520  15.108  0.3387  0.3813 -0.7309
 1851TIP3    H126968   2.018   1.443  15.082 -1.0380 -0.4374 -1.0097
 1851TIP3    H226969   2.033   1.580  15.144  1.3115 -1.2535  0.2940
 1852TIP3   OH226970   6.720   3.495  11.976 -0.0113 -0.7395  0.1702
 1852TIP3    H126971   6.770   3.538  12.046  1.0267 -0.9695 -0.4128
 1852TIP3    H226972   6.754   3.405  11.974 -0.9429 -1.0976  0.2241
 1853TIP3   OH226973   3.144   3.984   2.036 -0.7484 -0.1971 -0.3046
 1853TIP3    H126974   3.151   3.950   2.125 -0.1753  0.2526 -0.1705
 1853TIP3    H226975   3.138   4.079   2.047 -1.8802 -0.2116 -0.6942
 1854TIP3   OH226976   5.555   4.969  16.367 -0.4402 -0.1606 -0.4020
 1854TIP3    H126977   5.564   5.062  16.387  0.3882 -0.2071 -0.5389
 1854TIP3    H226978   5.539   4.966  16.272 -3.0859 -0.0149  0.0129
 1855TIP3   OH226979   0.580   5.150   0.061 -0.3467 -0.2577 -0.3856
 1855TIP3    H126980   0.588   5.187  -0.027 -0.5042  1.3383  0.2382
 1855TIP3    H226981   0.606   5.059   0.052  2.1428  0.5216 -1.5902
 1856TIP3   OH226982   4.503   3.253  15.001 -0.2433 -0.1151  0.5720
 1856TIP3    H126983   4.440   3.188  15.033 -1.3683  0.5938 -0.1404
 1856TIP3    H226984   4.507   3.319  15.069 -2.5200  1.3171 -0.6123
 1857TIP3   OH226985   5.717   5.376   0.996  0.0630 -0.0263 -0.5184
 1857TIP3    H126986   5.793   5.370   1.054  0.1198 -0.4500 -0.6332
 1857TIP3    H226987   5.755   5.387   0.909 -0.0090  0.0147 -0.5443
 1858TIP3   OH226988   2.540   1.819   3.260  0.2947  0.2445 -0.0095
 1858TIP3    H126989   2.591   1.846   3.184 -1.6421  2.3440 -0.6043
 1858TIP3    H226990   2.576   1.869   3.333 -1.4475  2.4354 -0.5992
 1859TIP3   OH226991   3.163   5.782   5.146 -0.0671 -0.1419  0.1767
 1859TIP3    H126992   3.095   5.841   5.117 -2.7149 -2.8957  0.4940
 1859TIP3    H226993   3.209   5.757   5.066 -1.2637 -0.4362 -0.4329
 1860TIP3   OH226994   0.049   6.638  11.301  0.7889  0.2587 -0.4186
 1860TIP3    H126995  -0.008   6.714  11.311 -0.3238 -0.5216 -0.8132
 1860TIP3    H226996   0.129   6.674  11.261  1.6654  1.8216  2.5491
 1861TIP3   OH226997   6.175   1.818  10.747 -0.2879 -0.4045 -0.3568
 1861TIP3    H126998   6.151   1.841  10.657  1.0930 -4.8403 -1.9855
 1861TIP3    H226999   6.092   1.793  10.788 -0.9220  1.6316 -0.3540
 1862TIP3   OH227000   0.698   5.576   6.490  0.2714 -0.1834 -0.0393
 1862TIP3    H127001   0.645   5.640   6.443  0.4127 -0.2264 -0.2566
 1862TIP3    H227002   0.773   5.560   6.432  1.3113  1.0311  0.9247
 1863TIP3   OH227003   3.742   3.011   3.164  0.3435 -0.1083 -0.2533
 1863TIP3    H127004   3.693   2.950   3.109  0.8076 -0.1951 -0.5809
 1863TIP3    H227005   3.829   2.971   3.172  0.5572  0.3587 -0.2248
 1864TIP3   OH227006   3.203   4.170   3.108  0.4052 -0.0890 -0.0800
 1864TIP3    H127007   3.290   4.189   3.144  1.8655 -1.7897 -2.5874
 1864TIP3    H227008   3.192   4.076   3.122 -1.2868  0.2028  0.6723
 1865TIP3   OH227009   5.659   0.143  14.270 -0.5977  0.0661 -0.1274
 1865TIP3    H127010   5.580   0.116  14.316 -1.7919 -0.7464 -2.5571
 1865TIP3    H227011   5.730   0.106  14.321 -1.8602 -0.7231  1.1032
 1866TIP3   OH227012   5.080   1.669  12.580 -0.5199  0.5993 -0.4036
 1866TIP3    H127013   5.080   1.586  12.627  1.0791 -0.1296 -1.6557
 1866TIP3    H227014   4.995   1.672  12.536 -0.8482 -0.0523  0.1733
 1867TIP3   OH227015   1.574   6.283  15.682  0.0379 -0.0424  0.5528
 1867TIP3    H127016   1.619   6.365  15.662 -0.2413 -0.1331 -0.4569
 1867TIP3    H227017   1.618   6.250  15.760 -1.3860  2.2638  2.4200
 1868TIP3   OH227018   3.733   2.102  14.452 -0.0091  0.6039  0.3408
 1868TIP3    H127019   3.705   2.172  14.511  0.9643 -0.2957  1.8832
 1868TIP3    H227020   3.665   2.100  14.385 -0.6754  2.2264  0.9382
 1869TIP3   OH227021   2.900   1.426  12.860 -1.3910  0.1254  0.1479
 1869TIP3    H127022   2.938   1.458  12.778  1.3495  0.5590  1.5477
 1869TIP3    H227023   2.941   1.341  12.873 -0.3107  0.9281  2.0743
 1870TIP3   OH227024   5.150   6.192  11.181 -0.2123  0.2047 -0.0555
 1870TIP3    H127025   5.235   6.182  11.225  0.2720  0.6818 -0.8577
 1870TIP3    H227026   5.123   6.281  11.202  0.2003  0.5639 -1.0122
 1871TIP3   OH227027   4.004   6.217  14.331  0.5339  0.0290 -0.3919
 1871TIP3    H127028   3.995   6.202  14.237 -0.4091 -1.7366 -0.0587
 1871TIP3    H227029   3.928   6.172  14.369  0.0577  2.0300  1.1001
 1872TIP3   OH227030   4.658   1.568   3.447 -0.7155 -0.2930 -0.3862
 1872TIP3    H127031   4.668   1.579   3.542  1.3501  0.6760 -0.6819
 1872TIP3    H227032   4.632   1.477   3.436  0.3000 -0.7692  1.0337
 1873TIP3   OH227033   5.315   0.681  15.468 -0.2243  0.0977 -0.3896
 1873TIP3    H127034   5.340   0.597  15.430 -0.4156 -0.5705  0.9371
 1873TIP3    H227035   5.397   0.728  15.479  0.1633 -0.8697  1.0777
 1874TIP3   OH227036   4.683   3.254  16.687  0.1878 -0.0599  0.3719
 1874TIP3    H127037   4.684   3.164  16.718 -1.3502 -0.0604  0.4744
 1874TIP3    H227038   4.590   3.275  16.677  0.5661  1.0319 -1.0663
 1875TIP3   OH227039   5.811   6.363   2.812  0.0629 -0.1877  0.5448
 1875TIP3    H127040   5.734   6.332   2.861 -1.0053 -0.7812 -1.4607
 1875TIP3    H227041   5.883   6.310   2.845 -1.0269 -2.0526  0.0144
 1876TIP3   OH227042   3.965   0.815  15.608 -0.7240  0.0724  0.0161
 1876TIP3    H127043   4.035   0.856  15.556  0.1248 -0.4458  0.7542
 1876TIP3    H227044   3.889   0.871  15.592  0.2082  1.4690  0.3367
 1877TIP3   OH227045   1.913   0.936   4.900  0.3426  0.3938  0.5426
 1877TIP3    H127046   1.996   0.935   4.852  0.1924  1.6677  0.2462
 1877TIP3    H227047   1.936   0.904   4.988  1.3735  1.8613  0.8222
 1878TIP3   OH227048   1.901   4.397   6.354 -0.5188 -0.1336  0.1705
 1878TIP3    H127049   1.867   4.431   6.437 -0.4723  0.1182  0.0857
 1878TIP3    H227050   1.827   4.350   6.315  0.1285 -2.3325  1.4759
 1879TIP3   OH227051   3.395   1.992   0.197  0.3207  0.2569  0.5242
 1879TIP3    H127052   3.339   2.036   0.261 -0.5590 -0.3159  0.1551
 1879TIP3    H227053   3.390   1.899   0.221 -0.1455  0.0222 -0.4793
 1880TIP3   OH227054   5.359   3.564   1.426  0.0138 -0.4850  0.0943
 1880TIP3    H127055   5.339   3.657   1.438 -2.2499 -0.5797 -2.2488
 1880TIP3    H227056   5.349   3.525   1.513 -0.2950  1.2645  0.8501
 1881TIP3   OH227057   6.309   4.029   4.748 -0.3520 -0.0420  0.5086
 1881TIP3    H127058   6.392   4.072   4.728 -0.5821 -0.0285 -0.4566
 1881TIP3    H227059   6.267   4.085   4.813  1.0657 -0.8428  2.1494
 1882TIP3   OH227060   3.035   6.039  12.841  0.5785  0.2372 -0.4512
 1882TIP3    H127061   2.989   6.017  12.760 -1.3326  1.0205  0.3814
 1882TIP3    H227062   2.986   5.994  12.910  1.0029  1.1470  0.4768
 1883TIP3   OH227063   3.052   2.206  11.892  0.2269 -0.5066 -0.1028
 1883TIP3    H127064   2.971   2.204  11.841  0.1406  1.6164 -0.0660
 1883TIP3    H227065   3.118   2.171  11.832  0.5235  3.7925 -2.4413
 1884TIP3   OH227066   5.790   5.046  15.661  0.2272 -0.4602 -0.4808
 1884TIP3    H127067   5.701   5.020  15.688  0.6012 -1.8521 -0.5802
 1884TIP3    H227068   5.797   5.015  15.571  0.5512  0.3299 -0.7291
 1885TIP3   OH227069   0.841   5.824   5.873  0.1729 -0.0129 -0.3281
 1885TIP3    H127070   0.781   5.824   5.947 -1.0304  0.2615 -1.2901
 1885TIP3    H227071   0.924   5.795   5.910 -0.5301 -0.3430  1.0322
 1886TIP3   OH227072   0.236   5.036   6.073  0.1943 -0.5020 -0.4470
 1886TIP3    H127073   0.173   5.067   6.138  1.2652 -0.3014  0.4944
 1886TIP3    H227074   0.201   5.068   5.990  0.3355  1.7491  0.3260
 1887TIP3   OH227075   1.523   0.422  16.197 -0.1789 -0.4899 -0.0014
 1887TIP3    H127076   1.554   0.461  16.115  0.6403 -0.2528  0.4179
 1887TIP3    H227077   1.438   0.383  16.174  0.5623 -1.3976 -1.2300
 1888TIP3   OH227078   1.876   1.908   3.019  0.3371  0.0460  0.3329
 1888TIP3    H127079   1.826   1.940   3.094  1.4408  1.8978  0.3103
 1888TIP3    H227080   1.820   1.926   2.944 -0.4231 -1.0713  0.6109
 1889TIP3   OH227081   3.727   4.924  11.610 -0.5615  0.2232  0.5757
 1889TIP3    H127082   3.760   4.933  11.521 -0.3501  0.6056  0.6940
 1889TIP3    H227083   3.706   4.831  11.618  0.5361 -0.0419  0.5099
 1890TIP3   OH227084   4.313   0.484   5.563 -0.1395 -0.0697  0.0173
 1890TIP3    H127085   4.362   0.554   5.608  0.6174 -0.9938  0.6564
 1890TIP3    H227086   4.223   0.516   5.559 -0.0533  0.3903  1.4542
 1891TIP3   OH227087   6.524   2.459  17.145 -0.0291 -0.0123 -0.2357
 1891TIP3    H127088   6.564   2.422  17.223  0.6568 -0.2636 -0.6923
 1891TIP3    H227089   6.594   2.455  17.079 -0.1927  1.3613 -0.5142
 1892TIP3   OH227090   1.650   5.989  15.550  0.0098  0.2243 -0.1007
 1892TIP3    H127091   1.744   5.995  15.532  0.0882  3.2905  1.1753
 1892TIP3    H227092   1.610   6.056  15.494 -1.4599 -1.1046 -0.6976
 1893TIP3   OH227093   1.179   5.487   3.281 -0.4695 -0.1109 -0.4654
 1893TIP3    H127094   1.111   5.552   3.263 -2.8992 -2.9181 -1.8797
 1893TIP3    H227095   1.194   5.443   3.198  1.5253 -1.0087  0.3269
 1894TIP3   OH227096   4.745   6.091  11.801 -0.6843 -0.1631  0.2032
 1894TIP3    H127097   4.751   5.995  11.801  1.6656 -0.0527  0.5975
 1894TIP3    H227098   4.765   6.116  11.711 -2.4503 -0.0782 -0.1820
 1895TIP3   OH227099   2.214   3.920  14.005 -0.4497  0.4581 -0.1563
 1895TIP3    H127100   2.262   3.868  13.941  0.3191 -0.5021  1.1997
 1895TIP3    H227101   2.231   3.878  14.089 -0.3570  2.4910  0.8800
 1896TIP3   OH227102   2.675   6.463  11.881  0.0381 -0.1048 -0.3975
 1896TIP3    H127103   2.745   6.450  11.944 -0.2387  1.8480  0.3538
 1896TIP3    H227104   2.661   6.377  11.842 -0.1237 -1.4760  2.5595
 1897TIP3   OH227105   6.609   4.341  11.505  1.3460 -0.1779  0.1711
 1897TIP3    H127106   6.524   4.385  11.510  1.7363  0.6000  0.0264
 1897TIP3    H227107   6.662   4.397  11.449  2.3985  0.0751  1.3917
 1898TIP3   OH227108   2.251   1.071  11.474 -0.1206 -0.1722 -0.1281
 1898TIP3    H127109   2.244   1.166  11.469 -0.4025 -0.1774  0.1646
 1898TIP3    H227110   2.306   1.054  11.550  0.4348 -0.2275 -0.5402
 1899TIP3   OH227111   1.052   2.115   2.634 -0.3256 -0.9950 -0.7362
 1899TIP3    H127112   1.090   2.073   2.711  0.2844 -0.6153 -0.8261
 1899TIP3    H227113   1.126   2.160   2.593 -0.8155 -0.5122 -1.0836
 1900TIP3   OH227114   4.409   3.623   0.733 -0.1052 -0.1594  0.3384
 1900TIP3    H127115   4.383   3.562   0.664 -1.9432  2.3854 -1.2927
 1900TIP3    H227116   4.333   3.627   0.791 -1.0261  2.5577 -1.0124
 1901TIP3   OH227117   6.122   5.390  16.129 -0.1561 -0.3136 -0.4479
 1901TIP3    H127118   6.194   5.384  16.066  0.9246  0.0755  0.7338
 1901TIP3    H227119   6.106   5.484  16.138  0.0852 -0.3425  0.2962
 1902TIP3   OH227120   2.537   5.177   5.724  0.6713  0.2401  0.0915
 1902TIP3    H127121   2.530   5.260   5.773  2.6403  0.7106 -0.4148
 1902TIP3    H227122   2.544   5.110   5.792  1.5011  0.7176  0.4783
 1903TIP3   OH227123   2.216   2.701   3.020  0.3975 -0.4705  0.3467
 1903TIP3    H127124   2.190   2.615   2.986  1.5088 -0.0805 -1.5128
 1903TIP3    H227125   2.295   2.684   3.071  0.0650 -0.6796  0.8055
 1904TIP3   OH227126   3.432   4.351  11.972 -0.7232 -0.1235  0.6546
 1904TIP3    H127127   3.525   4.330  11.965 -0.3526  0.4540  3.1836
 1904TIP3    H227128   3.417   4.416  11.904  0.4518 -1.1009 -0.5607
 1905TIP3   OH227129   1.422   4.742  12.004  0.3036 -0.4540  0.5545
 1905TIP3    H127130   1.504   4.782  12.034  0.5805  0.0976 -0.9282
 1905TIP3    H227131   1.403   4.785  11.921 -1.9757  0.0861  1.2985
 1906TIP3   OH227132   1.281   1.299   0.295 -0.2030 -0.5419  0.1326
 1906TIP3    H127133   1.312   1.389   0.300 -1.5563 -0.1962  3.2922
 1906TIP3    H227134   1.206   1.303   0.236  0.6273  0.1015 -0.9046
 1907TIP3   OH227135   3.926   1.675  13.635 -0.0346 -0.1664  0.3641
 1907TIP3    H127136   3.911   1.731  13.559  0.2379  0.0599  0.4746
 1907TIP3    H227137   3.989   1.724  13.689 -1.2062  0.2761  1.3724
 1908TIP3   OH227138   1.733   1.789  11.313  0.7589 -0.1279 -0.8351
 1908TIP3    H127139   1.701   1.702  11.339  1.0727 -0.2359 -0.8095
 1908TIP3    H227140   1.694   1.849  11.376 -0.0055 -0.1712 -1.2576
 1909TIP3   OH227141   2.357   5.558  13.493 -0.3626  0.4867 -0.2939
 1909TIP3    H127142   2.398   5.472  13.481 -0.7713 -0.4096  3.9756
 1909TIP3    H227143   2.292   5.564  13.423  1.1515 -1.7227 -1.9493
 1910TIP3   OH227144   1.045   6.749   6.394  0.4003 -0.2943  0.6321
 1910TIP3    H127145   1.071   6.664   6.357 -0.5628  0.3227 -1.5133
 1910TIP3    H227146   0.952   6.738   6.416 -0.1171  0.6528 -1.0273
 1911TIP3   OH227147   5.732   6.387  10.873 -0.3645 -0.0075  0.3917
 1911TIP3    H127148   5.807   6.366  10.818 -0.0120  1.3977  0.3094
 1911TIP3    H227149   5.682   6.305  10.878  0.9883 -0.8580  0.1778
 1912TIP3   OH227150   6.567   4.050   2.279 -0.3291 -0.4568  0.2379
 1912TIP3    H127151   6.518   3.968   2.267 -1.5556  0.2239  0.4705
 1912TIP3    H227152   6.576   4.058   2.374  0.0565 -0.4710  0.2034
 1913TIP3   OH227153   4.813   6.010  15.788 -0.0405 -0.0048 -0.0003
 1913TIP3    H127154   4.744   6.056  15.741  0.9587  0.7296 -0.7783
 1913TIP3    H227155   4.888   6.069  15.784  1.0569 -1.3989 -0.4150
 1914TIP3   OH227156   5.855   1.804  16.860  0.6045  0.3038  0.2121
 1914TIP3    H127157   5.846   1.898  16.875 -1.6282  0.1482  0.0281
 1914TIP3    H227158   5.776   1.766  16.900  0.4792 -1.2759 -1.4910
 1915TIP3   OH227159   5.127   4.364   4.934  0.3763 -0.2275 -0.5587
 1915TIP3    H127160   5.159   4.363   5.024 -0.5987 -0.7912 -0.2130
 1915TIP3    H227161   5.061   4.295   4.931 -0.0718  0.2320 -1.5340
 1916TIP3   OH227162   2.248   1.084  14.741  0.0406 -0.4580  0.9231
 1916TIP3    H127163   2.312   1.050  14.677 -1.8594  2.2936 -2.6327
 1916TIP3    H227164   2.298   1.148  14.792  0.8317 -0.3168  0.0023
 1917TIP3   OH227165   6.362   6.462   5.688 -0.1544 -0.2979 -0.1403
 1917TIP3    H127166   6.292   6.524   5.668 -0.0564 -0.9196 -2.5152
 1917TIP3    H227167   6.440   6.516   5.697 -0.4936  0.1568  0.0668
 1918TIP3   OH227168   2.066   3.755  15.178  0.3658  0.1763 -0.5134
 1918TIP3    H127169   2.020   3.682  15.219  1.4977 -0.8760 -1.0745
 1918TIP3    H227170   2.029   3.760  15.090  0.8868 -0.2962 -0.7679
 1919TIP3   OH227171   1.276   2.261  16.367  0.3207 -0.1964  0.5055
 1919TIP3    H127172   1.293   2.283  16.275  0.6720 -1.4271  0.2690
 1919TIP3    H227173   1.191   2.218  16.365 -1.3381  2.8580  1.2352
 1920TIP3   OH227174   4.540   3.003  15.307  0.3378  0.3548 -0.3609
 1920TIP3    H127175   4.627   2.985  15.345  0.6697  1.1388 -0.7549
 1920TIP3    H227176   4.536   2.947  15.230  0.3702  0.0999 -0.1819
 1921TIP3   OH227177   1.023   0.575   5.927 -0.1331  0.6686 -0.3787
 1921TIP3    H127178   0.930   0.555   5.938 -0.5704  2.1857 -1.1663
 1921TIP3    H227179   1.055   0.592   6.016 -0.4663 -0.4135 -0.0469
 1922TIP3   OH227180   1.924   4.036   5.194 -0.3251 -0.3391  0.0779
 1922TIP3    H127181   1.932   3.945   5.166 -1.7929 -0.9313  1.5053
 1922TIP3    H227182   1.840   4.064   5.158 -0.5038  0.0289  0.7801
 1923TIP3   OH227183   0.210   6.337  13.069  0.3911  0.4539 -0.5392
 1923TIP3    H127184   0.117   6.346  13.049 -0.0362  0.0762  1.2001
 1923TIP3    H227185   0.227   6.405  13.134  1.0463 -0.2271  0.0126
 1924TIP3   OH227186   1.349   6.040   4.209 -0.3282  0.8664 -0.0059
 1924TIP3    H127187   1.302   6.076   4.284  2.1371  0.9942  1.5278
 1924TIP3    H227188   1.423   6.099   4.197  2.1816 -2.0249  0.7335
 1925TIP3   OH227189   3.357   2.469   1.697 -0.3162  0.3600 -0.1410
 1925TIP3    H127190   3.307   2.483   1.777 -0.4134 -3.5792  0.5795
 1925TIP3    H227191   3.359   2.555   1.654 -1.0822  2.3274  3.5727
 1926TIP3   OH227192   6.548   2.640  16.209 -0.0090 -0.4764 -0.1679
 1926TIP3    H127193   6.593   2.593  16.139  2.0456  0.1324  0.7074
 1926TIP3    H227194   6.601   2.625  16.287 -1.3547  0.2230  0.9273
 1927TIP3   OH227195   6.363   2.228   0.500 -0.0699 -0.2217  0.5804
 1927TIP3    H127196   6.439   2.174   0.482 -1.1439 -1.5526 -0.1016
 1927TIP3    H227197   6.338   2.207   0.590  0.9947  1.0265  1.1840
 1928TIP3   OH227198   2.205   2.654  13.118  0.2577 -0.0303 -0.0004
 1928TIP3    H127199   2.166   2.652  13.206  0.8296  0.8906  0.2846
 1928TIP3    H227200   2.143   2.704  13.065  0.4189  0.3298  0.1455
 1929TIP3   OH227201   2.523   2.099   1.305  0.0921  0.0515  0.1007
 1929TIP3    H127202   2.532   2.087   1.399 -1.6736  1.4403  0.4587
 1929TIP3    H227203   2.599   2.054   1.268  0.9043 -0.3326  2.1877
 1930TIP3   OH227204   3.704   3.744   2.677  0.1323  0.0761  0.0567
 1930TIP3    H127205   3.640   3.683   2.639  0.8122  0.2251 -1.3844
 1930TIP3    H227206   3.708   3.721   2.769 -2.4251  0.4301  0.2964
 1931TIP3   OH227207   1.055   3.420  13.340 -0.3921  0.3040 -0.0794
 1931TIP3    H127208   1.008   3.364  13.402  0.2733 -0.7022 -0.4587
 1931TIP3    H227209   1.006   3.502  13.339 -0.8321  0.0673  1.2157
 1932TIP3   OH227210   3.015   2.364  15.131  0.0031 -0.4674 -0.3331
 1932TIP3    H127211   3.056   2.281  15.108  1.6904  0.2867 -0.0834
 1932TIP3    H227212   3.087   2.419  15.161 -1.5970 -0.2313  3.3466
 1933TIP3   OH227213   1.272   4.431  12.784 -0.2612  0.5779 -0.5652
 1933TIP3    H127214   1.274   4.465  12.695 -0.2845  0.9649 -0.4183
 1933TIP3    H227215   1.355   4.383  12.793 -1.7816 -2.4287 -1.9479
 1934TIP3   OH227216   2.397   2.229   4.009 -0.1274  0.0916 -0.1135
 1934TIP3    H127217   2.321   2.171   4.009  0.1615 -0.2839  0.6469
 1934TIP3    H227218   2.374   2.298   3.946  0.1507 -1.6543 -2.1748
 1935TIP3   OH227219   5.462   3.965   3.114  0.2323 -0.4233  0.3531
 1935TIP3    H127220   5.509   3.948   3.033 -0.5069  1.4936 -0.5065
 1935TIP3    H227221   5.405   4.039   3.094 -0.7400 -0.5995  2.3181
 1936TIP3   OH227222   0.802   0.141  14.646 -0.3527 -0.0422  0.3610
 1936TIP3    H127223   0.775   0.086  14.572  1.1980 -1.7375  1.0122
 1936TIP3    H227224   0.885   0.102  14.675  0.2489  2.0334  1.5018
 1937TIP3   OH227225   5.708   6.185  13.695 -0.0987  0.5432 -0.1736
 1937TIP3    H127226   5.757   6.268  13.692  0.4747  0.2112 -0.0098
 1937TIP3    H227227   5.755   6.132  13.760  0.2903 -0.3858 -1.1878
 1938TIP3   OH227228   3.755   1.626  13.833 -0.2064 -0.3086 -0.0150
 1938TIP3    H127229   3.795   1.636  13.747 -1.1146  2.1593 -0.2072
 1938TIP3    H227230   3.678   1.572  13.817  0.0801 -0.5447 -0.6175
 1939TIP3   OH227231   3.668   2.733   5.061 -0.1167 -0.3055 -0.3110
 1939TIP3    H127232   3.681   2.819   5.101  0.1071 -0.5604  0.1719
 1939TIP3    H227233   3.721   2.674   5.114  2.1887 -0.2744 -2.4768
 1940TIP3   OH227234   2.293   6.555  13.753 -0.3961  0.1299  0.0093
 1940TIP3    H127235   2.305   6.615  13.826  0.4436 -0.8293  0.6654
 1940TIP3    H227236   2.253   6.608  13.685 -1.2349  1.0207  1.1835
 1941TIP3   OH227237   4.971   2.944   5.670 -0.3781 -0.4292 -0.0212
 1941TIP3    H127238   4.922   2.953   5.752 -1.0662  0.6546 -0.5339
 1941TIP3    H227239   4.999   3.033   5.650  3.6322 -1.2666  1.3457
 1942TIP3   OH227240   0.553   3.522   2.710 -0.6009 -0.0952 -0.3990
 1942TIP3    H127241   0.495   3.446   2.717 -1.4489  0.5974  0.2538
 1942TIP3    H227242   0.567   3.550   2.800 -0.2731  0.5103 -0.6383
 1943TIP3   OH227243   6.766   5.728   2.395  0.1217 -0.2071 -0.1907
 1943TIP3    H127244   6.826   5.688   2.332  1.2455  0.8824  0.1675
 1943TIP3    H227245   6.727   5.655   2.442  1.0253 -0.9256 -0.5597
 1944TIP3   OH227246   2.710   0.138  11.259 -0.0922 -0.0858 -0.4065
 1944TIP3    H127247   2.760   0.161  11.337  0.2595 -0.6216 -0.4724
 1944TIP3    H227248   2.690   0.222  11.217  0.2030  0.1632 -0.0443
 1945TIP3   OH227249   3.092   6.392  15.317 -0.4303  0.0795  0.4047
 1945TIP3    H127250   3.099   6.411  15.224 -1.5728  1.6942  0.6269
 1945TIP3    H227251   3.144   6.461  15.359  0.2907 -0.7915  0.9549
 1946TIP3   OH227252   4.477   1.974  16.328 -0.0898  0.1688  0.4944
 1946TIP3    H127253   4.444   2.063  16.331  2.0418  1.0494 -1.1576
 1946TIP3    H227254   4.490   1.956  16.235  2.6909 -0.6546  1.0209
 1947TIP3   OH227255   2.150   2.540  10.945  0.0799 -0.0357  0.3106
 1947TIP3    H127256   2.214   2.576  11.007  1.5447 -1.6327 -0.2537
 1947TIP3    H227257   2.203   2.503  10.874 -1.3489 -3.2303  0.8205
 1948TIP3   OH227258   2.785   3.391   5.141 -0.2930  0.2637 -0.0148
 1948TIP3    H127259   2.773   3.355   5.054  0.9022 -0.4914  0.1250
 1948TIP3    H227260   2.787   3.486   5.128 -2.3231  0.2575 -0.5196
 1949TIP3   OH227261   3.677   5.897   6.458 -1.1851 -0.0109 -0.3944
 1949TIP3    H127262   3.660   5.864   6.546  0.2585  1.0838  0.3151
 1949TIP3    H227263   3.667   5.821   6.401  0.3760 -1.2698  1.0059
 1950TIP3   OH227264   4.033   5.506   4.688  0.1275  0.5057  0.6456
 1950TIP3    H127265   3.991   5.425   4.658 -0.2063 -0.5350  3.6797
 1950TIP3    H227266   4.103   5.476   4.746  0.3466  2.3656  1.3876
 1951TIP3   OH227267   0.750   4.455  11.079  0.4245 -0.6119 -0.5654
 1951TIP3    H127268   0.715   4.389  11.019 -2.0622 -0.5974  0.7898
 1951TIP3    H227269   0.734   4.539  11.036  2.2183 -0.7741 -1.6063
 1952TIP3   OH227270   6.200   3.165   4.591 -0.1866 -0.1559 -0.3050
 1952TIP3    H127271   6.284   3.140   4.628 -0.1130 -0.8256 -0.9214
 1952TIP3    H227272   6.180   3.097   4.527 -1.2612 -0.0684 -0.0780
 1953TIP3   OH227273   4.787   0.479  11.568  0.5245  0.1950 -0.3115
 1953TIP3    H127274   4.782   0.424  11.490 -1.9187 -0.7485  0.4579
 1953TIP3    H227275   4.796   0.417  11.641 -0.8039  0.8763  0.4463
 1954TIP3   OH227276   4.401   0.285  13.449  0.0471 -0.0474  0.0583
 1954TIP3    H127277   4.376   0.369  13.410  1.3806 -0.5173 -1.8798
 1954TIP3    H227278   4.478   0.306  13.503 -0.4064  0.1982  0.6141
 1955TIP3   OH227279   0.271   1.784   5.007  0.2818  0.2941  0.2007
 1955TIP3    H127280   0.256   1.835   5.087 -0.2903  1.5539 -0.6884
 1955TIP3    H227281   0.324   1.709   5.036  2.4995  2.2009  1.2870
 1956TIP3   OH227282   6.066   4.272  16.130 -0.0567  0.1180  0.4350
 1956TIP3    H127283   6.103   4.277  16.042  0.7419  1.1884  0.8167
 1956TIP3    H227284   6.111   4.341  16.179 -1.1193  0.1141  1.4485
 1957TIP3   OH227285   2.085   2.702   4.283 -0.1000  0.4359  0.5743
 1957TIP3    H127286   2.097   2.667   4.371  1.1738  0.2536  0.3287
 1957TIP3    H227287   2.094   2.627   4.226  0.6403  0.8263  0.1779
 1958TIP3   OH227288   1.215   4.733  15.230  0.0934  0.4068 -0.2625
 1958TIP3    H127289   1.214   4.829  15.232 -0.2246  0.3852  0.5083
 1958TIP3    H227290   1.308   4.711  15.241 -0.1192  0.5735  1.9415
 1959TIP3   OH227291   6.045   6.122   6.037  0.5267 -0.0402  0.1363
 1959TIP3    H127292   5.990   6.130   6.116  1.9956  0.7756  1.0968
 1959TIP3    H227293   6.107   6.053   6.058  1.3303  0.6158 -0.0511
 1960TIP3   OH227294   3.720   5.908   3.569 -0.0885  0.2764  0.0532
 1960TIP3    H127295   3.689   5.923   3.658  0.6800  0.1278  0.3534
 1960TIP3    H227296   3.737   5.996   3.535  1.5839  0.2493  0.7790
 1961TIP3   OH227297   3.611   1.374  14.132 -0.0741  0.8633  0.0108
 1961TIP3    H127298   3.697   1.373  14.091  0.0880 -0.2033  0.3402
 1961TIP3    H227299   3.616   1.441  14.199  0.9959 -0.2020  1.0240
 1962TIP3   OH227300   3.922   1.525   0.059  0.1295 -0.3334 -0.4845
 1962TIP3    H127301   4.002   1.502   0.011  1.1383  1.5813  0.2029
 1962TIP3    H227302   3.852   1.480   0.012  1.6301 -2.1544 -1.0267
 1963TIP3   OH227303   0.395   4.877   5.267  0.1581 -0.6809  0.2346
 1963TIP3    H127304   0.410   4.786   5.295 -0.2783 -0.9216 -0.3011
 1963TIP3    H227305   0.451   4.929   5.324  0.8380 -1.3359  0.1673
 1964TIP3   OH227306   0.919   0.334  16.147  0.2038 -0.6066 -0.1116
 1964TIP3    H127307   0.893   0.395  16.078  0.9912  0.8300  0.8208
 1964TIP3    H227308   0.865   0.359  16.222  2.8580  1.1815  1.2863
 1965TIP3   OH227309   3.480   3.279  14.917  0.3024  0.5234  0.6504
 1965TIP3    H127310   3.497   3.363  14.876  0.3310 -0.1539 -0.7530
 1965TIP3    H227311   3.530   3.281  14.999 -0.1319  2.0719  0.8884
 1966TIP3   OH227312   6.597   1.286   6.097  0.1104  0.5699 -0.0193
 1966TIP3    H127313   6.578   1.362   6.041 -0.0461  0.8518  0.4125
 1966TIP3    H227314   6.687   1.300   6.126 -0.0300  0.7658  0.3285
 1967TIP3   OH227315   1.339   2.828  15.443  0.4957 -0.2816 -0.2678
 1967TIP3    H127316   1.422   2.825  15.491  0.2473  0.6457  0.2314
 1967TIP3    H227317   1.365   2.827  15.351  1.0146 -1.1284 -0.1247
 1968TIP3   OH227318   1.570   3.863  13.929  0.0474  0.1058 -0.0517
 1968TIP3    H127319   1.499   3.841  13.990  0.3093  1.2948  0.7035
 1968TIP3    H227320   1.531   3.926  13.869  0.4391  0.7156  0.3273
 1969TIP3   OH227321   4.843   1.171   0.105 -0.0199  0.0036  0.1850
 1969TIP3    H127322   4.910   1.239   0.110  0.3080 -0.3100  0.0187
 1969TIP3    H227323   4.839   1.135   0.194  0.2702 -0.2085  0.1119
 1970TIP3   OH227324   4.449   1.041  13.767 -0.5330  0.5377  0.2803
 1970TIP3    H127325   4.449   0.978  13.695  1.5842 -1.6889  2.1393
 1970TIP3    H227326   4.524   1.097  13.749  0.2458 -0.2790  0.9414
 1971TIP3   OH227327   6.404   5.410   5.387 -0.9805 -0.5106  0.3666
 1971TIP3    H127328   6.318   5.382   5.418 -0.5158 -0.1054  2.0596
 1971TIP3    H227329   6.427   5.485   5.442  0.8613 -1.2045  0.5881
 1972TIP3   OH227330   2.319   3.690   5.453 -0.4216  0.1952  0.7688
 1972TIP3    H127331   2.289   3.619   5.509  1.1475 -1.7503 -0.7788
 1972TIP3    H227332   2.248   3.754   5.454 -1.0546 -0.4952  3.7288
 1973TIP3   OH227333   5.575   5.992  10.474 -0.0635 -0.0937 -0.2404
 1973TIP3    H127334   5.525   5.940  10.538  1.5640 -0.2113  0.9618
 1973TIP3    H227335   5.508   6.043  10.428 -1.4168 -1.1722  0.4728
 1974TIP3   OH227336   6.067   6.147  11.304 -0.0667 -0.7639  0.2684
 1974TIP3    H127337   6.087   6.215  11.369 -0.3100 -0.6637  0.2376
 1974TIP3    H227338   6.079   6.064  11.352 -1.0702 -0.6754  0.6747
 1975TIP3   OH227339   1.465   4.901   1.706  0.0912  0.2352  0.3707
 1975TIP3    H127340   1.475   4.968   1.773 -1.2325  1.7395 -0.9155
 1975TIP3    H227341   1.422   4.828   1.751  1.4138  0.2749  1.7354
 1976TIP3   OH227342   2.973   0.795  16.022  0.3194 -0.1604  0.1663
 1976TIP3    H127343   2.891   0.746  16.030  0.5873 -0.8709 -1.3276
 1976TIP3    H227344   3.041   0.734  16.052  0.4660 -0.1109 -0.0620
 1977TIP3   OH227345   5.454   1.490  12.445  0.4266  0.4678 -0.0011
 1977TIP3    H127346   5.433   1.582  12.429 -0.8558 -0.0266 -1.2852
 1977TIP3    H227347   5.380   1.457  12.494  1.1919  0.2610  1.0328
 1978TIP3   OH227348   1.577   0.089  12.493 -0.7627 -0.3090  0.5435
 1978TIP3    H127349   1.492   0.066  12.531  0.3339 -2.1604  1.9847
 1978TIP3    H227350   1.579   0.041  12.410 -0.6147 -1.3479  1.1288
 1979TIP3   OH227351   0.323   5.790  10.953 -0.7220  0.0525  0.2794
 1979TIP3    H127352   0.405   5.818  10.912 -1.5339  1.6571 -0.2838
 1979TIP3    H227353   0.277   5.872  10.973 -1.8350 -0.8092  1.3282
 1980TIP3   OH227354   5.588   1.745  16.978  0.3696  0.2515  0.4903
 1980TIP3    H127355   5.531   1.694  17.036 -0.1323  1.1618  0.8131
 1980TIP3    H227356   5.604   1.826  17.026  2.3877 -0.2060  0.6389
 1981TIP3   OH227357   6.152   3.989  14.098  0.2533  0.4945 -0.6215
 1981TIP3    H127358   6.098   4.047  14.153 -0.1172 -0.1268 -0.3339
 1981TIP3    H227359   6.240   4.028  14.102  0.1496  0.6653  0.1151
 1982TIP3   OH227360   3.177   4.963  12.257 -0.8339  0.0549 -0.2434
 1982TIP3    H127361   3.251   4.926  12.304 -0.3568  1.8158  0.4097
 1982TIP3    H227362   3.102   4.946  12.313 -0.7927 -0.8925 -0.4688
 1983TIP3   OH227363   1.784   1.999   4.138 -0.0038  0.1487  0.2946
 1983TIP3    H127364   1.838   1.947   4.078 -1.3005 -0.0269 -0.7464
 1983TIP3    H227365   1.827   2.085   4.141  0.5470 -0.1062 -0.2195
 1984TIP3   OH227366   3.666   0.378   2.249  0.6061  0.3989 -0.3295
 1984TIP3    H127367   3.631   0.463   2.275 -1.2246  0.3122 -2.3661
 1984TIP3    H227368   3.752   0.375   2.290 -0.7560  1.6602  2.8015
 1985TIP3   OH227369   3.879   1.595   4.653 -0.4220 -0.0434 -0.2456
 1985TIP3    H127370   3.942   1.541   4.605  0.2569  1.3666 -0.9935
 1985TIP3    H227371   3.854   1.542   4.729  0.9045 -1.0302 -0.4794
 1986TIP3   OH227372   2.339   3.733   1.261  0.0149  0.8030  0.3772
 1986TIP3    H127373   2.271   3.730   1.328 -0.3515 -1.5852 -0.0594
 1986TIP3    H227374   2.293   3.752   1.180 -0.3957 -2.1675 -0.1551
 1987TIP3   OH227375   6.220   3.756  13.252  0.3323 -0.7094 -0.5515
 1987TIP3    H127376   6.159   3.811  13.202 -1.0982 -0.6431  1.2075
 1987TIP3    H227377   6.203   3.667  13.221  0.6436 -0.4819 -1.3791
 1988TIP3   OH227378   2.106   2.430   3.056 -0.9896 -0.3753  0.0552
 1988TIP3    H127379   2.095   2.341   3.088 -0.3624 -0.2316  0.6586
 1988TIP3    H227380   2.178   2.425   2.994 -1.0886 -0.3246 -0.0653
 1989TIP3   OH227381   1.203   4.378   2.400 -0.6237 -0.1118  0.2226
 1989TIP3    H127382   1.272   4.328   2.357 -0.5894 -0.4289  0.6386
 1989TIP3    H227383   1.163   4.316   2.461  1.3148  1.1356  2.8527
 1990TIP3   OH227384   1.037   2.409   3.710  0.6006 -0.4174 -0.1533
 1990TIP3    H127385   1.104   2.467   3.747  0.0828  1.5763 -2.2230
 1990TIP3    H227386   0.956   2.434   3.755  0.8258 -1.3544  0.8050
 1991TIP3   OH227387   4.997   0.516   0.211 -0.0021 -0.3050 -0.1238
 1991TIP3    H127388   4.935   0.542   0.280  0.2163 -0.4082  0.1131
 1991TIP3    H227389   5.082   0.511   0.256  0.8057  3.0287 -1.0902
 1992TIP3   OH227390   0.503   3.280   1.604 -0.4068  0.2263 -0.0051
 1992TIP3    H127391   0.530   3.334   1.530  1.6357 -0.2276  0.3804
 1992TIP3    H227392   0.482   3.195   1.564  0.8259 -0.0608 -0.0787
 1993TIP3   OH227393   2.103   6.361  14.931  0.2870  0.0421 -0.1082
 1993TIP3    H127394   2.047   6.310  14.988 -0.2073  1.1711  0.4251
 1993TIP3    H227395   2.162   6.297  14.891 -1.4616 -1.1650 -0.7884
 1994TIP3   OH227396   0.003   0.840  15.089 -0.3011 -0.3459  0.3051
 1994TIP3    H127397  -0.073   0.782  15.102  1.1636 -3.1664 -2.8296
 1994TIP3    H227398   0.078   0.789  15.120  0.6740  1.1911  0.5101
 1995TIP3   OH227399   1.228   2.599  15.489 -0.3466  0.2483  0.1738
 1995TIP3    H127400   1.275   2.681  15.472 -1.0818  0.6620  0.1298
 1995TIP3    H227401   1.152   2.625  15.540 -1.1301 -0.2734 -0.7172
 1996TIP3   OH227402   6.484   0.352  13.565 -0.0069  0.4546  0.0953
 1996TIP3    H127403   6.471   0.447  13.567 -1.6404  0.4815 -4.7190
 1996TIP3    H227404   6.395   0.316  13.565  0.5534 -0.9473 -0.2620
 1997TIP3   OH227405   3.675   2.359  14.591 -0.6347 -0.1341 -0.5497
 1997TIP3    H127406   3.750   2.407  14.627 -0.0235 -1.1262 -0.4752
 1997TIP3    H227407   3.625   2.425  14.542  1.0905  0.2360 -1.8642
 1998TIP3   OH227408   5.901   4.554   5.158 -0.1180  0.4445  0.4893
 1998TIP3    H127409   5.845   4.477   5.165  1.1638 -0.5017  0.4976
 1998TIP3    H227410   5.884   4.588   5.070  0.0619 -0.4389  0.1063
 1999TIP3   OH227411   5.940   2.540   1.641 -0.0402 -0.4827  0.1836
 1999TIP3    H127412   6.031   2.527   1.667 -0.4317 -0.6340  1.5071
 1999TIP3    H227413   5.928   2.481   1.566  0.5163 -1.6195  0.9709
 2000TIP3   OH227414   3.696   3.617  14.246 -0.0865  0.2795 -0.5536
 2000TIP3    H127415   3.754   3.547  14.276 -0.0924  0.7852  0.6614
 2000TIP3    H227416   3.614   3.572  14.221  0.0111 -0.1691 -0.0600
 2001TIP3   OH227417   4.659   0.913   0.740 -0.1876 -0.3192 -0.2725
 2001TIP3    H127418   4.643   1.000   0.705 -0.8648 -0.6648 -0.8383
 2001TIP3    H227419   4.573   0.882   0.768  0.3120 -0.1253  1.5427
 2002TIP3   OH227420   2.964   6.380   5.950 -0.3360  0.3310 -0.2313
 2002TIP3    H127421   3.048   6.344   5.920 -0.6405 -1.1314  0.6210
 2002TIP3    H227422   2.968   6.372   6.046 -1.2373  0.7366 -0.1620
 2003TIP3   OH227423   3.297   2.830  12.484 -0.0818  0.5338  0.1346
 2003TIP3    H127424   3.346   2.911  12.499 -0.2407  0.5085  0.8070
 2003TIP3    H227425   3.206   2.859  12.472 -0.0744  0.4921 -0.0099
 2004TIP3   OH227426   4.952   2.333   2.964  0.0183  0.0370  0.2112
 2004TIP3    H127427   4.955   2.429   2.959 -0.8975  0.0344 -0.8396
 2004TIP3    H227428   4.881   2.314   3.025 -0.0523  0.0372  0.1307
 2005TIP3   OH227429   1.971   4.632   2.964 -0.3274 -0.3064  0.1000
 2005TIP3    H127430   1.922   4.629   2.882 -1.5613 -1.5995  0.8553
 2005TIP3    H227431   2.048   4.577   2.948  0.2422  0.7370 -0.7032
 2006TIP3   OH227432   0.003   3.627   0.886  0.0307  0.0993  0.2375
 2006TIP3    H127433  -0.085   3.638   0.851  0.6773  1.2659 -1.0726
 2006TIP3    H227434   0.019   3.533   0.884 -0.6329  0.0109 -0.8895
 2007TIP3   OH227435   2.610   2.611  16.079 -0.0344 -0.2775 -0.8386
 2007TIP3    H127436   2.572   2.597  15.993 -1.2776  1.5299 -0.6220
 2007TIP3    H227437   2.535   2.629  16.136  0.7710 -1.4088  0.6197
 2008TIP3   OH227438   0.456   0.474   4.393  0.7770 -0.0095 -0.3793
 2008TIP3    H127439   0.496   0.554   4.360  1.4500 -0.6156 -1.0460
 2008TIP3    H227440   0.519   0.439   4.456  0.4808 -0.0070 -0.0808
 2009TIP3   OH227441   6.345   0.213   4.014  0.1045 -0.4540  0.3234
 2009TIP3    H127442   6.325   0.156   3.939  0.1863 -0.8481  0.5976
 2009TIP3    H227443   6.439   0.225   4.011  0.0776 -0.2772  0.2233
 2010TIP3   OH227444   2.100   2.599   0.147 -0.0850 -0.1901  0.1711
 2010TIP3    H127445   2.067   2.647   0.223 -0.5905  2.4665 -1.6854
 2010TIP3    H227446   2.022   2.559   0.108 -0.0496 -0.1460  0.0573
 2011TIP3   OH227447   4.343   5.051   0.632  0.4687 -0.1118  0.0918
 2011TIP3    H127448   4.364   5.047   0.725 -0.9946  0.6764  0.4862
 2011TIP3    H227449   4.419   5.092   0.592  0.5808  0.7363  1.1395
 2012TIP3   OH227450   0.286   2.596  15.504 -0.0878 -0.4371  0.6091
 2012TIP3    H127451   0.380   2.582  15.515 -0.3221 -1.6043  1.1985
 2012TIP3    H227452   0.273   2.596  15.409  0.6204  0.5258  0.5045
 2013TIP3   OH227453   5.939   0.752  12.976  0.5410 -0.1097  0.1835
 2013TIP3    H127454   5.896   0.810  12.914  1.1280  0.5705  0.4004
 2013TIP3    H227455   6.021   0.797  12.997  0.9779 -0.9993  0.3869
 2014TIP3   OH227456   1.635   3.270   5.177 -0.4317  0.2929 -0.0202
 2014TIP3    H127457   1.591   3.236   5.099 -0.2749  0.4480 -0.1757
 2014TIP3    H227458   1.718   3.304   5.145 -1.2068  2.1677 -0.1000
 2015TIP3   OH227459   6.559   1.517  10.664  0.5005 -0.6734  0.3754
 2015TIP3    H127460   6.580   1.544  10.574  1.7587  0.4719  1.0008
 2015TIP3    H227461   6.635   1.544  10.715 -1.0505  0.4804  2.1295
 2016TIP3   OH227462   2.044   1.376  16.990 -0.1369  0.5910  0.4005
 2016TIP3    H127463   2.135   1.387  16.963 -0.0765 -1.5537 -0.4020
 2016TIP3    H227464   2.015   1.298  16.943 -2.6409  1.7184  0.0322
 2017TIP3   OH227465   6.612   5.547   2.528 -0.2108 -0.4015 -0.2236
 2017TIP3    H127466   6.609   5.527   2.622 -1.5367  0.1071 -0.1410
 2017TIP3    H227467   6.581   5.467   2.485 -1.9320  0.1646 -0.0859
 2018TIP3   OH227468   4.889   3.570  14.418 -0.5935  0.0596 -0.5527
 2018TIP3    H127469   4.813   3.627  14.422 -2.1647 -2.0227  0.1787
 2018TIP3    H227470   4.947   3.612  14.355 -1.8429  2.2563 -0.2915
 2019TIP3   OH227471   1.177   0.510  15.708 -0.0020  0.0817  0.4673
 2019TIP3    H127472   1.173   0.443  15.640 -0.8788  1.0347 -0.4344
 2019TIP3    H227473   1.114   0.577  15.680 -0.7720  0.2432  2.4662
 2020TIP3   OH227474   6.634   1.728  11.795  0.5016  0.3589 -0.3337
 2020TIP3    H127475   6.610   1.766  11.710 -0.7864 -0.1608 -0.2162
 2020TIP3    H227476   6.595   1.641  11.794  1.8228 -0.2521  0.1674
 2021TIP3   OH227477   2.685   5.897  15.292  0.0596  0.3570  0.1323
 2021TIP3    H127478   2.742   5.903  15.215  1.2857  3.7442  1.2018
 2021TIP3    H227479   2.719   5.823  15.341  1.1199 -0.0414 -1.1686
 2022TIP3   OH227480   6.228   4.522  13.960 -0.2961  0.4373 -0.4533
 2022TIP3    H127481   6.238   4.617  13.958  1.4816  0.2767 -0.4526
 2022TIP3    H227482   6.193   4.500  13.874 -0.1299  1.0372 -0.6794
 2023TIP3   OH227483   2.385   6.416   2.577  0.2783  0.2119  0.4078
 2023TIP3    H127484   2.386   6.322   2.561  2.1914  0.2894  0.0067
 2023TIP3    H227485   2.459   6.450   2.527  0.3781  1.7587  1.5794
 2024TIP3   OH227486   6.096   4.081  15.171 -0.1953 -0.4135  0.0539
 2024TIP3    H127487   6.146   4.031  15.236  1.8053 -0.5283 -1.4999
 2024TIP3    H227488   6.154   4.154  15.148 -1.4403  0.3814 -0.5992
 2025TIP3   OH227489   5.558   5.311   2.374  0.5097 -0.2796  0.4327
 2025TIP3    H127490   5.496   5.375   2.339  1.8068  1.5762  1.4283
 2025TIP3    H227491   5.641   5.332   2.332  1.1375 -0.7838  1.3998
 2026TIP3   OH227492   1.691   6.198   1.949 -0.6101 -0.0660  0.5399
 2026TIP3    H127493   1.676   6.241   1.865  0.9822  0.4827  0.5325
 2026TIP3    H227494   1.603   6.181   1.983 -1.2777 -1.0177 -1.6040
 2027TIP3   OH227495   2.896   1.630  15.200  0.3974  0.0661  0.0590
 2027TIP3    H127496   2.881   1.537  15.185  1.4102 -0.0702 -0.1123
 2027TIP3    H227497   2.985   1.646  15.170  0.1705  1.1321 -0.0788
 2028TIP3   OH227498   2.574   0.535  15.848  0.9156  0.1953  0.1049
 2028TIP3    H127499   2.598   0.463  15.906  0.9458  0.2150  0.1164
 2028TIP3    H227500   2.654   0.585  15.836  1.3531 -0.8544 -1.4248
 2029TIP3   OH227501   3.120   4.058   1.505  0.5178 -0.6515  0.0539
 2029TIP3    H127502   3.158   3.976   1.533 -1.7918 -1.3699  1.2435
 2029TIP3    H227503   3.080   4.039   1.420  0.9073 -0.4667 -0.1734
 2030TIP3   OH227504   0.432   0.985  13.673 -0.2163 -0.1488  0.2181
 2030TIP3    H127505   0.371   0.952  13.739 -1.0460 -0.2626 -0.6055
 2030TIP3    H227506   0.420   0.928  13.597  2.5865 -1.6699  0.8188
 2031TIP3   OH227507   2.450   0.032   1.925  0.0563 -0.2685 -0.9482
 2031TIP3    H127508   2.359   0.048   1.900  0.3932  0.6539 -1.6073
 2031TIP3    H227509   2.455  -0.062   1.940 -1.6440  0.0077  1.7009
 2032TIP3   OH227510   6.511   4.870   6.368 -0.3555 -0.1336  0.3290
 2032TIP3    H127511   6.539   4.961   6.381  0.5763 -0.2747 -0.5900
 2032TIP3    H227512   6.593   4.821   6.364 -0.8094 -0.8415 -0.3854
 2033TIP3   OH227513   4.805   5.175   4.141  0.1050  0.3173  0.0179
 2033TIP3    H127514   4.835   5.113   4.075 -1.1689  0.8123 -1.0319
 2033TIP3    H227515   4.881   5.188   4.198  1.8513  1.4187 -2.4899
 2034TIP3   OH227516   5.526   4.823   4.230 -0.5281 -0.0466  0.3724
 2034TIP3    H127517   5.493   4.902   4.188 -2.5124 -0.7285  0.6246
 2034TIP3    H227518   5.545   4.763   4.158 -1.0512 -0.1148  0.2904
 2035TIP3   OH227519   1.259   3.706   5.830  0.0926 -0.4625  0.2615
 2035TIP3    H127520   1.306   3.625   5.849  0.8319  0.3596  2.0388
 2035TIP3    H227521   1.317   3.755   5.772  0.0055 -0.8487 -0.1504
 2036TIP3   OH227522   4.117   3.927   5.570  0.0845 -0.0289  0.0219
 2036TIP3    H127523   4.051   3.859   5.555 -0.3233  0.9095 -2.5891
 2036TIP3    H227524   4.167   3.930   5.489 -0.3683  3.2942 -0.1981
 2037TIP3   OH227525   1.428   3.789  17.031 -0.2043 -0.2455 -0.1132
 2037TIP3    H127526   1.495   3.834  16.979  0.3577 -1.3054 -0.3187
 2037TIP3    H227527   1.346   3.806  16.983  0.1539 -0.3316 -0.7721
 2038TIP3   OH227528   3.593   1.238  11.922  0.1517 -0.2973 -0.5451
 2038TIP3    H127529   3.607   1.144  11.925 -0.0682 -0.3186 -0.1602
 2038TIP3    H227530   3.512   1.252  11.970 -0.6413 -0.0806 -1.9025
 2039TIP3   OH227531   6.673   2.766  13.080  0.6015 -0.3287 -0.5951
 2039TIP3    H127532   6.633   2.852  13.094  0.5517 -0.5396  0.6360
 2039TIP3    H227533   6.749   2.765  13.138  0.8098 -0.9820 -0.8709
 2040TIP3   OH227534   6.269   5.414   0.361 -0.3841 -0.7333  0.5120
 2040TIP3    H127535   6.308   5.391   0.277 -1.0199  0.5734 -0.1685
 2040TIP3    H227536   6.223   5.335   0.389 -2.6657 -0.3265 -1.8329
 2041TIP3   OH227537   4.948   4.677   5.678  0.5368 -0.4098  0.3581
 2041TIP3    H127538   5.035   4.637   5.682  0.1421 -1.3121 -0.0476
 2041TIP3    H227539   4.942   4.728   5.760  0.8907 -1.4903  1.0692
 2042TIP3   OH227540   0.005   2.587   0.027 -0.3624 -0.0963  0.8754
 2042TIP3    H127541   0.032   2.599  -0.064  0.6527 -0.6414  1.0995
 2042TIP3    H227542  -0.088   2.612   0.027 -0.6958 -1.2203 -0.5516
 2043TIP3   OH227543   3.653   5.698  17.035 -0.0998 -0.2968  0.2983
 2043TIP3    H127544   3.682   5.642  17.107 -0.0083 -1.6022 -0.7085
 2043TIP3    H227545   3.564   5.669  17.016 -0.5499  0.8438  0.6526
 2044TIP3   OH227546   4.998   6.495  16.286  0.3459 -0.7148  0.2390
 2044TIP3    H127547   5.092   6.513  16.289  0.3913 -0.8674 -0.2605
 2044TIP3    H227548   4.992   6.407  16.248 -0.1481  0.5276 -2.6953
 2045TIP3   OH227549   5.260   4.993  14.268  0.1234 -0.2334  0.3174
 2045TIP3    H127550   5.350   5.025  14.268  0.0663  0.0011  1.7830
 2045TIP3    H227551   5.244   4.969  14.360 -1.0548 -0.9651 -0.0714
 2046TIP3   OH227552   4.378   3.911  16.029 -0.0219 -0.1391 -0.7051
 2046TIP3    H127553   4.388   3.893  16.122  0.3980 -0.9711 -0.8960
 2046TIP3    H227554   4.327   3.836  15.996  0.0383  0.0287 -1.1814
 2047TIP3   OH227555   3.783   6.085  15.942  0.1079 -0.6423  0.9532
 2047TIP3    H127556   3.720   6.154  15.962 -0.1641  0.1463 -2.3851
 2047TIP3    H227557   3.785   6.031  16.021 -1.7422  1.5883  2.5983
 2048TIP3   OH227558   3.366   6.722  10.245  0.3759 -0.2198  0.4011
 2048TIP3    H127559   3.381   6.719  10.339 -0.4458 -1.2133  0.4980
 2048TIP3    H227560   3.385   6.634  10.214 -0.4160 -0.1826 -0.2030
 2049TIP3   OH227561   0.854   4.406   5.103 -0.1662 -0.2586  0.0024
 2049TIP3    H127562   0.773   4.355   5.113 -1.1041  1.2790  0.4382
 2049TIP3    H227563   0.895   4.402   5.189  0.2001 -0.9973 -0.2042
 2050TIP3   OH227564   0.397   5.767  16.307 -0.2100 -0.1937 -0.3379
 2050TIP3    H127565   0.483   5.762  16.350  0.8591 -1.1817 -2.5518
 2050TIP3    H227566   0.372   5.859  16.315  0.0244 -0.2909  2.1998
 2051TIP3   OH227567   0.190   6.526  13.618  0.0180  0.0692  0.4925
 2051TIP3    H127568   0.139   6.454  13.655  0.9292 -0.0252  1.6220
 2051TIP3    H227569   0.204   6.501  13.526 -0.7576 -0.5689  0.5439
 2052TIP3   OH227570   3.498   6.497   5.093 -0.0090 -0.0977 -0.1019
 2052TIP3    H127571   3.545   6.414   5.086 -0.5933 -0.4125 -0.3560
 2052TIP3    H227572   3.406   6.471   5.098 -0.0934  0.4624  1.3129
 2053TIP3   OH227573   1.325   1.027   6.314  0.1053  0.0624  1.2247
 2053TIP3    H127574   1.352   1.031   6.405  1.8182 -1.8453  0.8377
 2053TIP3    H227575   1.383   1.088   6.269 -2.6465  3.2469  1.7659
 2054TIP3   OH227576   3.572   4.581  12.800 -0.3313  0.2100 -0.5456
 2054TIP3    H127577   3.530   4.538  12.875  0.1949  1.0472  0.2254
 2054TIP3    H227578   3.661   4.546  12.799 -0.6752 -0.6865 -1.4920
 2055TIP3   OH227579   0.314   6.294  16.650  0.2557  0.1930 -0.0703
 2055TIP3    H127580   0.267   6.241  16.587 -1.0401  0.9115  0.2670
 2055TIP3    H227581   0.375   6.234  16.692 -1.4661 -1.1266  0.5851
 2056TIP3   OH227582   6.094   1.901   4.817  0.1246 -0.0705  0.1655
 2056TIP3    H127583   6.032   1.971   4.835  1.0696  0.8795 -0.2126
 2056TIP3    H227584   6.041   1.821   4.814 -0.7617  0.4269  1.9828
 2057TIP3   OH227585   5.293   2.973  15.911 -0.0850 -0.2900  0.1180
 2057TIP3    H127586   5.372   3.026  15.902  0.3862 -0.7675  1.4390
 2057TIP3    H227587   5.249   2.982  15.826  1.5558 -0.3209 -0.7541
 2058TIP3   OH227588   6.291   4.704   2.341 -0.0880  0.2731 -0.5051
 2058TIP3    H127589   6.384   4.699   2.359 -0.3695  1.0629  1.2711
 2058TIP3    H227590   6.253   4.632   2.391 -0.4639  0.1234 -1.0001
 2059TIP3   OH227591   5.052   0.391   5.253 -0.2087  0.6048 -0.5146
 2059TIP3    H127592   5.072   0.388   5.347  0.9620  0.1039 -0.7683
 2059TIP3    H227593   5.085   0.475   5.224  2.6098 -0.6567 -1.1451
 2060TIP3   OH227594   0.910   2.441   3.466  0.0259 -0.0882  0.1201
 2060TIP3    H127595   0.876   2.452   3.555 -0.7420 -1.4756  0.0152
 2060TIP3    H227596   0.992   2.491   3.465  0.9296 -1.4852  2.1245
 2061TIP3   OH227597   2.657   6.732   3.005  0.0113 -0.4658  0.2523
 2061TIP3    H127598   2.651   6.739   2.910 -1.4573  0.4386  0.4025
 2061TIP3    H227599   2.571   6.701   3.032  0.0841  0.3041  1.3903
 2062TIP3   OH227600   0.176   0.858  12.549  0.6524 -0.1950 -0.2500
 2062TIP3    H127601   0.176   0.792  12.618 -0.0646 -0.1981 -0.2500
 2062TIP3    H227602   0.108   0.830  12.488 -1.7308  2.0300  1.2191
 2063TIP3   OH227603   5.900   1.434   3.947  0.0260  0.1837  0.1222
 2063TIP3    H127604   5.970   1.378   3.914 -1.6463 -1.1037 -1.3275
 2063TIP3    H227605   5.860   1.471   3.868  1.4269  3.8939  1.0485
 2064TIP3   OH227606   0.604   6.751   1.783  0.9754 -0.0143 -0.0789
 2064TIP3    H127607   0.642   6.706   1.708  2.0449 -0.8699  0.9568
 2064TIP3    H227608   0.586   6.682   1.846 -1.1777  0.5390 -0.0478
 2065TIP3   OH227609   0.455   2.607  11.468  0.6962 -0.5676  0.0430
 2065TIP3    H127610   0.448   2.543  11.539 -0.7139 -0.4776 -0.0053
 2065TIP3    H227611   0.510   2.563  11.403  1.7996 -0.7433  1.0754
 2066TIP3   OH227612   5.009   3.511   1.708 -0.4033  0.2827 -0.1391
 2066TIP3    H127613   4.929   3.504   1.759  0.1187 -2.1347  0.3679
 2066TIP3    H227614   5.072   3.455   1.753  1.9485  3.0208  0.1253
 2067TIP3   OH227615   6.714   1.392   1.226  0.1723  0.2800  0.5114
 2067TIP3    H127616   6.658   1.415   1.300  0.0648  0.2359  0.4433
 2067TIP3    H227617   6.717   1.297   1.226  1.3570  0.3066  1.3429
 2068TIP3   OH227618   3.584   0.086  14.143  0.2671  0.3290 -0.2028
 2068TIP3    H127619   3.619   0.091  14.054 -2.4343  0.6923 -1.2899
 2068TIP3    H227620   3.569   0.177  14.167  0.5009  0.1972  0.4523
 2069TIP3   OH227621   1.508   2.662  14.239  0.3557  0.4184 -0.5073
 2069TIP3    H127622   1.590   2.629  14.202  0.6315  0.3785  0.1335
 2069TIP3    H227623   1.531   2.691  14.327 -0.4024 -0.0010 -0.1598
 2070TIP3   OH227624   0.510   2.847   3.502  0.5635 -0.2313  0.0550
 2070TIP3    H127625   0.443   2.895   3.454  1.1936 -0.5190 -1.1404
 2070TIP3    H227626   0.496   2.755   3.477 -0.0570 -0.5625  1.6057
 2071TIP3   OH227627   4.162   5.965   5.111  0.3204 -0.3827  0.4024
 2071TIP3    H127628   4.205   5.990   5.029 -0.3565  0.3568  0.2673
 2071TIP3    H227629   4.094   6.031   5.123 -2.2612 -2.8080 -0.5122
 2072TIP3   OH227630   4.374   0.052   2.348  0.2524 -0.0818  0.0913
 2072TIP3    H127631   4.379   0.129   2.406 -1.3920 -0.6891  1.0718
 2072TIP3    H227632   4.451   0.000   2.371  0.3225  0.3293  0.8036
 2073TIP3   OH227633   1.507   1.908   5.006  0.0706  0.0473  0.1683
 2073TIP3    H127634   1.544   1.820   5.020 -0.7580 -0.2166  0.8055
 2073TIP3    H227635   1.446   1.896   4.934 -0.1174  0.0706  0.3221
 2074TIP3   OH227636   5.465   5.392  17.032 -0.1348 -0.8341 -0.1020
 2074TIP3    H127637   5.544   5.440  17.058 -1.3360  0.5135  1.1410
 2074TIP3    H227638   5.410   5.393  17.110 -0.6628 -3.3233 -0.3874
 2075TIP3   OH227639   3.096   3.326   3.534  0.1860 -0.4956  0.0424
 2075TIP3    H127640   3.077   3.268   3.608 -0.3735  0.2456  0.4931
 2075TIP3    H227641   3.068   3.412   3.564 -0.9269 -0.3467 -1.3874
 2076TIP3   OH227642   1.333   2.903   1.637  0.4245 -0.1621  0.0752
 2076TIP3    H127643   1.270   2.877   1.704 -2.3380 -0.0867 -2.4083
 2076TIP3    H227644   1.392   2.964   1.682 -1.4742  0.0436  2.3880
 2077TIP3   OH227645   3.099   1.408  14.656 -0.0026 -0.1852 -0.6390
 2077TIP3    H127646   3.082   1.403  14.750 -1.8017  1.1555 -0.8675
 2077TIP3    H227647   3.104   1.502  14.638  1.7038 -0.4540 -1.6647
 2078TIP3   OH227648   5.013   4.085   4.921 -0.0596 -0.4272 -0.1687
 2078TIP3    H127649   4.966   4.121   4.996 -1.3898  0.0205 -1.1973
 2078TIP3    H227650   4.954   4.019   4.886  0.1306  0.0422 -1.3951
 2079TIP3   OH227651   1.337   3.682  14.879  0.3465 -0.0682 -0.1902
 2079TIP3    H127652   1.291   3.760  14.910 -0.2260 -0.5377  0.1531
 2079TIP3    H227653   1.298   3.610  14.928  1.4984 -0.4717  0.1428
 2080TIP3   OH227654   6.045   4.972   2.934 -0.6158  0.2237 -0.1151
 2080TIP3    H127655   6.079   4.883   2.949 -0.3693  0.2637 -0.4370
 2080TIP3    H227656   6.092   5.003   2.857 -1.5367  0.2102 -0.6848
 2081TIP3   OH227657   3.086   0.284  13.573 -0.0471 -0.1513 -0.8078
 2081TIP3    H127658   3.096   0.371  13.534  2.4710 -0.8192 -1.7746
 2081TIP3    H227659   3.036   0.299  13.653 -0.1030  2.0987 -1.2363
 2082TIP3   OH227660   0.376   3.623  15.201  0.1211 -0.1367  0.3637
 2082TIP3    H127661   0.457   3.620  15.252  1.5655  0.8402 -1.7948
 2082TIP3    H227662   0.337   3.707  15.225  0.3499 -0.0658  0.4941
 2083TIP3   OH227663   2.354   5.720   1.043 -0.5493 -0.5187 -0.1313
 2083TIP3    H127664   2.398   5.671   0.973 -0.8512 -0.9602 -0.0093
 2083TIP3    H227665   2.420   5.784   1.071 -0.3426 -0.4931 -0.6573
 2084TIP3   OH227666   5.352   4.000  14.344  0.2748  0.6076  0.1157
 2084TIP3    H127667   5.435   4.015  14.390  0.5063  1.1315 -0.4683
 2084TIP3    H227668   5.289   3.980  14.414  0.3586  2.5504  0.7748
 2085TIP3   OH227669   4.143   2.110  14.703  0.5532 -0.6323 -0.0441
 2085TIP3    H127670   4.168   2.126  14.794  2.9331 -1.9011 -0.4429
 2085TIP3    H227671   4.153   2.195  14.660  1.6861 -0.5219  0.4071
 2086TIP3   OH227672   5.136   4.671  16.895  0.0779 -0.3296 -0.2406
 2086TIP3    H127673   5.139   4.750  16.841  0.4564  0.2833  0.6619
 2086TIP3    H227674   5.046   4.641  16.889 -0.7265  1.6109  1.4330
 2087TIP3   OH227675   6.322   6.081   4.477  0.1159 -0.7771 -0.4187
 2087TIP3    H127676   6.239   6.034   4.487 -0.2851  0.3547  1.7634
 2087TIP3    H227677   6.304   6.148   4.412 -1.2459  0.6522  1.3734
 2088TIP3   OH227678   6.169   2.966  16.914  0.5033  0.3066 -0.5269
 2088TIP3    H127679   6.237   2.907  16.881 -0.0377  0.5937 -2.1574
 2088TIP3    H227680   6.093   2.911  16.927  0.7394  0.1765  0.3646
 2089TIP3   OH227681   4.183   5.761   5.286 -0.1468  0.4539 -0.0780
 2089TIP3    H127682   4.221   5.683   5.245  1.4479  1.0822  0.1462
 2089TIP3    H227683   4.186   5.828   5.218  0.7447  0.9704  0.4518
 2090TIP3   OH227684   3.809   3.427  14.415 -0.0151  0.2311  0.0770
 2090TIP3    H127685   3.722   3.405  14.448  0.1583 -0.3095  0.1890
 2090TIP3    H227686   3.839   3.499  14.471 -0.1873  0.0852  0.3574
 2091TIP3   OH227687   5.865   3.986  14.171  0.0533  0.8032  0.3752
 2091TIP3    H127688   5.941   3.932  14.149 -1.6936 -1.0596 -1.3802
 2091TIP3    H227689   5.795   3.953  14.114 -1.1650  4.8624 -0.6372
 2092TIP3   OH227690   1.551   6.729  14.280 -0.2725 -0.0862  0.3772
 2092TIP3    H127691   1.505   6.676  14.215 -0.3605 -0.9386  1.1315
 2092TIP3    H227692   1.643   6.718  14.258 -0.4074  1.9342 -1.3787
 2093TIP3   OH227693   3.145   0.788   5.359 -0.5531 -0.7055 -0.0658
 2093TIP3    H127694   3.118   0.703   5.325  0.1140 -1.9607  2.4070
 2093TIP3    H227695   3.239   0.792   5.343 -0.7114 -0.1046 -0.8558
 2094TIP3   OH227696   2.100   0.707   2.097 -0.2464  0.0888 -0.3158
 2094TIP3    H127697   2.187   0.723   2.132 -0.4333 -1.0399  0.7187
 2094TIP3    H227698   2.106   0.732   2.005  0.2960  2.9758  0.4583
 2095TIP3   OH227699   0.067   1.272   4.527 -0.5356  0.0289 -0.1456
 2095TIP3    H127700   0.133   1.339   4.513 -0.8609  0.7352  1.6201
 2095TIP3    H227701  -0.016   1.318   4.516 -0.7630 -0.6565 -1.4515
 2096TIP3   OH227702   1.925   3.455  12.891 -0.4853  0.0085  0.5137
 2096TIP3    H127703   1.931   3.516  12.965 -0.2289  1.1179 -0.4255
 2096TIP3    H227704   1.974   3.378  12.921 -1.6600 -0.1498  2.0891
 2097TIP3   OH227705   6.600   6.259   4.996 -0.1549 -0.2634  0.3069
 2097TIP3    H127706   6.624   6.170   4.971 -2.1100 -0.7366  0.0639
 2097TIP3    H227707   6.514   6.273   4.958 -0.7744  0.9837  2.0799
 2098TIP3   OH227708   0.926   0.029   2.839 -0.0363  0.3710 -0.0852
 2098TIP3    H127709   0.909  -0.065   2.830  1.5168 -0.0503  1.1772
 2098TIP3    H227710   0.840   0.070   2.828 -1.0668 -1.3478  1.2845
 2099TIP3   OH227711   5.417   2.242   5.785 -0.1803  0.6114  0.0773
 2099TIP3    H127712   5.489   2.230   5.848  0.3030  1.0639 -0.3899
 2099TIP3    H227713   5.446   2.313   5.728  0.0264 -0.7838 -1.6016
 2100TIP3   OH227714   6.465   1.413   2.194  0.0533  0.2202 -0.3254
 2100TIP3    H127715   6.502   1.349   2.132  2.0551  2.3489 -1.4041
 2100TIP3    H227716   6.526   1.414   2.267 -0.5035  0.1914  0.1449
 2101TIP3   OH227717   0.771   0.331  13.714 -0.8593 -0.1905 -0.2708
 2101TIP3    H127718   0.797   0.253  13.762  1.4380  1.1199  0.6819
 2101TIP3    H227719   0.744   0.393  13.782 -1.3975  0.3169 -0.9358
 2102TIP3   OH227720   0.769   0.085   4.409  0.5603  0.2737  0.1179
 2102TIP3    H127721   0.736   0.157   4.356  1.7882 -0.1451 -1.2553
 2102TIP3    H227722   0.835   0.125   4.466  0.3215  0.4627  0.2602
 2103TIP3   OH227723   1.356   5.362   0.773 -0.2211 -0.6539  0.6613
 2103TIP3    H127724   1.429   5.424   0.780 -0.9249  0.3995 -0.9883
 2103TIP3    H227725   1.314   5.365   0.859 -0.1625  1.0835  0.6467
 2104TIP3   OH227726   0.156   3.074   5.340 -0.2805 -0.1650 -0.3666
 2104TIP3    H127727   0.192   3.024   5.413  0.5356  0.7184 -0.1492
 2104TIP3    H227728   0.229   3.127   5.309 -0.5467 -0.7361 -2.0147
 2105TIP3   OH227729   1.554   4.688   3.779 -0.1653  0.4459  0.1894
 2105TIP3    H127730   1.600   4.762   3.819 -1.1903  1.0362  0.2983
 2105TIP3    H227731   1.621   4.620   3.771  0.7988  1.3857  0.0725
 2106TIP3   OH227732   3.638   5.484  17.230 -0.1721 -0.1334  0.4202
 2106TIP3    H127733   3.583   5.431  17.288 -0.6477  0.5142  0.5634
 2106TIP3    H227734   3.721   5.437  17.226 -0.7232 -1.1173  0.2206
 2107TIP3   OH227735   0.308   2.459   6.126 -0.2324  0.1096 -0.0049
 2107TIP3    H127736   0.311   2.369   6.160 -1.1478  0.0942  0.0512
 2107TIP3    H227737   0.355   2.510   6.192  0.3357 -0.3308 -0.0592
 2108TIP3   OH227738   0.268   3.991   2.074  0.3434 -0.4501  0.0380
 2108TIP3    H127739   0.304   4.023   1.991 -0.3270  1.2794  0.3918
 2108TIP3    H227740   0.187   4.041   2.086  1.2588  0.4759  2.5246
 2109TIP3   OH227741   0.492   4.870   5.019  0.1834  0.4864 -0.4325
 2109TIP3    H127742   0.468   4.892   5.109 -1.1244  2.2573 -1.1716
 2109TIP3    H227743   0.478   4.776   5.013  0.5479  0.2959  1.2850
 2110TIP3   OH227744   0.592   2.871  17.149  0.0275 -0.2420 -0.2142
 2110TIP3    H127745   0.596   2.812  17.224 -0.2582  0.3753  0.2886
 2110TIP3    H227746   0.673   2.855  17.101  0.5910 -0.0276  0.6785
 2111TIP3   OH227747   4.563   3.747   1.904 -0.0743  0.0561  0.0284
 2111TIP3    H127748   4.609   3.768   1.985  0.1196  2.9693 -0.7581
 2111TIP3    H227749   4.631   3.745   1.837 -0.3247 -1.5820 -0.1818
 2112TIP3   OH227750   5.179   6.774   0.076  0.2078 -0.6041 -0.2785
 2112TIP3    H127751   5.089   6.744   0.064  0.2189 -0.7635  0.0324
 2112TIP3    H227752   5.225   6.743  -0.001 -0.3954  0.9956 -1.2951
 2113TIP3   OH227753   4.120   0.870   5.769  0.1356  0.9828 -0.0758
 2113TIP3    H127754   4.056   0.901   5.832 -0.0964  1.0600 -0.3454
 2113TIP3    H227755   4.176   0.810   5.818 -0.1153  0.9495  0.1703
 2114TIP3   OH227756   4.104   4.419   4.825  0.3759 -0.0645 -0.3897
 2114TIP3    H127757   4.142   4.336   4.852  0.4378 -0.2632 -1.0703
 2114TIP3    H227758   4.022   4.395   4.782 -1.4329  0.4699  2.5825
 2115TIP3   OH227759   6.220   5.999  14.945  0.0537  0.2935 -0.2009
 2115TIP3    H127760   6.184   6.086  14.926 -1.6063 -0.4380 -0.5113
 2115TIP3    H227761   6.197   5.983  15.036  0.6561  0.3163 -0.0459
 2116TIP3   OH227762   2.397   3.742  13.779 -0.1271 -0.2091  0.4318
 2116TIP3    H127763   2.480   3.769  13.739 -0.0009  0.9232  1.4408
 2116TIP3    H227764   2.388   3.649  13.755 -0.1702  0.4913 -2.4046
 2117TIP3   OH227765   0.255   6.539  15.995  0.2214 -0.3215  0.9985
 2117TIP3    H127766   0.182   6.598  16.013 -0.4241 -1.3700  1.8877
 2117TIP3    H227767   0.218   6.470  15.940  0.9022 -0.0443  0.1929
 2118TIP3   OH227768   6.665   5.066   2.163 -0.1877  0.0741 -0.0842
 2118TIP3    H127769   6.697   5.068   2.073  0.5054  1.1848  0.1705
 2118TIP3    H227770   6.585   5.119   2.161 -0.7142 -0.7285 -0.2463
 2119TIP3   OH227771   1.066   6.091   3.593  0.0705 -0.0145 -0.0113
 2119TIP3    H127772   1.093   6.036   3.666 -1.0061 -0.6943 -0.1282
 2119TIP3    H227773   1.079   6.037   3.515 -0.2499  0.1741 -0.1978
 2120TIP3   OH227774   1.685   6.715  15.871  0.3663  0.3111 -0.2963
 2120TIP3    H127775   1.669   6.808  15.891 -0.3172  0.7016 -2.5012
 2120TIP3    H227776   1.636   6.667  15.937  0.0099  1.5369  0.3371
 2121TIP3   OH227777   1.172   5.786  11.495 -0.3038  0.5368 -0.2055
 2121TIP3    H127778   1.182   5.873  11.456 -1.7985  0.1788 -1.4127
 2121TIP3    H227779   1.237   5.732  11.451 -2.6497 -0.1157 -3.0405
 2122TIP3   OH227780   2.408   3.085   3.245 -1.0343  0.5655  0.1320
 2122TIP3    H127781   2.352   3.161   3.233 -1.4097  0.3683  0.6545
 2122TIP3    H227782   2.396   3.059   3.336 -1.5800 -0.6416 -0.2616
 2123TIP3   OH227783   1.931   1.846  16.919 -0.1915  0.6697  0.4128
 2123TIP3    H127784   1.848   1.848  16.872  0.3924 -0.9127 -0.6930
 2123TIP3    H227785   1.937   1.758  16.954  0.7345  0.9732  1.0372
 2124TIP3   OH227786   4.992   6.584  17.173 -0.5247  0.5690 -0.1143
 2124TIP3    H127787   5.017   6.492  17.176  0.3318  0.8221  0.4933
 2124TIP3    H227788   4.897   6.582  17.157 -0.7948 -0.4471  1.4749
 2125TIP3   OH227789   4.601   0.813  14.786  0.1809 -0.3724  0.1668
 2125TIP3    H127790   4.564   0.897  14.759  0.2127  0.1202  1.6286
 2125TIP3    H227791   4.548   0.786  14.861  0.2393 -1.6131 -0.2225
 2126TIP3   OH227792   2.640   1.884   4.868 -0.4781 -0.2958  0.2154
 2126TIP3    H127793   2.688   1.958   4.906 -1.5573  0.5409 -0.0347
 2126TIP3    H227794   2.629   1.822   4.940  0.7706 -0.3957  0.3324
 2127TIP3   OH227795   0.980   1.168   1.023 -0.9630 -0.0161  0.0032
 2127TIP3    H127796   1.067   1.178   0.985 -1.3479  2.2828 -0.3345
 2127TIP3    H227797   0.985   1.085   1.070  1.1663 -0.3099 -0.6468
 2128TIP3   OH227798   1.925   3.809   6.008  0.0206  0.0709  0.4417
 2128TIP3    H127799   1.993   3.809   6.075 -0.5483  0.0076  1.0247
 2128TIP3    H227800   1.896   3.718   6.003  0.0016  0.0901  0.1697
 2129TIP3   OH227801   6.110   2.851  11.059  0.1329  0.2168 -0.2987
 2129TIP3    H127802   6.156   2.771  11.033  1.7923  1.4011 -1.0866
 2129TIP3    H227803   6.162   2.886  11.132 -1.4147 -0.1720  1.0373
 2130TIP3   OH227804   0.432   5.210   5.145  0.1108 -0.3731  0.1662
 2130TIP3    H127805   0.339   5.231   5.142 -0.1839 -1.7506 -1.5808
 2130TIP3    H227806   0.442   5.156   5.224 -0.2232  1.2309  1.3246
 2131TIP3   OH227807   0.012   5.317  11.723  0.5027  0.5432  0.8498
 2131TIP3    H127808   0.032   5.392  11.779 -0.0704  0.6484  0.9207
 2131TIP3    H227809  -0.004   5.245  11.784  1.6476  0.2137  0.7628
 2132TIP3   OH227810   1.970   1.820   1.563  0.2721 -0.0031  0.3858
 2132TIP3    H127811   1.915   1.893   1.537 -1.2670 -1.1302  0.3449
 2132TIP3    H227812   1.910   1.760   1.608  0.9752 -2.3377 -1.6523
 2133TIP3   OH227813   3.207   5.420  15.198  1.0555  0.2269  0.1256
 2133TIP3    H127814   3.211   5.449  15.107  0.5474  0.7672  0.2765
 2133TIP3    H227815   3.141   5.352  15.199  1.7776 -0.4839 -0.0989
 2134TIP3   OH227816   6.527   4.848   2.223 -0.3452 -0.2700  0.0278
 2134TIP3    H127817   6.459   4.845   2.156 -1.0479  0.0974  0.7179
 2134TIP3    H227818   6.563   4.937   2.217 -0.0152 -0.4233 -0.2525
 2135TIP3   OH227819   4.303   6.395  14.103  0.2204  0.4435  0.0044
 2135TIP3    H127820   4.286   6.421  14.013  0.6596  0.8822  0.0436
 2135TIP3    H227821   4.394   6.422  14.119  0.1802  0.2650  0.5386
 2136TIP3   OH227822   6.730   2.177  17.162  0.6342 -0.3659 -0.1500
 2136TIP3    H127823   6.760   2.236  17.093  0.4505 -0.0136  0.0758
 2136TIP3    H227824   6.770   2.093  17.139 -0.6759 -0.6354 -1.5748
 2137TIP3   OH227825   1.765   1.573   5.320 -0.7381 -0.0809  0.4843
 2137TIP3    H127826   1.855   1.573   5.353 -0.7745 -0.1076  0.5850
 2137TIP3    H227827   1.751   1.662   5.289 -0.0158 -0.5913 -1.3654
 2138TIP3   OH227828   5.499   5.735   0.947  0.9434 -0.7191 -0.2940
 2138TIP3    H127829   5.411   5.718   0.980  1.2623 -2.0176 -0.1135
 2138TIP3    H227830   5.485   5.790   0.870  0.0333 -0.1121  0.2916
 2139TIP3   OH227831   3.478   1.296  11.049  0.5087  0.6799 -0.4404
 2139TIP3    H127832   3.546   1.230  11.034 -0.6436 -0.3465 -1.2546
 2139TIP3    H227833   3.396   1.246  11.048 -0.1102  1.4979  2.9441
 2140TIP3   OH227834   6.494   5.493  17.050  0.5253 -0.0430  0.3716
 2140TIP3    H127835   6.492   5.555  16.978 -0.0758  0.0461  0.4609
 2140TIP3    H227836   6.585   5.491  17.078  0.7665 -0.0847 -0.3923
 2141TIP3   OH227837   4.555   6.677   1.207  0.3098  0.4700  0.5297
 2141TIP3    H127838   4.460   6.674   1.206  0.3570 -1.3517  0.0254
 2141TIP3    H227839   4.581   6.620   1.279  1.0327  0.3908  0.2169
 2142TIP3   OH227840   5.760   3.866  10.497 -0.4423  0.1959 -0.1951
 2142TIP3    H127841   5.781   3.800  10.563  1.3023  2.1266  1.2565
 2142TIP3    H227842   5.842   3.883  10.452 -1.2632  0.0954 -1.7727
 2143TIP3   OH227843   0.209   1.671  13.150 -0.3074  0.5530  0.4071
 2143TIP3    H127844   0.228   1.592  13.100 -1.7856 -0.6881  1.7281
 2143TIP3    H227845   0.235   1.743  13.093 -0.0202 -0.8588 -1.2909
 2144TIP3   OH227846   6.592   1.443  12.050  0.3149  0.3635  0.0162
 2144TIP3    H127847   6.583   1.407  12.138 -1.2643  1.5378  0.3368
 2144TIP3    H227848   6.584   1.367  11.992 -2.2663  0.0643  0.7183
 2145TIP3   OH227849   0.394   6.402   0.724 -0.2331  0.0266  0.0676
 2145TIP3    H127850   0.309   6.438   0.749 -0.1091  0.3221  0.0689
 2145TIP3    H227851   0.398   6.413   0.629  0.3459  1.2288  0.2078
 2146TIP3   OH227852   2.585   4.531  10.700 -0.1595  0.1151  0.1631
 2146TIP3    H127853   2.615   4.441  10.708 -0.1009 -0.0233 -1.3326
 2146TIP3    H227854   2.665   4.582  10.688 -0.0894  0.5591  2.4573
 2147TIP3   OH227855   3.235   0.054   4.069 -0.2726 -0.9903  0.2287
 2147TIP3    H127856   3.305   0.013   4.019  0.5489  0.1102  0.4724
 2147TIP3    H227857   3.258   0.147   4.072 -4.0014  0.2086 -3.5162
 2148TIP3   OH227858   3.088   3.203   3.815 -0.0297  0.1309  0.2266
 2148TIP3    H127859   3.000   3.177   3.840  0.1534 -0.8258 -0.1165
 2148TIP3    H227860   3.138   3.121   3.812  1.3505  0.8418  2.3388
 2149TIP3   OH227861   3.334   0.394  14.738 -0.2169 -0.0410 -0.3066
 2149TIP3    H127862   3.391   0.471  14.743 -1.8290  1.0319  3.4027
 2149TIP3    H227863   3.387   0.328  14.694  1.8560  2.6124 -1.9738
 2150TIP3   OH227864   4.990   3.062   6.447  0.4375  0.5677 -0.4745
 2150TIP3    H127865   4.913   3.033   6.496  0.5389  1.5863  0.2944
 2150TIP3    H227866   5.056   2.995   6.465 -0.6141 -0.9505 -2.1026
 2151TIP3   OH227867   0.030   4.486   2.263 -0.0986  0.3132  0.1836
 2151TIP3    H127868   0.046   4.440   2.181  0.0217 -1.7426  1.3365
 2151TIP3    H227869  -0.065   4.495   2.267 -0.1217  0.1668 -0.0373
 2152TIP3   OH227870   2.249   2.799  14.851  0.3037 -0.7023  0.7038
 2152TIP3    H127871   2.165   2.802  14.807  1.3107 -2.6563 -1.4675
 2152TIP3    H227872   2.236   2.737  14.923 -0.4911  0.1072  1.2650
 2153TIP3   OH227873   4.235   5.433   0.648  0.3794 -0.1104  1.4477
 2153TIP3    H127874   4.274   5.508   0.603 -0.3400 -0.7805 -0.3683
 2153TIP3    H227875   4.285   5.424   0.728  2.0010  0.8617  0.5706
 2154TIP3   OH227876   0.159   3.583  11.406 -0.7395  0.2549 -0.1632
 2154TIP3    H127877   0.162   3.488  11.416 -1.4133  0.1442 -0.9873
 2154TIP3    H227878   0.114   3.597  11.323  0.1247  1.2768 -0.4754
 2155TIP3   OH227879   0.904   1.897  11.738  0.3713  0.4424 -0.2647
 2155TIP3    H127880   0.886   1.838  11.665  0.5830 -1.8455  1.4732
 2155TIP3    H227881   0.999   1.893  11.750  0.3836  1.0969 -0.0847
 2156TIP3   OH227882   0.978   0.772  14.669 -0.1593 -0.5642 -0.1468
 2156TIP3    H127883   0.923   0.777  14.590  1.5032  0.6613 -1.2696
 2156TIP3    H227884   0.956   0.850  14.718 -1.1554 -1.3016  0.6150
 2157TIP3   OH227885   1.939   1.999   5.395 -0.1226 -0.1177  0.1128
 2157TIP3    H127886   1.952   2.084   5.437  0.7532 -0.2532  0.1152
 2157TIP3    H227887   1.878   2.016   5.324 -2.2281 -0.0121  1.8841
 2158TIP3   OH227888   2.529   4.322   0.706  0.4984  0.3472 -0.5761
 2158TIP3    H127889   2.601   4.308   0.767  0.0027  1.8371  0.3912
 2158TIP3    H227890   2.519   4.239   0.660  0.1502 -1.1669  2.1702
 2159TIP3   OH227891   0.266   2.979  12.793 -0.3607  0.0180 -0.3106
 2159TIP3    H127892   0.179   2.998  12.759 -0.2289  0.8874 -0.1867
 2159TIP3    H227893   0.320   2.968  12.715 -0.9800 -2.5423 -0.4128
 2160TIP3   OH227894   1.380   6.031   0.033  0.2053  0.2001  0.1120
 2160TIP3    H127895   1.288   6.016   0.054 -0.7819  0.8165 -3.4299
 2160TIP3    H227896   1.416   5.943   0.018 -0.3002  0.0637 -0.3296
 2161TIP3   OH227897   2.244   5.791  16.712  0.0599 -0.7297 -0.6801
 2161TIP3    H127898   2.211   5.705  16.738 -2.1979  0.0946 -0.7007
 2161TIP3    H227899   2.221   5.798  16.619 -1.2319  0.5439 -0.2781
 2162TIP3   OH227900   1.461   2.143  13.204 -0.0537 -0.5159  0.3793
 2162TIP3    H127901   1.440   2.162  13.112  1.0670 -2.0987 -0.2232
 2162TIP3    H227902   1.522   2.069  13.200 -0.1489 -0.7323  2.4132
 2163TIP3   OH227903   2.691   1.015   0.974 -0.5642  0.3193 -0.9139
 2163TIP3    H127904   2.749   1.073   0.925  0.1700  0.9473  0.6514
 2163TIP3    H227905   2.623   0.991   0.912 -0.0763  1.6984 -2.0136
 2164TIP3   OH227906   6.293   5.999   5.687 -0.1316  0.2919  0.0088
 2164TIP3    H127907   6.363   5.979   5.624 -0.6744 -0.0364 -0.4953
 2164TIP3    H227908   6.338   6.004   5.771  0.5888  0.6120 -0.3865
 2165TIP3   OH227909   5.007   2.955  13.591  0.2638  0.1436 -0.9406
 2165TIP3    H127910   5.034   2.863  13.583 -0.2070 -0.1656  0.7703
 2165TIP3    H227911   5.080   2.998  13.636 -0.0674  0.3179 -0.5645
 2166TIP3   OH227912   2.657   5.399   5.019 -0.1906 -0.3946  0.1682
 2166TIP3    H127913   2.613   5.437   5.094  2.4785 -1.9512  2.6185
 2166TIP3    H227914   2.713   5.469   4.986 -1.3310  0.2759 -0.3707
 2167TIP3   OH227915   1.383   6.270   0.698  0.8050  0.0230 -0.1756
 2167TIP3    H127916   1.354   6.342   0.755  0.4619  0.7452 -1.2302
 2167TIP3    H227917   1.403   6.313   0.615  0.4458 -1.1373 -0.8668
 2168TIP3   OH227918   5.693   5.927  16.678  0.1697 -0.1642  0.3392
 2168TIP3    H127919   5.656   5.848  16.718  0.2856 -1.2577 -1.6428
 2168TIP3    H227920   5.785   5.904  16.661  0.3433  0.5934  0.2384
 2169TIP3   OH227921   4.176   5.862  14.037  0.7907 -0.1601  0.2403
 2169TIP3    H127922   4.090   5.897  14.061  0.4903 -2.2206  2.4561
 2169TIP3    H227923   4.158   5.804  13.963  0.7409  1.5526 -1.1142
 2170TIP3   OH227924   1.464   2.072   1.650  0.5760 -0.4294 -0.4874
 2170TIP3    H127925   1.373   2.097   1.669  0.7663  0.7691 -1.1165
 2170TIP3    H227926   1.492   2.023   1.727  0.0337  0.8707  0.5532
 2171TIP3   OH227927   3.095   2.766   0.293  0.2507  0.3599  0.0204
 2171TIP3    H127928   3.070   2.858   0.293  1.5562  0.7369 -1.2477
 2171TIP3    H227929   3.154   2.757   0.368  0.6165  0.7045 -0.2247
 2172TIP3   OH227930   1.999   3.083   0.081  0.2152  0.0544 -0.2195
 2172TIP3    H127931   2.018   2.996   0.047 -2.2010 -0.2502 -0.8760
 2172TIP3    H227932   1.960   3.067   0.167  3.1854  0.6737  1.2846
 2173TIP3   OH227933   0.580   0.632  14.714  0.7479  0.1347 -0.3924
 2173TIP3    H127934   0.619   0.616  14.628  0.3923 -0.6121 -0.4184
 2173TIP3    H227935   0.654   0.633  14.775  0.9700  0.3764 -0.6663
 2174TIP3   OH227936   2.211   6.070  15.791 -0.0847 -0.3925  0.2015
 2174TIP3    H127937   2.288   6.114  15.828 -1.1018  1.6925 -0.0729
 2174TIP3    H227938   2.140   6.133  15.804 -1.4006 -1.6197 -1.0174
 2175TIP3   OH227939   4.027   1.520  13.869 -0.0728  0.3378 -0.3395
 2175TIP3    H127940   3.945   1.568  13.874 -0.1526  0.0783  1.3283
 2175TIP3    H227941   4.031   1.471  13.951  1.3889 -0.2403 -0.7328
 2176TIP3   OH227942   3.015   3.455   3.283 -0.2827  0.3087 -0.1743
 2176TIP3    H127943   2.987   3.403   3.358 -1.9581  0.7421 -0.4802
 2176TIP3    H227944   3.083   3.402   3.241 -0.1607 -0.4565  0.9828
 2177TIP3   OH227945   4.035   1.884  12.360  0.3793  0.2914 -0.5923
 2177TIP3    H127946   4.107   1.835  12.399 -0.6202 -0.5051  0.2645
 2177TIP3    H227947   3.984   1.819  12.313 -2.4707 -0.0365  2.7704
 2178TIP3   OH227948   5.981   3.739  12.581 -0.2073 -0.0024  0.0893
 2178TIP3    H127949   6.004   3.692  12.501 -0.3501 -0.5519  0.3716
 2178TIP3    H227950   6.010   3.682  12.652  1.8286  1.4185  0.4378
 2179TIP3   OH227951   1.146   1.636   3.361 -0.3634  0.0817 -0.3019
 2179TIP3    H127952   1.152   1.703   3.293  1.4867 -0.1528 -0.4055
 2179TIP3    H227953   1.115   1.558   3.316  2.4715 -0.5437 -1.2761
 2180TIP3   OH227954   2.206   5.222  16.443  0.7346 -0.1813 -0.0643
 2180TIP3    H127955   2.259   5.303  16.447 -1.6605  1.5272 -1.7771
 2180TIP3    H227956   2.225   5.186  16.357  1.4775 -1.2643  0.5422
 2181TIP3   OH227957   2.972   0.853  13.446  0.3924 -0.0814  0.5847
 2181TIP3    H127958   2.990   0.908  13.522  1.6808  0.1208  0.1354
 2181TIP3    H227959   2.915   0.907  13.390  2.4599  1.2063 -0.3213
 2182TIP3   OH227960   2.192   0.707  15.150 -0.2554 -0.2566 -0.2876
 2182TIP3    H127961   2.226   0.619  15.136 -2.0263 -0.9922 -0.0843
 2182TIP3    H227962   2.151   0.731  15.067  1.4427  0.9473 -0.7949
 2183TIP3   OH227963   1.114   4.030  12.746  0.1987 -0.1465  0.5533
 2183TIP3    H127964   1.145   4.079  12.670  0.9621 -0.5157  0.6260
 2183TIP3    H227965   1.026   4.065  12.763 -0.2712 -0.5846 -0.9354
 2184TIP3   OH227966   4.314   3.980  12.968  0.1080  0.2665  0.1630
 2184TIP3    H127967   4.408   3.979  12.949  0.0708  0.6374 -0.0550
 2184TIP3    H227968   4.292   3.889  12.986  0.6721  0.2926  1.0224
 2185TIP3   OH227969   4.491   1.996   5.291  0.5260  0.0259 -0.4357
 2185TIP3    H127970   4.510   1.975   5.383  1.8905 -0.2233 -0.7629
 2185TIP3    H227971   4.435   2.074   5.295 -1.5676 -1.4862  0.6786
 2186TIP3   OH227972   3.512   3.385  12.713  0.4547 -0.3920  0.1652
 2186TIP3    H127973   3.601   3.401  12.745  0.2250 -1.5742  1.4756
 2186TIP3    H227974   3.459   3.453  12.755  0.8158  0.6733 -1.0738
 2187TIP3   OH227975   3.844   1.768  13.275 -0.5861  0.1174 -0.6861
 2187TIP3    H127976   3.842   1.677  13.304 -0.0552  0.2316 -0.2685
 2187TIP3    H227977   3.757   1.802  13.293 -0.4228  0.0329  0.2900
 2188TIP3   OH227978   6.115   5.456  11.080 -0.2443 -0.4754 -0.1020
 2188TIP3    H127979   6.147   5.421  10.997  0.6131 -0.7574  0.3341
 2188TIP3    H227980   6.094   5.548  11.061 -0.0484 -0.5353 -0.6289
 2189TIP3   OH227981   5.446   0.090   4.988 -0.2246  0.0807 -0.3067
 2189TIP3    H127982   5.441   0.179   4.955 -1.4349  0.1206 -0.0433
 2189TIP3    H227983   5.483   0.040   4.915  1.7236  1.0175  0.0157
 2190TIP3   OH227984   5.916   4.108  12.367  0.1078 -0.5937 -0.0309
 2190TIP3    H127985   5.850   4.092  12.300 -0.4093  0.3306  0.2410
 2190TIP3    H227986   5.997   4.072  12.331 -0.3457 -0.8704 -0.7785
 2191TIP3   OH227987   5.262   4.293   6.104 -0.1429  0.3757 -0.1050
 2191TIP3    H127988   5.305   4.342   6.175  0.3986 -0.3354  0.0674
 2191TIP3    H227989   5.252   4.205   6.139 -0.8154  0.2806 -0.5353
 2192TIP3   OH227990   3.687   0.438   0.232  0.0470  0.2766  0.1141
 2192TIP3    H127991   3.611   0.399   0.190 -0.0738 -0.6707  1.2149
 2192TIP3    H227992   3.719   0.502   0.167  0.1655 -1.5092 -1.6335
 2193TIP3   OH227993   3.691   0.508  12.612  0.1517  0.3345 -0.0698
 2193TIP3    H127994   3.707   0.483  12.521 -0.6166  0.5303 -0.2627
 2193TIP3    H227995   3.617   0.455  12.639  0.6335 -0.0174  0.5792
 2194TIP3   OH227996   6.386   0.096  13.208 -0.0630  0.4747  0.3516
 2194TIP3    H127997   6.428   0.178  13.237 -0.2663  0.7127 -0.0269
 2194TIP3    H227998   6.363   0.051  13.289 -0.7537  1.2045  0.5683
 2195TIP3   OH227999   2.448   6.614   1.212  0.0388  0.2144 -0.2016
 2195TIP3    H128000   2.510   6.640   1.281 -0.0714  0.3750 -0.1620
 2195TIP3    H228001   2.370   6.584   1.259  0.3544 -0.6683 -0.2419
 2196TIP3   OH228002   6.229   2.407   4.652 -0.5627  0.0862  0.5209
 2196TIP3    H128003   6.255   2.442   4.737  0.3252  1.1029 -0.1551
 2196TIP3    H228004   6.287   2.331   4.638 -0.0575  0.4927  0.3977
 2197TIP3   OH228005   4.904   4.784  15.170 -0.1715 -0.0057  0.4776
 2197TIP3    H128006   4.968   4.811  15.235 -0.2609 -1.5724  1.2548
 2197TIP3    H228007   4.949   4.791  15.086  0.2579  1.0976  0.8028
 2198TIP3   OH228008   6.441   6.226  13.565  0.9525 -0.2785 -0.3597
 2198TIP3    H128009   6.473   6.310  13.532  0.3758 -0.2887 -0.9533
 2198TIP3    H228010   6.350   6.222  13.535  0.3125 -0.1414  1.5244
 2199TIP3   OH228011   5.805   3.076   5.795  0.2307  0.7891  0.1311
 2199TIP3    H128012   5.875   3.046   5.737  0.5055  0.4174  0.6543
 2199TIP3    H228013   5.820   3.030   5.878 -0.4602  0.9274  0.3403
 2200TIP3   OH228014   6.054   5.933   1.672  0.6693  0.0576  0.3662
 2200TIP3    H128015   6.022   5.846   1.699 -0.0319  0.5076  1.0050
 2200TIP3    H228016   6.093   5.918   1.586 -0.8894 -0.6072 -0.2540
 2201TIP3   OH228017   2.897   5.058   3.802  0.1478 -0.3141 -0.4942
 2201TIP3    H128018   2.910   5.121   3.873 -0.2888 -0.6276 -0.1326
 2201TIP3    H228019   2.885   4.974   3.847 -0.6447 -0.4312 -0.9216
 2202TIP3   OH228020   2.464   5.178   0.668  0.4304 -0.0802 -0.1410
 2202TIP3    H128021   2.526   5.228   0.615  0.2179 -0.4475 -0.7380
 2202TIP3    H228022   2.502   5.090   0.673  0.7091  0.0847  0.7474
 2203TIP3   OH228023   3.180   2.270  15.727  0.4008  0.3844 -0.5802
 2203TIP3    H128024   3.243   2.202  15.702 -0.5161 -0.4284 -0.7206
 2203TIP3    H228025   3.161   2.316  15.645 -0.7708 -0.7285 -0.9555
 2204TIP3   OH228026   6.522   2.577  12.016  0.3096 -0.0127  0.2232
 2204TIP3    H128027   6.524   2.537  12.103  2.3842 -0.6877 -0.0946
 2204TIP3    H228028   6.484   2.663  12.030  2.7689  0.8082  2.2387
 2205TIP3   OH228029   6.639   0.515  12.742 -0.5098  0.7229 -0.1313
 2205TIP3    H128030   6.623   0.464  12.662  1.1161 -0.7049  0.4294
 2205TIP3    H228031   6.665   0.450  12.807 -1.2271  1.9606  1.3987
 2206TIP3   OH228032   2.493   5.394  16.891 -0.3149  0.3025  0.3300
 2206TIP3    H128033   2.532   5.438  16.966  2.3519 -0.5223 -0.5107
 2206TIP3    H228034   2.463   5.310  16.925  0.1140  0.2719  0.6259
 2207TIP3   OH228035   4.884   5.263  13.434  0.0973 -0.4085 -0.1358
 2207TIP3    H128036   4.932   5.335  13.391  0.1966 -0.4668 -0.1232
 2207TIP3    H228037   4.792   5.279  13.412  0.0035  0.3360  0.7650
 2208TIP3   OH228038   5.164   6.782  16.816  0.0211 -0.4439 -0.6021
 2208TIP3    H128039   5.174   6.830  16.734 -2.0522  0.8243 -0.1402
 2208TIP3    H228040   5.117   6.702  16.791  1.0656 -0.9646 -0.9350
 2209TIP3   OH228041   0.913   3.565   5.780  1.1395  0.1706 -0.6092
 2209TIP3    H128042   0.929   3.658   5.797 -0.7414  0.5698 -0.9113
 2209TIP3    H228043   0.880   3.531   5.863  1.2280 -0.0793 -0.6770
 2210TIP3   OH228044   5.871   6.389  11.393 -0.0776 -0.6509  0.1306
 2210TIP3    H128045   5.861   6.297  11.417  1.0045 -0.3940  1.5957
 2210TIP3    H228046   5.938   6.423  11.452 -0.9760  1.2621  0.1124
 2211TIP3   OH228047   1.932   5.800  15.708  0.3423  0.1193  0.2862
 2211TIP3    H128048   2.010   5.778  15.758  0.6310  0.9072  0.1937
 2211TIP3    H228049   1.870   5.730  15.727  0.5668  0.2452  1.4976
 2212TIP3   OH228050   2.305   5.384   5.951  0.1215 -0.1340 -0.5157
 2212TIP3    H128051   2.266   5.468   5.975 -0.6763 -0.9843  1.2953
 2212TIP3    H228052   2.277   5.324   6.020  1.2206 -1.7431 -1.4250
 2213TIP3   OH228053   0.101   2.488   0.270  0.4770  0.4609  0.5061
 2213TIP3    H128054   0.116   2.572   0.315 -1.5443  0.3091  1.5295
 2213TIP3    H228055   0.075   2.514   0.182  2.7111  0.8084 -0.0884
 2214TIP3   OH228056   0.296   5.021   5.674 -0.4368 -0.4925 -0.1188
 2214TIP3    H128057   0.220   4.965   5.690  0.4336 -1.8983 -0.8279
 2214TIP3    H228058   0.278   5.062   5.590 -1.4636  0.9759  0.7893
 2215TIP3   OH228059   2.884   0.288   1.914  0.1441  0.2201 -0.3185
 2215TIP3    H128060   2.904   0.195   1.928  0.9402  0.1316 -1.8998
 2215TIP3    H228061   2.957   0.335   1.953  0.7142  0.0938 -1.2087
 2216TIP3   OH228062   0.642   0.467   6.321  0.4737 -0.6159  0.4550
 2216TIP3    H128063   0.560   0.495   6.362  0.5118  0.9978 -0.5342
 2216TIP3    H228064   0.706   0.471   6.392 -0.3374 -2.1912  1.3166
 2217TIP3   OH228065   6.495   5.558  12.084 -0.1649  0.0187  0.2365
 2217TIP3    H128066   6.548   5.620  12.033  0.6183 -0.4303  0.5005
 2217TIP3    H228067   6.414   5.550  12.034 -0.0787  0.8870 -0.0570
 2218TIP3   OH228068   1.789   1.109   3.680  0.6569 -0.1399 -0.1372
 2218TIP3    H128069   1.712   1.133   3.732  1.4959  1.7748  0.2676
 2218TIP3    H228070   1.846   1.185   3.686  1.6480 -0.6925 -2.2239
 2219TIP3   OH228071   1.050   1.970   0.403  0.0647 -0.2790  0.0923
 2219TIP3    H128072   1.058   2.062   0.378 -0.4487 -0.5568 -1.0722
 2219TIP3    H228073   1.074   1.969   0.496  2.9621  0.5906 -0.5894
 2220TIP3   OH228074   2.197   6.226   2.255 -0.2042 -0.2322 -0.1002
 2220TIP3    H128075   2.162   6.242   2.343  1.0868  1.9503  0.0491
 2220TIP3    H228076   2.246   6.144   2.264  1.5596  0.9811  1.7178
 2221TIP3   OH228077   0.604   3.895  14.999 -0.0630  0.2010  0.4861
 2221TIP3    H128078   0.514   3.925  14.992  0.3866  1.2712 -0.8438
 2221TIP3    H228079   0.624   3.904  15.092 -1.1731  0.4142  0.7158
 2222TIP3   OH228080   4.444   1.182  16.907  0.3585 -0.0867 -0.0553
 2222TIP3    H128081   4.403   1.101  16.939  3.3430 -1.0908  1.4539
 2222TIP3    H228082   4.378   1.250  16.922 -2.1114 -2.1326 -1.0887
 2223TIP3   OH228083   5.662   1.661   2.278  0.2642  0.1776  0.0487
 2223TIP3    H128084   5.602   1.622   2.215  0.9885  0.6126 -0.9121
 2223TIP3    H228085   5.609   1.726   2.324  0.3349  1.5182 -1.7289
 2224TIP3   OH228086   5.221   0.818  12.389  0.2024 -0.5762 -0.0680
 2224TIP3    H128087   5.137   0.831  12.344  0.6362  1.7657 -0.2702
 2224TIP3    H228088   5.285   0.811  12.319  0.6047  1.0859  0.0968
 2225TIP3   OH228089   6.488   6.668  17.023  0.2328  0.0524  0.3602
 2225TIP3    H128090   6.480   6.762  17.039 -0.1794  0.1373 -0.3160
 2225TIP3    H228091   6.525   6.662  16.934 -1.1498 -0.4295 -0.2008
 2226TIP3   OH228092   5.395   3.222   1.822  0.0401 -0.1409  1.0743
 2226TIP3    H128093   5.439   3.215   1.907  0.5283 -1.8298  0.7013
 2226TIP3    H228094   5.303   3.235   1.844  0.1697 -0.5215  1.8669
 2227TIP3   OH228095   0.656   2.676   4.398 -0.2244 -0.3825 -0.1600
 2227TIP3    H128096   0.568   2.662   4.433 -0.8096  1.7429 -0.7429
 2227TIP3    H228097   0.675   2.768   4.416  2.3840 -1.1146  1.0476
 2228TIP3   OH228098   6.085   2.433  13.392 -0.0603  0.2531  0.6790
 2228TIP3    H128099   6.112   2.351  13.352  1.7910  0.3603  1.6468
 2228TIP3    H228100   5.990   2.424  13.405  0.0818 -1.5964  0.4978
 2229TIP3   OH228101   6.110   4.909   4.243 -0.2001 -0.1133 -0.1253
 2229TIP3    H128102   6.143   4.997   4.260  1.0776 -0.2443 -1.8060
 2229TIP3    H228103   6.015   4.920   4.233 -0.1607  0.9058  0.5807
 2230TIP3   OH228104   2.135   0.256   2.972 -0.0181  0.0450  0.2883
 2230TIP3    H128105   2.107   0.314   2.902 -0.5977 -1.0758 -0.4171
 2230TIP3    H228106   2.062   0.258   3.035  0.1342  0.3914  0.4541
 2231TIP3   OH228107   1.482   0.077   1.275 -0.5765 -0.3013  0.1559
 2231TIP3    H128108   1.532   0.020   1.333 -2.4038 -1.0217  1.0885
 2231TIP3    H228109   1.514   0.166   1.295  1.1473 -0.8445 -0.1475
 2232TIP3   OH228110   5.639   4.279   4.406  0.0270 -0.5103 -0.2206
 2232TIP3    H128111   5.566   4.320   4.453 -0.4503  0.3528 -1.6700
 2232TIP3    H228112   5.698   4.249   4.475 -0.7472  0.5322  0.9313
 2233TIP3   OH228113   2.629   1.416  13.692  0.1363  0.4669  0.4378
 2233TIP3    H128114   2.721   1.392  13.707 -0.2238 -0.6031  0.9874
 2233TIP3    H228115   2.589   1.335  13.659 -0.6983  0.8250  0.5732
 2234TIP3   OH228116   0.753   3.837  14.087 -0.4218 -0.2025 -0.0990
 2234TIP3    H128117   0.775   3.855  13.996  0.4031 -0.3544  0.0757
 2234TIP3    H228118   0.836   3.816  14.129 -0.8989 -0.8712  0.5244
 2235TIP3   OH228119   6.450   2.104   5.975  0.6623  0.3722  0.3483
 2235TIP3    H128120   6.440   2.108   5.880  2.8374 -0.6889  0.0468
 2235TIP3    H228121   6.544   2.111   5.990  0.2218  2.4891  2.5512
 2236TIP3   OH228122   5.761   5.021  10.275  0.1435  0.2549 -0.5396
 2236TIP3    H128123   5.749   5.115  10.258  0.7695  0.2866 -0.8186
 2236TIP3    H228124   5.679   4.981  10.246  0.5743  0.5002 -2.1632
 2237TIP3   OH228125   2.301   5.855  14.296 -0.2399 -0.2747  0.2766
 2237TIP3    H128126   2.326   5.948  14.288  1.8764 -0.7938  0.5552
 2237TIP3    H228127   2.296   5.824  14.206 -0.1450 -0.0955  0.2078
 2238TIP3   OH228128   3.634   0.733   1.219  0.3507  0.4195  0.1281
 2238TIP3    H128129   3.702   0.684   1.265  0.0561  2.3675  2.7607
 2238TIP3    H228130   3.564   0.669   1.205  1.2153 -0.6714  0.7211
 2239TIP3   OH228131   5.898   0.798   4.492  0.1823  0.1750 -0.0185
 2239TIP3    H128132   5.897   0.709   4.457  0.2964 -0.1214  0.7103
 2239TIP3    H228133   5.833   0.796   4.563  0.6028  0.5117  0.3826
 2240TIP3   OH228134   3.563   0.663   6.241  0.0093  0.2361  0.6492
 2240TIP3    H128135   3.502   0.704   6.180  1.1934  0.6288 -0.2809
 2240TIP3    H228136   3.522   0.675   6.327 -0.7782  1.3109  0.1359
 2241TIP3   OH228137   2.923   0.208   0.953  0.3342 -0.0822  0.4887
 2241TIP3    H128138   2.958   0.248   1.033  1.4785 -0.6778  0.2978
 2241TIP3    H228139   2.973   0.250   0.882 -0.4929  0.2550  0.0967
 2242TIP3   OH228140   6.491   0.190  16.566  0.0267  0.5109 -0.2550
 2242TIP3    H128141   6.403   0.152  16.567 -0.0877  0.6458 -2.2330
 2242TIP3    H228142   6.479   0.282  16.587 -0.1769  0.3122  0.5018
 2243TIP3   OH228143   6.740   3.440  16.043 -0.5593 -0.1940  0.0922
 2243TIP3    H128144   6.752   3.359  15.993 -0.0255 -0.0449 -0.0142
 2243TIP3    H228145   6.648   3.463  16.028 -0.2473  0.1754 -1.3187
 2244TIP3   OH228146   5.597   2.762  15.561 -0.1090 -0.2524  0.3022
 2244TIP3    H128147   5.546   2.713  15.625 -0.9711 -0.0739 -0.2327
 2244TIP3    H228148   5.631   2.838  15.609 -0.6231 -0.2022  0.5908
 2245TIP3   OH228149   5.133   3.286  11.309  0.0349 -0.2797 -0.4177
 2245TIP3    H128150   5.193   3.214  11.327 -0.5831 -0.3983  1.3678
 2245TIP3    H228151   5.182   3.346  11.253  0.8104 -1.7375 -1.3102
 2246TIP3   OH228152   6.398   0.263   1.287 -0.5529  0.6352 -0.8074
 2246TIP3    H128153   6.433   0.340   1.333 -0.5717  0.3311 -0.2805
 2246TIP3    H228154   6.421   0.189   1.343 -2.4833  0.4857 -0.1737
 2247TIP3   OH228155   4.100   3.016   5.640 -0.0766  0.2269 -0.0432
 2247TIP3    H128156   4.009   3.008   5.666  0.3486 -0.8710  1.1857
 2247TIP3    H228157   4.130   2.926   5.629  0.6155  0.6008 -1.3259
 2248TIP3   OH228158   4.997   6.590  13.408  0.1202 -0.5593 -0.2670
 2248TIP3    H128159   5.072   6.534  13.428  1.2585  0.7216 -0.9017
 2248TIP3    H228160   5.024   6.640  13.331 -1.1216  0.4232 -0.0818
 2249TIP3   OH228161   6.073   4.367  13.321  0.1154  0.3908  0.8058
 2249TIP3    H128162   6.066   4.305  13.393 -0.3163  1.7483  1.9537
 2249TIP3    H228163   6.161   4.403  13.327  0.2462  0.1571  0.3530
 2250TIP3   OH228164   4.006   5.970   0.151 -0.3457  0.1203 -0.2465
 2250TIP3    H128165   4.074   6.029   0.118 -1.4341  0.4616 -1.9861
 2250TIP3    H228166   3.955   6.025   0.211  0.2634  0.1704  0.2296
 2251TIP3   OH228167   2.802   2.606   1.412  0.1448  0.6721 -0.3630
 2251TIP3    H128168   2.737   2.563   1.357 -0.2783  1.9835 -0.8952
 2251TIP3    H228169   2.757   2.623   1.495 -0.0062  1.0180 -0.5146
 2252TIP3   OH228170   3.394   6.225   0.204 -0.5063  0.3568  0.4167
 2252TIP3    H128171   3.361   6.136   0.211 -1.0821  0.5033 -0.3854
 2252TIP3    H228172   3.441   6.228   0.121 -0.6039  0.8375  0.3730
 2253TIP3   OH228173   1.890   4.588   0.529 -0.5752 -0.9278  0.5217
 2253TIP3    H128174   1.968   4.595   0.584  1.8606 -0.4006 -2.8304
 2253TIP3    H228175   1.882   4.494   0.512  0.4741 -0.8288 -0.6182
 2254TIP3   OH228176   0.969   2.394   4.768  0.1755 -0.6217  0.4535
 2254TIP3    H128177   0.924   2.427   4.690  1.7940  0.0180 -0.2480
 2254TIP3    H228178   0.904   2.399   4.838 -0.4622  1.4816 -0.2525
 2255TIP3   OH228179   6.267   2.843  17.234  0.0974 -0.1718  0.3779
 2255TIP3    H128180   6.281   2.802  17.149 -0.2990 -1.4137  0.8956
 2255TIP3    H228181   6.259   2.770  17.295 -0.9997  0.6552  1.2625
 2256TIP3   OH228182   5.798   0.464  14.499 -0.0914  0.4468  0.4921
 2256TIP3    H128183   5.829   0.375  14.484  0.2329  0.5722  0.4112
 2256TIP3    H228184   5.878   0.514  14.519 -0.3545  0.5578  1.2846
 2257TIP3   OH228185   2.343   4.594   6.499 -0.1011  0.1697  0.5204
 2257TIP3    H128186   2.266   4.641   6.531 -1.6010 -0.2076 -2.3913
 2257TIP3    H228187   2.407   4.662   6.482 -0.3785  0.6485  1.3706
 2258TIP3   OH228188   6.163   6.631  15.868 -0.1653  0.3350 -0.5348
 2258TIP3    H128189   6.131   6.676  15.946  1.3361  1.1212 -0.3590
 2258TIP3    H228190   6.085   6.592  15.829 -0.9900  0.2835  1.1299
 2259TIP3   OH228191   5.482   5.614   5.685  0.0253 -0.1470  0.0195
 2259TIP3    H128192   5.470   5.521   5.666  2.4549 -0.3450 -0.6612
 2259TIP3    H228193   5.504   5.653   5.600  1.9583  0.5126  0.8010
 2260TIP3   OH228194   1.496   5.502   2.301  0.4094  0.1088 -0.0167
 2260TIP3    H128195   1.523   5.507   2.209  0.7262  0.7449  0.1081
 2260TIP3    H228196   1.456   5.587   2.318  1.7180  0.5669  0.8608
 2261TIP3   OH228197   0.094   5.305   4.131 -0.2007  0.5010 -0.0941
 2261TIP3    H128198   0.054   5.328   4.215  0.9011  1.2441  0.2391
 2261TIP3    H228199   0.080   5.383   4.076  0.2279  0.5219 -0.1751
 2262TIP3   OH228200   1.678   1.288  15.506 -1.2015  0.1054  0.4025
 2262TIP3    H128201   1.624   1.367  15.501  0.8354  1.5029 -0.2826
 2262TIP3    H228202   1.660   1.252  15.593 -1.5593  1.7721  1.0361
 2263TIP3   OH228203   4.818   4.669   0.176 -0.3209  0.3247 -0.1470
 2263TIP3    H128204   4.727   4.643   0.168 -0.7695  2.0535 -1.0979
 2263TIP3    H228205   4.838   4.661   0.269 -1.8841  1.2641  0.2929
 2264TIP3   OH228206   4.347   4.297   2.311  0.1203  0.1612 -0.2560
 2264TIP3    H128207   4.343   4.377   2.363  0.0993  0.2259 -0.3553
 2264TIP3    H228208   4.300   4.232   2.363  0.3742  0.1441 -0.0511
 2265TIP3   OH228209   5.850   0.241   2.079 -0.4610  0.5642 -0.1958
 2265TIP3    H128210   5.836   0.254   1.985  1.2785 -0.7017 -0.6570
 2265TIP3    H228211   5.866   0.329   2.113  0.5192  0.8714 -1.3937
 2266TIP3   OH228212   0.856   6.005   0.546 -0.2261  0.3078 -0.2385
 2266TIP3    H128213   0.929   5.966   0.497 -0.4213 -1.9799  1.2255
 2266TIP3    H228214   0.818   6.069   0.485  2.2224  0.6606 -1.4636
 2267TIP3   OH228215   3.373   4.915  12.456  0.0733 -0.7059 -0.2182
 2267TIP3    H128216   3.344   4.894  12.545 -0.9220 -1.0324 -0.6180
 2267TIP3    H228217   3.468   4.899  12.458  0.2171  0.2590  1.0536
 2268TIP3   OH228218   0.279   2.143   6.666 -0.0036 -0.3596 -0.0368
 2268TIP3    H128219   0.373   2.152   6.649  0.6892 -2.8948  2.1991
 2268TIP3    H228220   0.241   2.125   6.580  1.7347 -0.7535 -0.7578
 2269TIP3   OH228221   6.653   4.677   4.070  0.4150 -0.0221 -0.0724
 2269TIP3    H128222   6.608   4.692   4.153 -0.7571  1.7150 -0.9865
 2269TIP3    H228223   6.589   4.631   4.016  0.7047  0.0019 -0.4391
 2270TIP3   OH228224   2.217   6.098  14.894  0.3281  0.0677 -0.8097
 2270TIP3    H128225   2.286   6.032  14.906 -0.2057 -0.2672  0.4709
 2270TIP3    H228226   2.144   6.066  14.946 -0.6291  0.6767 -1.7721
 2271TIP3   OH228227   3.833   5.916   4.502 -1.0076  0.4236  0.6120
 2271TIP3    H128228   3.854   5.955   4.588  0.2635  0.8125  0.1422
 2271TIP3    H228229   3.820   5.991   4.445 -1.1244  0.1583  0.2911
 2272TIP3   OH228230   0.135   5.963   1.064  0.6684 -0.1952  0.1738
 2272TIP3    H128231   0.114   5.950   0.971  0.6946  0.2815  0.1000
 2272TIP3    H228232   0.127   5.876   1.103 -1.1076 -0.1051  0.0724
 2273TIP3   OH228233   1.469   1.096   5.266  0.4922  0.0380  0.3973
 2273TIP3    H128234   1.486   1.185   5.234 -0.7375  0.2948  0.4344
 2273TIP3    H228235   1.482   1.040   5.189  1.9625  0.1532  0.5377
 2274TIP3   OH228236   4.842   3.795   2.966  0.8085  0.5897 -0.2257
 2274TIP3    H128237   4.768   3.841   3.005  1.1065  1.9922 -1.2407
 2274TIP3    H228238   4.808   3.708   2.943 -0.4787  1.1671 -0.5310
 2275TIP3   OH228239   5.059   2.903  11.849  0.5903  0.2358  0.1354
 2275TIP3    H128240   4.971   2.941  11.859  0.8704  1.0446 -0.4409
 2275TIP3    H228241   5.103   2.960  11.786  1.0308 -1.0352 -0.7291
 2276TIP3   OH228242   1.138   6.600   0.134  0.0810 -0.4943 -0.2820
 2276TIP3    H128243   1.083   6.666   0.093 -0.3581 -1.3927 -1.1788
 2276TIP3    H228244   1.219   6.646   0.156 -0.4679  0.4880 -0.2925
 2277TIP3   OH228245   1.672   4.459   2.572 -0.1774 -0.7697 -0.2942
 2277TIP3    H128246   1.640   4.500   2.492  0.9186 -1.5428 -1.1466
 2277TIP3    H228247   1.624   4.377   2.578  0.4818 -1.1902 -0.7192
 2278TIP3   OH228248   5.211   6.563  11.647 -0.2819 -0.0755  0.3466
 2278TIP3    H128249   5.213   6.546  11.553  1.2368 -0.1248  0.3805
 2278TIP3    H228250   5.192   6.477  11.687 -0.6798 -0.1021  0.0984
 2279TIP3   OH228251   2.499   0.839  16.663  0.1287 -0.2790 -0.6144
 2279TIP3    H128252   2.531   0.769  16.607  0.7501  0.5700 -1.3208
 2279TIP3    H228253   2.556   0.836  16.740 -1.1347 -1.8678  0.3057
 2280TIP3   OH228254   4.344   0.609  15.712 -0.0569  0.0964 -0.0485
 2280TIP3    H128255   4.267   0.665  15.720  0.3213  0.4168  1.6879
 2280TIP3    H228256   4.335   0.547  15.784  0.9079 -0.3671 -0.3253
 2281TIP3   OH228257   1.137   0.722  13.077 -0.0958  0.7484 -0.3616
 2281TIP3    H128258   1.182   0.704  13.159 -0.6221 -0.8902 -0.4190
 2281TIP3    H228259   1.185   0.672  13.011 -0.9096  0.4035 -0.7069
 2282TIP3   OH228260   6.153   6.537  16.780 -0.7232 -0.4750 -0.4082
 2282TIP3    H128261   6.120   6.542  16.690  0.6428  1.1172 -0.8515
 2282TIP3    H228262   6.228   6.478  16.775  0.2634  0.7685 -0.6321
 2283TIP3   OH228263   0.333   2.240   1.444 -0.3359  0.3293  0.7621
 2283TIP3    H128264   0.263   2.208   1.387  0.8292 -0.8936  0.0016
 2283TIP3    H228265   0.414   2.215   1.400  0.6370  3.5815  0.6047
 2284TIP3   OH228266   4.798   3.532  15.418  0.4239 -0.1642 -0.1518
 2284TIP3    H128267   4.729   3.518  15.354  0.3684 -1.5867  0.2184
 2284TIP3    H228268   4.870   3.571  15.368 -0.6302  1.3652 -0.5290
 2285TIP3   OH228269   1.654   5.656   1.772  0.3509  0.1846  0.4490
 2285TIP3    H128270   1.582   5.700   1.726  0.2449 -0.6476 -0.1866
 2285TIP3    H228271   1.706   5.728   1.809  0.5624  0.8786 -1.1642
 2286TIP3   OH228272   1.790   0.894   3.531  0.1784  0.5631 -0.0635
 2286TIP3    H128273   1.774   0.973   3.583 -0.1041 -0.9027  2.1287
 2286TIP3    H228274   1.703   0.866   3.503  0.2803  1.0055 -0.8534
 2287TIP3   OH228275   4.799   3.009  15.012  0.0590  0.3473  0.5535
 2287TIP3    H128276   4.750   3.050  14.941  1.0651  0.5036 -0.0599
 2287TIP3    H228277   4.808   3.078  15.078 -2.3499 -0.2891  1.6010
 2288TIP3   OH228278   3.266   6.203   3.586 -0.3419 -0.2982 -0.4587
 2288TIP3    H128279   3.316   6.193   3.667 -0.8617 -1.4188 -0.2543
 2288TIP3    H228280   3.220   6.119   3.577 -1.9313  0.6059 -0.7974
 2289TIP3   OH228281   0.976   2.546   2.354  0.0661  0.2731 -0.4926
 2289TIP3    H128282   1.053   2.602   2.341  1.4489 -1.4211  0.1093
 2289TIP3    H228283   0.956   2.554   2.448  0.3994 -0.3780 -0.3600
 2290TIP3   OH228284   2.268   1.534  14.006  0.1745  0.0262  0.0537
 2290TIP3    H128285   2.267   1.466  14.074 -0.5664  1.8828  1.9388
 2290TIP3    H228286   2.322   1.604  14.043 -1.8681  1.8986 -0.3999
 2291TIP3   OH228287   0.695   1.708   1.460  0.2683  0.1656 -0.5326
 2291TIP3    H128288   0.623   1.646   1.470  0.2918  0.0947 -0.7967
 2291TIP3    H228289   0.733   1.716   1.547  1.4050 -1.5522 -0.8399
 2292TIP3   OH228290   3.038   2.396   3.521  0.2970  0.2410  0.6543
 2292TIP3    H128291   3.038   2.370   3.429  1.4277  1.0763  0.4127
 2292TIP3    H228292   2.970   2.463   3.527 -0.1929 -0.2379  0.5616
 2293TIP3   OH228293   6.675   3.928   0.783 -0.5336 -0.6927 -0.1541
 2293TIP3    H128294   6.648   3.985   0.856 -1.1751  0.2605 -1.1258
 2293TIP3    H228295   6.611   3.858   0.783 -0.7126 -0.5327  0.0103
 2294TIP3   OH228296   4.478   2.861   4.235  0.5071 -0.2148 -0.0855
 2294TIP3    H128297   4.568   2.843   4.207  1.1336  1.7510  0.5575
 2294TIP3    H228298   4.444   2.922   4.169  0.1651  0.2305  0.4931
 2295TIP3   OH228299   5.030   3.595   5.287 -0.0631 -0.0010 -0.4203
 2295TIP3    H128300   5.092   3.603   5.359  2.4159  1.4345 -2.5956
 2295TIP3    H228301   5.046   3.507   5.251  0.4894  0.2165 -0.7276
 2296TIP3   OH228302   4.465   2.981   4.942 -0.4990  0.0272  0.1441
 2296TIP3    H128303   4.536   3.031   4.982 -0.7368  1.8209 -1.5893
 2296TIP3    H228304   4.505   2.936   4.868 -0.6865 -0.8659  0.5796
 2297TIP3   OH228305   6.764   6.325  12.194 -0.3012  0.6195  0.2869
 2297TIP3    H128306   6.751   6.263  12.122 -2.1276  0.6448  0.5650
 2297TIP3    H228307   6.736   6.409  12.159  1.3299  1.1232  0.1927
 2298TIP3   OH228308   4.178   1.817   0.356  0.1925 -0.2658 -0.5060
 2298TIP3    H128309   4.172   1.770   0.273 -0.3139 -0.2240 -0.4984
 2298TIP3    H228310   4.118   1.769   0.414 -0.8759  0.7990 -0.6982
 2299TIP3   OH228311   2.762   3.841  16.456 -0.2428  0.2929  0.2526
 2299TIP3    H128312   2.778   3.864  16.548  0.0667 -1.1543  0.5788
 2299TIP3    H228313   2.682   3.888  16.433  0.1912  1.3926  0.9862
 2300TIP3   OH228314   1.558   6.730   1.572 -0.6707 -0.1373  0.4552
 2300TIP3    H128315   1.587   6.725   1.663  1.7057  0.5564 -0.2219
 2300TIP3    H228316   1.496   6.803   1.571 -0.1022  0.3683  1.3545
 2301TIP3   OH228317   5.309   5.609  11.750 -0.1233 -0.1967 -0.6758
 2301TIP3    H128318   5.255   5.683  11.723 -1.0211 -0.8424 -0.6483
 2301TIP3    H228319   5.372   5.598  11.679 -1.4978 -0.9192 -1.7822
 2302TIP3   OH228320   0.377   1.019  15.351 -0.0779  0.1989  0.4319
 2302TIP3    H128321   0.465   1.003  15.383  0.3441  0.0661 -0.7690
 2302TIP3    H228322   0.384   1.010  15.256 -1.0074  1.9128  0.1714
 2303TIP3   OH228323   5.099   5.928   1.098  0.1120  0.4742 -0.4681
 2303TIP3    H128324   5.043   5.962   1.029 -2.1961  0.3423  1.2935
 2303TIP3    H228325   5.083   5.833   1.099 -0.3363  0.5480  0.6248
 2304TIP3   OH228326   1.574   3.638   1.995  0.2019  0.2441  0.0149
 2304TIP3    H128327   1.494   3.648   1.944  1.7178  1.6427 -2.2251
 2304TIP3    H228328   1.613   3.557   1.963  1.2816  1.2531 -1.3230
 2305TIP3   OH228329   3.840   4.032  15.809  0.7282  0.2575 -0.1701
 2305TIP3    H128330   3.929   4.038  15.845  0.4191 -0.5548  0.7391
 2305TIP3    H228331   3.826   3.938  15.797 -0.2085  0.3461  0.2033
 2306TIP3   OH228332   0.373   3.955  13.524  0.4748  0.3959 -0.6004
 2306TIP3    H128333   0.432   3.898  13.475 -0.0462  0.5269 -1.3970
 2306TIP3    H228334   0.372   4.036  13.474  1.8238  1.3921  0.9554
 2307TIP3   OH228335   3.533   5.825   0.198  0.2631 -0.6418  0.0317
 2307TIP3    H128336   3.601   5.822   0.130 -0.2517 -1.5631 -0.4503
 2307TIP3    H228337   3.469   5.888   0.165  1.0447  0.4912  0.6486
 2308TIP3   OH228338   3.176   3.827   4.096 -1.1187  0.3647  0.3346
 2308TIP3    H128339   3.248   3.857   4.152 -1.4487  1.3198  0.2630
 2308TIP3    H228340   3.197   3.861   4.009 -0.7183 -0.9384 -0.0879
 2309TIP3   OH228341   3.815   4.065   5.383  0.0299 -0.2470  0.1815
 2309TIP3    H128342   3.799   4.150   5.423 -0.5956  0.4380 -1.4964
 2309TIP3    H228343   3.731   4.020   5.387  0.3251 -0.7474  0.9396
 2310TIP3   OH228344   6.056   3.907  10.715  0.2535  0.3342 -0.0993
 2310TIP3    H128345   5.976   3.957  10.697 -0.3764 -0.3966  0.6723
 2310TIP3    H228346   6.125   3.956  10.670 -0.0935  2.8021  1.9913
 2311TIP3   OH228347   5.664   4.664  13.000 -0.5744 -0.1955  0.2322
 2311TIP3    H128348   5.751   4.641  12.968 -1.0473 -0.3868 -0.9369
 2311TIP3    H228349   5.607   4.657  12.923 -1.3803  1.2879  0.6679
 2312TIP3   OH228350   0.410   2.421  15.826  0.9216  0.3618 -0.1405
 2312TIP3    H128351   0.344   2.356  15.850  1.4225  0.4390  1.4820
 2312TIP3    H228352   0.476   2.372  15.777  1.3295 -0.3785  1.1357
 2313TIP3   OH228353   3.367   3.451  14.622 -0.2362 -0.5015  0.0872
 2313TIP3    H128354   3.361   3.526  14.562  0.8697  0.2260  0.8452
 2313TIP3    H228355   3.293   3.395  14.599 -1.3012  1.0161 -0.2492
 2314TIP3   OH228356   1.311   1.043   3.800  0.3814  0.1599  0.4372
 2314TIP3    H128357   1.339   0.964   3.753  0.5353  0.2395  0.3934
 2314TIP3    H228358   1.246   1.084   3.742 -0.6006 -0.5764  1.0134
 2315TIP3   OH228359   0.757   4.314  13.001 -0.1450  0.0983  0.1004
 2315TIP3    H128360   0.828   4.376  13.017  0.3653 -0.6238  0.6752
 2315TIP3    H228361   0.732   4.329  12.910  1.3465 -0.2506 -0.3852
 2316TIP3   OH228362   5.991   4.650   3.947  0.8949 -0.2312  0.1567
 2316TIP3    H128363   5.919   4.634   4.008 -0.4404 -0.3885 -1.4204
 2316TIP3    H228364   5.948   4.677   3.866  2.6730  0.8041 -0.4726
 2317TIP3   OH228365   4.004   3.237  11.513 -0.0673  0.0395  0.0684
 2317TIP3    H128366   3.917   3.204  11.488 -0.2991  0.0350  0.8793
 2317TIP3    H228367   4.021   3.306  11.449 -0.1574 -0.7442 -0.8156
 2318TIP3   OH228368   3.859   0.944  12.519 -0.4269  0.4610  0.4563
 2318TIP3    H128369   3.829   1.033  12.534 -2.0486  0.1070 -0.5228
 2318TIP3    H228370   3.812   0.892  12.584 -0.6546  0.1225  0.0234
 2319TIP3   OH228371   1.786   0.709   3.968 -0.2579 -0.0100 -0.1833
 2319TIP3    H128372   1.758   0.784   4.020 -1.3694  0.6081 -1.6346
 2319TIP3    H228373   1.822   0.748   3.888 -0.5280 -1.0049 -0.7971
 2320TIP3   OH228374   0.550   4.348  11.230  0.0969 -0.8961  0.1319
 2320TIP3    H128375   0.493   4.304  11.167  1.0495 -1.4384 -0.3679
 2320TIP3    H228376   0.614   4.394  11.176 -0.4372  0.4993  0.6721
 2321TIP3   OH228377   5.431   2.444  16.144 -0.4486 -0.3591  0.4500
 2321TIP3    H128378   5.394   2.484  16.223 -0.6397 -0.6018  0.4850
 2321TIP3    H228379   5.521   2.476  16.142 -0.8082  0.6528  0.0801
 2322TIP3   OH228380   4.821   1.697  12.489  0.4689  0.2154 -0.0958
 2322TIP3    H128381   4.783   1.609  12.497  0.0713  0.2872 -1.1633
 2322TIP3    H228382   4.753   1.749  12.448  0.7666  0.9918  0.3914
 2323TIP3   OH228383   4.821   0.219   0.429  0.1694  0.2514  0.3575
 2323TIP3    H128384   4.885   0.174   0.374 -0.2531 -1.2812  1.1061
 2323TIP3    H228385   4.875   0.273   0.487  0.7104  0.2825 -0.1619
 2324TIP3   OH228386   3.647   1.815  16.429 -0.1142 -0.5713  0.9290
 2324TIP3    H128387   3.724   1.781  16.476 -0.1976 -0.6862  0.9815
 2324TIP3    H228388   3.572   1.782  16.478 -0.1985 -0.4711  0.8681
 2325TIP3   OH228389   2.021   0.940   5.912 -0.4113 -0.3084 -0.0111
 2325TIP3    H128390   2.097   0.945   5.853 -0.5364  2.9430 -0.0299
 2325TIP3    H228391   2.053   0.977   5.994 -2.1404  1.8412 -0.2598
 2326TIP3   OH228392   2.225   3.288   3.180  0.1851  0.1683  0.1415
 2326TIP3    H128393   2.184   3.328   3.257 -0.4386  0.7755 -0.5033
 2326TIP3    H228394   2.208   3.350   3.109  1.0986 -0.2066 -0.4051
 2327TIP3   OH228395   0.174   3.700  13.396  0.5614 -0.3826  0.1200
 2327TIP3    H128396   0.080   3.708  13.409  0.5879 -0.6459  0.5038
 2327TIP3    H228397   0.212   3.743  13.473  0.7580  0.1197 -0.2595
 2328TIP3   OH228398   1.715   1.815   2.780  0.2220  0.4227 -0.4091
 2328TIP3    H128399   1.737   1.785   2.691 -2.0846 -0.6201 -0.6474
 2328TIP3    H228400   1.701   1.735   2.830 -1.7525  1.0420  0.0438
 2329TIP3   OH228401   0.645   2.400  14.200  0.0219 -0.1237 -0.2079
 2329TIP3    H128402   0.708   2.341  14.158 -0.5643 -1.3198  0.5692
 2329TIP3    H228403   0.570   2.344  14.221 -0.7622  1.0161  0.0727
 2330TIP3   OH228404   1.947   4.609   4.287 -0.0108  0.4765 -0.0159
 2330TIP3    H128405   1.855   4.623   4.310  0.0614 -0.0857  0.6329
 2330TIP3    H228406   1.947   4.528   4.236 -0.0289  1.1357 -1.0754
 2331TIP3   OH228407   5.211   1.681   3.881  0.4137  0.4401  0.3228
 2331TIP3    H128408   5.123   1.708   3.904 -0.5110 -0.8441 -1.5755
 2331TIP3    H228409   5.227   1.720   3.795 -0.4987 -3.8030 -1.9271
 2332TIP3   OH228410   5.614   2.231  16.536  0.3102  0.5539  0.1965
 2332TIP3    H128411   5.594   2.274  16.618  1.0325  0.2019  0.5609
 2332TIP3    H228412   5.690   2.177  16.555  2.0639  2.3932 -1.3243
 2333TIP3   OH228413   1.330   6.724   0.514 -0.0101  0.0644  0.3131
 2333TIP3    H128414   1.283   6.693   0.436 -0.3759 -3.9657  2.0115
 2333TIP3    H228415   1.420   6.736   0.484 -0.2612 -0.9243 -0.8832
 2334TIP3   OH228416   2.428   5.494  14.578  0.1851 -0.5614 -0.7064
 2334TIP3    H128417   2.405   5.472  14.668  0.6540 -0.4727 -0.5657
 2334TIP3    H228418   2.503   5.553  14.585  0.0729 -0.3588 -1.1476
 2335TIP3   OH228419   3.172   2.978   6.311 -0.1488 -0.5812 -0.3247
 2335TIP3    H128420   3.088   2.994   6.354  0.1852 -0.6650  0.3707
 2335TIP3    H228421   3.226   3.054   6.336  0.3659 -1.1175  0.2262
 2336TIP3   OH228422   4.150   3.206   4.386 -0.3382  0.8370  0.0535
 2336TIP3    H128423   4.135   3.177   4.296 -1.1906  0.9412  0.1615
 2336TIP3    H228424   4.145   3.301   4.382 -0.2458  0.8475  0.1883
 2337TIP3   OH228425   4.081   1.902  16.113 -0.2427  0.5088  0.2073
 2337TIP3    H128426   4.122   1.907  16.026 -1.2770  1.0255 -0.2510
 2337TIP3    H228427   4.108   1.816  16.147 -1.0666 -0.3562 -1.2577
 2338TIP3   OH228428   0.213   4.265  11.531  1.1077 -0.4593  0.4489
 2338TIP3    H128429   0.276   4.226  11.591  1.0723  0.7379  1.3114
 2338TIP3    H228430   0.168   4.331  11.585 -1.2111 -1.6320 -0.0024
 2339TIP3   OH228431   4.414   0.296  16.120 -0.2409 -0.5592  0.1152
 2339TIP3    H128432   4.447   0.302  16.210  0.4479  1.5734 -0.2485
 2339TIP3    H228433   4.487   0.258  16.070 -0.2476 -0.7664  0.2649
 2340TIP3   OH228434   0.564   6.210   4.436 -0.1156 -0.5024 -0.1490
 2340TIP3    H128435   0.486   6.156   4.442 -1.5469  1.2858 -1.8230
 2340TIP3    H228436   0.596   6.195   4.347  1.4220 -1.1558  0.4964
 2341TIP3   OH228437   0.019   1.570   1.948  0.0870  0.1451 -0.0206
 2341TIP3    H128438  -0.001   1.484   1.912 -0.1470  0.3832 -0.4561
 2341TIP3    H228439   0.068   1.614   1.879 -2.4915  1.5002 -1.0343
 2342TIP3   OH228440   3.409   2.568  11.076  0.7383 -0.2303 -0.5233
 2342TIP3    H128441   3.389   2.532  10.990 -2.9219  1.7368 -0.5557
 2342TIP3    H228442   3.444   2.655  11.058 -0.3703  0.3249 -0.0293
 2343TIP3   OH228443   5.556   0.860  14.582 -0.1507 -0.4228 -0.0432
 2343TIP3    H128444   5.504   0.798  14.633 -1.4636  1.3072  0.7650
 2343TIP3    H228445   5.494   0.929  14.558  1.7927  1.7877  1.1134
 2344TIP3   OH228446   5.104   6.750   2.433 -0.3025  0.3390 -0.2889
 2344TIP3    H128447   5.025   6.699   2.451 -0.4634  1.0844  1.2309
 2344TIP3    H228448   5.112   6.749   2.338 -2.3368  0.5072 -0.4943
 2345TIP3   OH228449   1.541   3.203  16.028  0.1046  0.2499  0.1172
 2345TIP3    H128450   1.512   3.206  16.119 -1.4246  0.0687 -0.3395
 2345TIP3    H228451   1.600   3.278  16.019  0.9707 -0.2543  1.4748
 2346TIP3   OH228452   1.243   5.200   3.150 -0.0740 -0.1849 -0.8718
 2346TIP3    H128453   1.337   5.197   3.169  0.1954 -0.1377 -2.1646
 2346TIP3    H228454   1.201   5.176   3.233  0.9771  2.5261  0.5173
 2347TIP3   OH228455   5.578   1.759  14.292 -0.3800 -0.4214  0.4555
 2347TIP3    H128456   5.540   1.794  14.211  1.7164 -2.6851 -1.5661
 2347TIP3    H228457   5.667   1.793  14.293  0.6217 -2.9297  0.1586
 2348TIP3   OH228458   6.494   2.268   5.742  0.2650  0.1633  0.0661
 2348TIP3    H128459   6.459   2.352   5.770 -0.5491 -0.0909 -0.1731
 2348TIP3    H228460   6.577   2.290   5.699  1.1101  0.6227  1.8871
 2349TIP3   OH228461   5.585   3.196  12.725 -0.7132  0.0688  0.3266
 2349TIP3    H128462   5.611   3.247  12.647 -2.2077 -1.8575 -1.4877
 2349TIP3    H228463   5.497   3.229  12.746 -0.7072 -0.0929  0.5979
 2350TIP3   OH228464   6.158   0.869  15.868  0.4459 -0.3112  0.1910
 2350TIP3    H128465   6.166   0.954  15.910 -2.1441  0.1138 -0.1086
 2350TIP3    H228466   6.198   0.808  15.930 -0.6375  0.6971  1.9041
 2351TIP3   OH228467   4.171   2.043   5.156  0.2773 -0.0728  0.3714
 2351TIP3    H128468   4.092   2.097   5.148 -0.9376 -1.6599  1.3440
 2351TIP3    H228469   4.238   2.103   5.190 -0.0206  1.6958 -2.0024
 2352TIP3   OH228470   3.475   1.472  12.841 -0.2704  0.0413 -0.2579
 2352TIP3    H128471   3.444   1.504  12.926  0.3757  1.8332 -0.6783
 2352TIP3    H228472   3.454   1.378  12.842 -0.0700 -0.0177  1.9661
 2353TIP3   OH228473   4.663   2.178   4.595  0.8121 -0.4832 -0.3940
 2353TIP3    H128474   4.748   2.144   4.622  0.6644 -1.0746 -0.6784
 2353TIP3    H228475   4.610   2.178   4.675  1.8656  2.3124  0.3524
 2354TIP3   OH228476   5.310   0.855   5.061 -0.2278 -0.5339 -0.0971
 2354TIP3    H128477   5.273   0.936   5.096 -1.8744 -1.2115 -0.1994
 2354TIP3    H228478   5.276   0.850   4.971  0.0324 -1.2193 -0.1617
 2355TIP3   OH228479   3.403   1.816   2.029  0.0009 -0.0604  0.1192
 2355TIP3    H128480   3.356   1.744   1.985 -0.1073  0.5432 -0.7705
 2355TIP3    H228481   3.450   1.860   1.958 -1.3348  1.8463  0.3845
 2356TIP3   OH228482   4.342   1.789  14.376 -0.6770  0.0688 -0.6514
 2356TIP3    H128483   4.367   1.881  14.387 -0.4824 -0.1602  0.9326
 2356TIP3    H228484   4.263   1.780  14.429 -0.0721 -0.9417  0.0864
 2357TIP3   OH228485   0.146   6.598   3.862 -0.0322 -0.1175 -0.0909
 2357TIP3    H128486   0.140   6.514   3.908  0.4248  0.2130  0.5678
 2357TIP3    H228487   0.059   6.611   3.825 -0.2699 -0.5926  0.2989
 2358TIP3   OH228488   0.787   6.268   5.680 -0.0551  0.0225 -0.0603
 2358TIP3    H128489   0.810   6.302   5.594  4.9704  3.3374  2.3537
 2358TIP3    H228490   0.819   6.178   5.680  0.5037  0.2169 -1.3787
 2359TIP3   OH228491   2.854   0.586   1.275 -0.1821 -0.0455  0.1964
 2359TIP3    H128492   2.856   0.663   1.219 -1.1129 -0.2846 -0.1830
 2359TIP3    H228493   2.763   0.580   1.304  0.1772 -0.2418  1.2886
 2360TIP3   OH228494   3.546   1.565  12.261  0.4350 -0.5604 -0.2051
 2360TIP3    H128495   3.599   1.487  12.282  0.4195 -0.2954  0.7959
 2360TIP3    H228496   3.495   1.538  12.184  1.9650 -0.8514 -1.1509
 2361TIP3   OH228497   2.022   6.411   0.208  0.1485  0.2389  0.7592
 2361TIP3    H128498   2.088   6.364   0.157 -0.0164 -0.2648  1.0016
 2361TIP3    H228499   1.972   6.459   0.143  0.3896  0.1608  0.5142
 2362TIP3   OH228500   0.685   2.932  14.068 -0.2418  0.2930 -0.2167
 2362TIP3    H128501   0.668   2.846  14.105 -0.1436  1.0370  1.5928
 2362TIP3    H228502   0.599   2.970  14.053 -0.2681  0.3558  0.1019
 2363TIP3   OH228503   0.746   4.882  16.987  0.3293 -0.1076 -0.1778
 2363TIP3    H128504   0.744   4.815  17.055  2.0204 -0.4189 -0.3977
 2363TIP3    H228505   0.780   4.960  17.032 -0.9070  0.3954 -0.1010
 2364TIP3   OH228506   1.599   1.549   5.653 -0.6353  0.7407  0.4596
 2364TIP3    H128507   1.678   1.568   5.703 -0.9462  2.3707  0.3770
 2364TIP3    H228508   1.629   1.546   5.562  0.0613 -2.9745  0.7487
 2365TIP3   OH228509   1.346   2.677  14.598  0.0823 -0.3251 -0.5419
 2365TIP3    H128510   1.416   2.617  14.624  0.4325 -1.5353 -4.0187
 2365TIP3    H228511   1.274   2.620  14.570 -1.1062  0.9017 -0.0340
 2366TIP3   OH228512   5.728   6.713   3.120  0.3037  0.2167 -0.4462
 2366TIP3    H128513   5.712   6.650   3.191  2.2441 -1.3522 -1.3475
 2366TIP3    H228514   5.700   6.667   3.041 -0.8075  1.5396 -0.8447
 2367TIP3   OH228515   3.025   4.434  11.965 -0.3630 -0.0376  0.4687
 2367TIP3    H128516   2.944   4.480  11.941 -0.7432 -0.2945  1.2139
 2367TIP3    H228517   3.095   4.491  11.934 -0.8231  1.4157  1.9694
 2368TIP3   OH228518   6.712   3.240  13.883  0.1725 -0.7510  0.2812
 2368TIP3    H128519   6.689   3.202  13.968  3.2743 -0.8291  1.1582
 2368TIP3    H228520   6.741   3.329  13.905 -0.8854 -0.0813 -0.9722
 2369TIP3   OH228521   6.130   3.914   1.738 -0.2937 -0.3397  0.8714
 2369TIP3    H128522   6.113   3.827   1.703  0.9088 -0.3549  0.2904
 2369TIP3    H228523   6.059   3.929   1.801 -0.3201 -1.8641  1.2281
 2370TIP3   OH228524   4.564   1.086   2.386 -0.2480 -0.1861  0.3334
 2370TIP3    H128525   4.486   1.099   2.439 -0.1011  1.6804  0.1283
 2370TIP3    H228526   4.590   1.175   2.359  0.2227 -1.0090 -2.0684
 2371TIP3   OH228527   0.008   6.446   3.298 -0.3336  0.2669 -0.1800
 2371TIP3    H128528   0.022   6.469   3.206 -1.6749  1.5010 -0.0846
 2371TIP3    H228529  -0.085   6.428   3.305  0.1527 -2.1329  0.4555
 2372TIP3   OH228530   6.257   3.666  10.639  0.4895  0.0250  0.4159
 2372TIP3    H128531   6.178   3.719  10.647  1.5333  1.6272  0.4536
 2372TIP3    H228532   6.279   3.669  10.546  0.5004 -0.4173  0.4050
 2373TIP3   OH228533   4.185   0.897  15.487 -0.1732  0.2201  0.2163
 2373TIP3    H128534   4.265   0.927  15.532 -0.4334  0.0965  0.7618
 2373TIP3    H228535   4.204   0.909  15.394  1.0122 -1.1071  0.2678
 2374TIP3   OH228536   2.983   0.261  13.829  0.0793  0.2997 -0.2942
 2374TIP3    H128537   2.970   0.206  13.906 -0.3374 -0.3792 -0.8356
 2374TIP3    H228538   2.912   0.325  13.833 -0.8152 -0.6213 -0.8548
 2375TIP3   OH228539   4.754   3.302   2.163 -0.4126 -0.3507  0.0871
 2375TIP3    H128540   4.801   3.239   2.216 -2.0232 -1.4416  0.2555
 2375TIP3    H228541   4.764   3.271   2.073  0.6333  0.3837 -0.0562
 2376TIP3   OH228542   0.118   5.365  12.846  0.0419 -0.6403 -0.3790
 2376TIP3    H128543   0.139   5.277  12.876 -0.6044 -0.9595 -0.8584
 2376TIP3    H228544   0.067   5.404  12.917 -1.2449 -1.2955 -0.9382
 2377TIP3   OH228545   3.530   0.093  14.664  0.2012 -0.1517 -0.4337
 2377TIP3    H128546   3.556   0.160  14.727  2.3567 -1.0713 -0.2920
 2377TIP3    H228547   3.557   0.010  14.705 -1.1266 -0.9864 -1.2347
 2378TIP3   OH228548   6.086   2.884   0.305  0.0997  0.4933 -0.0215
 2378TIP3    H128549   6.154   2.832   0.349  1.3085  1.4969 -0.6605
 2378TIP3    H228550   6.133   2.961   0.272 -1.7420  2.2172  1.3075
 2379TIP3   OH228551   3.579   3.368   0.029 -1.0764 -0.8364  0.3041
 2379TIP3    H128552   3.609   3.396  -0.057 -0.1166 -1.8271  0.3027
 2379TIP3    H228553   3.514   3.433   0.054  0.3161  0.7635 -0.1570
 2380TIP3   OH228554   3.437   0.570  16.517 -0.1592  0.7646  0.5361
 2380TIP3    H128555   3.360   0.532  16.559 -0.2028  1.2448  0.8959
 2380TIP3    H228556   3.504   0.570  16.585  0.4583 -0.5450 -0.0594
 2381TIP3   OH228557   2.671   0.635  12.769  0.4732  0.1028  0.5455
 2381TIP3    H128558   2.624   0.585  12.703  1.5673 -0.0431 -0.1356
 2381TIP3    H228559   2.685   0.721  12.730 -0.0168  0.4413  1.0982
 2382TIP3   OH228560   1.752   1.766  13.453  0.6811  0.0134 -0.1203
 2382TIP3    H128561   1.827   1.794  13.506 -0.0104 -0.7233  1.2798
 2382TIP3    H228562   1.679   1.821  13.484  0.7062  1.0023 -1.7440
 2383TIP3   OH228563   3.023   5.603  11.785  1.0014  0.0363  0.2082
 2383TIP3    H128564   2.989   5.655  11.858  1.6294  0.9079 -0.1077
 2383TIP3    H228565   3.118   5.611  11.792  1.0593  0.3502 -0.8655
 2384TIP3   OH228566   1.163   1.603  12.410  0.0040  0.4794 -0.0776
 2384TIP3    H128567   1.170   1.561  12.325  0.4169  2.0902 -0.8619
 2384TIP3    H228568   1.173   1.532  12.473  1.2392 -0.5023 -1.3510
 2385TIP3   OH228569   3.610   1.694   1.534  0.1426 -0.8159  0.2054
 2385TIP3    H128570   3.697   1.679   1.570 -0.1981 -1.8281  0.6272
 2385TIP3    H228571   3.596   1.621   1.474 -0.3496 -0.5741  0.0252
 2386TIP3   OH228572   1.053   3.333  14.667 -0.8460 -0.2812 -0.1436
 2386TIP3    H128573   1.032   3.424  14.689  0.0243  0.1623 -1.1229
 2386TIP3    H228574   1.004   3.315  14.586 -0.5608 -0.5063 -0.2668
 2387TIP3   OH228575   0.276   4.243   1.909  0.1189  0.1476 -0.0742
 2387TIP3    H128576   0.202   4.229   1.849  0.2668  0.4802 -0.3390
 2387TIP3    H228577   0.267   4.335   1.935 -0.9607 -0.4649  1.7912
 2388TIP3   OH228578   2.397   4.797   5.705  0.2593 -0.0264  0.5349
 2388TIP3    H128579   2.450   4.773   5.781 -0.7759 -0.2311  1.2110
 2388TIP3    H228580   2.416   4.730   5.640  0.2804 -0.5122  1.0358
 2389TIP3   OH228581   3.987   3.102  15.353 -0.0210 -0.7947  0.2413
 2389TIP3    H128582   4.080   3.094  15.374 -0.1674 -0.2231  1.0779
 2389TIP3    H228583   3.944   3.114  15.437 -0.5529  1.8611 -0.3711
 2390TIP3   OH228584   6.005   0.682   2.572 -0.1232 -0.0162 -0.5989
 2390TIP3    H128585   6.020   0.724   2.487  1.5920  1.6307  0.5035
 2390TIP3    H228586   5.920   0.715   2.600 -0.6217 -0.4330 -1.5631
 2391TIP3   OH228587   2.565   1.208  15.380 -0.2608 -0.3183 -0.2429
 2391TIP3    H128588   2.508   1.260  15.437 -1.5064 -1.9639  0.0473
 2391TIP3    H228589   2.653   1.239  15.400 -0.8401  0.4173  1.2613
 2392TIP3   OH228590   4.348   5.920  15.184  0.0613  0.7667 -0.4598
 2392TIP3    H128591   4.383   5.996  15.230  0.7396  0.1952 -0.0226
 2392TIP3    H228592   4.256   5.916  15.211  0.8746 -0.6249  2.3291
 2393TIP3   OH228593   4.134   3.957   6.046 -0.1355 -0.1881  0.4276
 2393TIP3    H128594   4.063   3.999   5.997  0.1826  0.8386  0.8323
 2393TIP3    H228595   4.106   3.866   6.055 -0.5892 -0.1951 -0.9246
 2394TIP3   OH228596   2.151   6.008  13.957  0.2590 -0.2795  0.8124
 2394TIP3    H128597   2.175   6.090  13.914 -0.1446 -0.6947 -0.2210
 2394TIP3    H228598   2.057   6.000  13.942 -0.1304  0.2041  2.8903
 2395TIP3   OH228599   0.577   3.305   3.460 -0.5613 -0.0826  0.0414
 2395TIP3    H128600   0.496   3.267   3.495 -1.0232  0.6807 -0.2034
 2395TIP3    H228601   0.577   3.395   3.491 -0.4048  0.2732 -0.9958
 2396TIP3   OH228602   5.994   2.511   5.118  0.2664 -0.0954  0.4989
 2396TIP3    H128603   5.977   2.475   5.031 -0.7040 -1.7591  1.3559
 2396TIP3    H228604   6.089   2.504   5.128  0.2105 -1.4367  0.2155
 2397TIP3   OH228605   2.164   1.319  11.809  0.2539 -0.3584  0.5903
 2397TIP3    H128606   2.211   1.284  11.885  0.3797  0.3332  0.8425
 2397TIP3    H228607   2.077   1.340  11.843  1.1492  2.5728  1.2938
 2398TIP3   OH228608   4.668   0.972   3.782  0.3033  0.2823  0.0866
 2398TIP3    H128609   4.688   0.880   3.798 -1.7384 -0.4820 -1.4511
 2398TIP3    H228610   4.753   1.013   3.763  1.5243 -0.7528  3.1405
 2399TIP3   OH228611   2.651   4.401  11.765 -0.2936  0.4496 -0.1108
 2399TIP3    H128612   2.693   4.478  11.803 -1.2717 -0.1101  2.1733
 2399TIP3    H228613   2.594   4.368  11.834  0.7119 -2.7865 -0.7421
 2400TIP3   OH228614   5.934   1.923  14.730 -0.1773  1.1125 -0.1193
 2400TIP3    H128615   5.916   1.840  14.775  0.9318  0.6729 -0.4716
 2400TIP3    H228616   5.867   1.928  14.662 -1.1216  1.2009  0.8077
 2401TIP3   OH228617   4.251   6.296  15.978  0.0450  0.3310 -0.3997
 2401TIP3    H128618   4.159   6.316  15.961 -0.4108 -1.2802  0.0541
 2401TIP3    H228619   4.266   6.212  15.935  0.2939 -1.1960  2.5331
 2402TIP3   OH228620   1.811   3.769  13.326 -0.5012  0.1630 -0.0937
 2402TIP3    H128621   1.776   3.853  13.356 -1.1069 -0.6696  1.6250
 2402TIP3    H228622   1.889   3.755  13.380 -0.2628 -0.2633 -0.5432
 2403TIP3   OH228623   3.510   4.539   0.587 -0.7122 -0.3904 -0.1431
 2403TIP3    H128624   3.597   4.566   0.559 -1.3087  1.0979 -0.6332
 2403TIP3    H228625   3.499   4.451   0.551 -0.0534  0.0701 -1.5041
 2404TIP3   OH228626   1.950   1.968   0.559  0.1255  0.4190  0.7778
 2404TIP3    H128627   2.008   1.901   0.522 -0.9395  0.1058 -0.3627
 2404TIP3    H228628   1.885   1.918   0.609 -2.1082  0.3595 -2.0423
 2405TIP3   OH228629   1.879   3.065   0.335 -0.1634  0.2573  0.5376
 2405TIP3    H128630   1.795   3.041   0.374 -0.7326  0.9015 -0.2628
 2405TIP3    H228631   1.889   3.158   0.355  1.2578 -0.2454  2.2373
 2406TIP3   OH228632   0.222   2.384   4.507 -0.2528  0.3350 -0.7500
 2406TIP3    H128633   0.262   2.349   4.428 -0.2540  0.2913 -0.7316
 2406TIP3    H228634   0.245   2.477   4.507  1.6281 -0.1093  0.3436
 2407TIP3   OH228635   2.632   2.445   3.412 -0.1974  0.1702 -0.2106
 2407TIP3    H128636   2.567   2.515   3.402 -1.7834 -1.1916  0.3240
 2407TIP3    H228637   2.599   2.373   3.358  1.5376 -0.0990 -0.9573
 2408TIP3   OH228638   2.167   0.834   5.049  0.3333  0.2102 -0.4941
 2408TIP3    H128639   2.257   0.861   5.030 -0.0621  1.8692 -0.1084
 2408TIP3    H228640   2.134   0.901   5.108 -1.0249 -0.6251 -0.2741
 2409TIP3   OH228641   5.855   0.393  10.641  0.1308  0.1362 -0.1296
 2409TIP3    H128642   5.864   0.487  10.656 -0.3743  0.4630 -1.7274
 2409TIP3    H228643   5.776   0.369  10.688 -0.9056  0.9457 -1.4064
 2410TIP3   OH228644   2.914   3.596  17.138  0.3015 -0.5271 -0.0345
 2410TIP3    H128645   2.892   3.652  17.064  0.2657 -0.1049  0.2901
 2410TIP3    H228646   3.008   3.582  17.131  0.3291 -0.3319 -0.0530
 2411TIP3   OH228647   5.310   2.291  16.729 -0.0149 -0.7951 -0.0543
 2411TIP3    H128648   5.274   2.283  16.817  0.0833  0.4914  0.1050
 2411TIP3    H228649   5.234   2.286  16.672 -0.1834 -0.6014  0.1551
 2412TIP3   OH228650   3.738   6.404  14.245 -0.0777  0.6839  0.1839
 2412TIP3    H128651   3.697   6.484  14.278 -0.5108  0.4407  0.2308
 2412TIP3    H228652   3.810   6.387  14.306  0.0378  1.0576  0.1522
 2413TIP3   OH228653   1.711   4.117   4.368  0.1792  0.0948  0.0121
 2413TIP3    H128654   1.700   4.025   4.391 -0.8677  0.2910  0.3340
 2413TIP3    H228655   1.622   4.153   4.370  0.7056  1.4121  1.1823
 2414TIP3   OH228656   6.343   6.406   0.322  0.2750  0.1794  0.2346
 2414TIP3    H128657   6.307   6.458   0.250  0.5222  0.0895  0.0466
 2414TIP3    H228658   6.283   6.333   0.332 -1.3743  1.7227  2.0255
 2415TIP3   OH228659   2.748   6.244   4.250  0.5271  0.0865  0.1825
 2415TIP3    H128660   2.830   6.195   4.245  0.4225  0.0007 -0.7423
 2415TIP3    H228661   2.766   6.314   4.313  1.1564 -0.2300  0.3544
 2416TIP3   OH228662   3.516   5.479  16.707  0.2587  0.5160  0.0705
 2416TIP3    H128663   3.515   5.521  16.621  1.9776  0.5518  0.0512
 2416TIP3    H228664   3.525   5.386  16.689  1.0764  0.5611  0.2006
 2417TIP3   OH228665   0.686   1.956  14.311  0.1677  0.6908  0.0069
 2417TIP3    H128666   0.636   2.015  14.368  0.8852  0.5501  0.8080
 2417TIP3    H228667   0.749   1.915  14.370  0.4742  0.0272 -0.7768
 2418TIP3   OH228668   5.455   4.265  12.383 -0.2606 -0.0441 -0.5338
 2418TIP3    H128669   5.529   4.316  12.415 -0.9835  1.0134 -0.5257
 2418TIP3    H228670   5.478   4.174  12.403  2.0398  0.0421 -2.5568
 2419TIP3   OH228671   5.123   1.757  11.368  0.1889  0.3017  0.0274
 2419TIP3    H128672   5.106   1.784  11.278 -0.1578  1.4476  0.4258
 2419TIP3    H228673   5.106   1.836  11.420 -0.0436 -0.4763  1.1393
 2420TIP3   OH228674   4.478   5.892  16.886  0.1756  0.2045  0.2114
 2420TIP3    H128675   4.569   5.892  16.914  1.0826 -0.9001 -2.6318
 2420TIP3    H228676   4.452   5.799  16.890 -0.5398  0.3944  0.0456
 2421TIP3   OH228677   1.382   2.885  13.144  0.2451 -0.0469 -0.5475
 2421TIP3    H128678   1.333   2.849  13.218 -3.2214 -0.6179 -3.0346
 2421TIP3    H228679   1.428   2.810  13.107  1.8090  0.1984  0.8192
 2422TIP3   OH228680   6.498   1.623   3.602  0.1657  0.0351  0.2827
 2422TIP3    H128681   6.474   1.691   3.664 -1.3370 -1.7254  1.6882
 2422TIP3    H228682   6.447   1.644   3.523 -0.6625  0.2817  0.8744
 2423TIP3   OH228683   0.422   0.597   6.202 -0.2369 -0.5889  0.3446
 2423TIP3    H128684   0.474   0.674   6.225  0.6017 -0.9789 -0.2400
 2423TIP3    H228685   0.332   0.626   6.211  0.0529 -0.2856  2.6885
 2424TIP3   OH228686   2.513   2.844   1.930  0.7334  0.0279 -0.1208
 2424TIP3    H128687   2.556   2.925   1.900 -0.4228  1.0724  0.9828
 2424TIP3    H228688   2.505   2.856   2.024 -0.9058 -0.6833 -0.1702
 2425TIP3   OH228689   1.985   3.648  11.771  0.2927  0.0807  0.2283
 2425TIP3    H128690   2.032   3.721  11.730 -1.0301  0.5439 -0.4875
 2425TIP3    H228691   2.052   3.581  11.784  1.2179  0.8453 -0.5077
 2426TIP3   OH228692   2.441   5.492   4.794 -0.5926 -0.6254 -0.1972
 2426TIP3    H128693   2.517   5.442   4.825 -1.0921 -1.9537 -1.0652
 2426TIP3    H228694   2.477   5.549   4.726 -0.3769 -1.3026 -0.6596
 2427TIP3   OH228695   5.649   2.425   3.657  0.5046 -0.0689 -0.1824
 2427TIP3    H128696   5.587   2.362   3.693  1.5293 -0.6405  0.6285
 2427TIP3    H228697   5.720   2.427   3.721  1.7427 -0.1171 -1.5396
 2428TIP3   OH228698   1.479   2.399  13.939 -0.3626  0.1056 -0.5634
 2428TIP3    H128699   1.411   2.454  13.980 -0.3777  0.6315 -1.2696
 2428TIP3    H228700   1.560   2.447  13.953 -0.2619 -0.0907 -0.4789
 2429TIP3   OH228701   5.896   3.147   6.848 -0.4460 -0.3428 -0.5096
 2429TIP3    H128702   5.806   3.119   6.864 -0.4754  0.5673  1.0605
 2429TIP3    H228703   5.895   3.242   6.865  1.0089 -0.5051  0.6091
 2430TIP3   OH228704   3.648   5.037   5.482 -0.1850  0.2408 -0.0935
 2430TIP3    H128705   3.679   4.984   5.408 -2.5862 -0.6839 -0.4749
 2430TIP3    H228706   3.711   5.020   5.552  1.1484 -0.2163 -1.3818
 2431TIP3   OH228707   5.116   5.844   3.958  0.0668 -0.0950  0.2069
 2431TIP3    H128708   5.110   5.841   3.863 -3.0398  0.3990  0.3337
 2431TIP3    H228709   5.166   5.923   3.977 -0.8281  0.7599 -0.9847
 2432TIP3   OH228710   1.571   1.301  13.402 -0.5482 -0.1558 -0.5629
 2432TIP3    H128711   1.612   1.376  13.359  2.0663 -1.3390 -0.2427
 2432TIP3    H228712   1.536   1.249  13.329  1.1455 -0.5929 -1.0984
 2433TIP3   OH228713   6.785   3.256   1.059 -0.3493  0.7097  0.6942
 2433TIP3    H128714   6.694   3.255   1.029  0.6995 -0.4125 -2.7752
 2433TIP3    H228715   6.798   3.170   1.099 -0.0687 -0.2592 -1.4139
 2434TIP3   OH228716   1.969   5.343  17.131  0.2302  0.3166 -0.0933
 2434TIP3    H128717   1.895   5.312  17.078  0.1001 -0.9196  0.7852
 2434TIP3    H228718   2.047   5.311  17.084  0.0908 -1.4954  0.8847
 2435TIP3   OH228719   1.700   6.725  15.456 -0.0375 -0.1231 -0.0847
 2435TIP3    H128720   1.631   6.669  15.420  0.0990  0.8873 -1.9884
 2435TIP3    H228721   1.656   6.808  15.474  0.4078  0.1274 -0.1496
 2436TIP3   OH228722   1.955   5.816   1.575 -0.3566  0.0291  0.2239
 2436TIP3    H128723   2.010   5.876   1.526 -0.5571  0.5916  0.6927
 2436TIP3    H228724   1.980   5.729   1.543  3.6463 -0.0765  3.2604
 2437TIP3   OH228725   0.462   0.346  12.658  0.4545 -0.4476 -0.4653
 2437TIP3    H128726   0.493   0.260  12.686  0.1523  0.3454  2.4253
 2437TIP3    H228727   0.524   0.408  12.696  0.2307  0.6895 -1.8941
 2438TIP3   OH228728   1.747   2.713   1.297 -0.2706  0.1636 -0.1640
 2438TIP3    H128729   1.787   2.708   1.383  2.7745  3.2776 -1.2728
 2438TIP3    H228730   1.731   2.622   1.272  1.0520 -0.8830  2.6462
 2439TIP3   OH228731   5.885   6.340  14.060 -0.0478 -0.1649 -0.2477
 2439TIP3    H128732   5.969   6.377  14.034 -0.1542 -1.2443 -2.1985
 2439TIP3    H228733   5.824   6.414  14.056  0.9961  0.8939  2.3297
 2440TIP3   OH228734   4.517   6.630  10.683 -0.3102  0.1628  0.2341
 2440TIP3    H128735   4.424   6.607  10.682 -0.0738 -0.8646  1.0690
 2440TIP3    H228736   4.519   6.723  10.658 -1.6528  0.5380  1.4653
 2441TIP3   OH228737   4.623   0.836  16.302 -0.1087 -0.3589  0.4815
 2441TIP3    H128738   4.632   0.931  16.288  1.9599 -0.5721  0.1765
 2441TIP3    H228739   4.562   0.808  16.234 -0.6158  0.7210  0.4645
 2442TIP3   OH228740   1.901   4.162  17.217 -0.1619 -0.2130 -0.3358
 2442TIP3    H128741   1.994   4.147  17.203 -0.0338 -0.6083  0.8968
 2442TIP3    H228742   1.859   4.080  17.192 -0.1532 -0.1362 -0.6058
 2443TIP3   OH228743   4.594   0.674   3.212  0.0024  0.0977 -0.1921
 2443TIP3    H128744   4.622   0.734   3.281 -0.6278  1.0074 -0.7229
 2443TIP3    H228745   4.501   0.660   3.229 -0.0480 -0.0439 -0.5837
 2444TIP3   OH228746   6.106   5.708   2.264  0.1024  0.0851  0.4531
 2444TIP3    H128747   6.056   5.773   2.214  1.4341  0.4560 -0.4368
 2444TIP3    H228748   6.164   5.668   2.199  1.4072  0.1174  1.5673
 2445TIP3   OH228749   0.201   3.511  17.135 -0.0682 -0.0764  0.0144
 2445TIP3    H128750   0.226   3.430  17.181  1.4972 -0.4254 -1.3892
 2445TIP3    H228751   0.229   3.581  17.193  0.8332 -0.5296  0.1325
 2446TIP3   OH228752   2.387   1.554  11.643  0.2221 -0.2283  0.3186
 2446TIP3    H128753   2.430   1.621  11.589 -0.1522 -0.5100 -0.3348
 2446TIP3    H228754   2.454   1.528  11.706  0.1190  1.3423  1.1075
 2447TIP3   OH228755   2.949   6.120  11.260 -0.6960 -0.6985  0.4236
 2447TIP3    H128756   2.990   6.145  11.342 -1.9356  1.2502  0.4776
 2447TIP3    H228757   2.855   6.116  11.280 -0.8145 -2.4287 -0.3517
 2448TIP3   OH228758   6.522   0.659  12.040  0.0536 -0.1371 -0.3026
 2448TIP3    H128759   6.467   0.581  12.035  0.5734 -0.6611  1.6969
 2448TIP3    H228760   6.611   0.624  12.042  0.3472  0.5845 -1.0385
 2449TIP3   OH228761   0.969   4.612  12.863  0.2622  0.1752 -0.0752
 2449TIP3    H128762   1.057   4.609  12.899  0.0481  0.4357  0.4697
 2449TIP3    H228763   0.933   4.695  12.892 -0.6331 -0.5081  0.8133
 2450TIP3   OH228764   0.573   0.787   1.308  0.3414  0.0730  0.2787
 2450TIP3    H128765   0.534   0.718   1.255 -1.6192  0.7562  0.7909
 2450TIP3    H228766   0.503   0.851   1.319  2.6685  3.0834 -1.7520
 2451TIP3   OH228767   5.436   2.939   4.359  0.5581 -0.2035  0.2610
 2451TIP3    H128768   5.531   2.944   4.369  0.6358 -0.8468 -0.1163
 2451TIP3    H228769   5.419   2.974   4.272  0.6020 -1.5212 -0.2859
 2452TIP3   OH228770   3.646   4.502   5.692 -1.4532  0.3785  0.4225
 2452TIP3    H128771   3.630   4.436   5.760  0.0858  1.0809  1.4882
 2452TIP3    H228772   3.687   4.453   5.620 -2.4684 -0.2433  0.2580
 2453TIP3   OH228773   0.156   0.229  11.156 -0.0217 -0.3905 -0.1304
 2453TIP3    H128774   0.085   0.180  11.198  0.4150  0.6621  1.9193
 2453TIP3    H228775   0.113   0.280  11.088 -1.2504  0.0844  0.9668
 2454TIP3   OH228776   1.074   0.445   2.566  0.3560  0.7008  0.1673
 2454TIP3    H128777   1.003   0.473   2.508  1.2546  1.6988 -0.4791
 2454TIP3    H228778   1.153   0.459   2.514  0.9418 -1.9941  0.2464
 2455TIP3   OH228779   3.491   0.131   4.344 -0.0547  0.3090 -0.5155
 2455TIP3    H128780   3.579   0.162   4.322 -0.8199  1.2314 -2.3830
 2455TIP3    H228781   3.484   0.147   4.438  1.9579 -0.2929 -0.2256
 2456TIP3   OH228782   6.043   5.766  13.908 -0.7738 -0.0537 -0.4062
 2456TIP3    H128783   6.130   5.763  13.868 -0.5973  0.2982 -0.0536
 2456TIP3    H228784   6.059   5.797  13.997 -1.0025 -2.2692  0.4243
 2457TIP3   OH228785   3.570   5.435   2.759  0.0030  0.8796 -0.1717
 2457TIP3    H128786   3.606   5.394   2.838 -2.9591 -2.3800 -0.4270
 2457TIP3    H228787   3.645   5.440   2.699  0.8575 -2.6696  0.4868
 2458TIP3   OH228788   0.607   0.679  11.810  0.4454  0.3471  0.1875
 2458TIP3    H128789   0.538   0.668  11.744  0.8112 -1.6751  0.1160
 2458TIP3    H228790   0.677   0.724  11.763 -0.2562  1.1625 -0.1128
 2459TIP3   OH228791   2.011   2.193  16.796 -0.4730  0.0316 -0.2873
 2459TIP3    H128792   1.945   2.191  16.728 -1.2186  0.2568  0.4138
 2459TIP3    H228793   2.063   2.114  16.783 -2.3773 -1.4113  0.6140
 2460TIP3   OH228794   2.521   0.403   1.077 -0.3588  0.4113 -0.0006
 2460TIP3    H128795   2.473   0.336   1.028 -1.1571  0.9413  0.0585
 2460TIP3    H228796   2.594   0.355   1.117 -2.1693 -0.8701  1.8882
 2461TIP3   OH228797   5.822   1.792   5.556 -0.2870 -0.0492  0.0588
 2461TIP3    H128798   5.871   1.720   5.596  0.4924  0.2073 -0.4135
 2461TIP3    H228799   5.749   1.750   5.512 -0.5836 -0.4292  0.9091
 2462TIP3   OH228800   5.725   2.416  12.617 -0.0091 -0.1327 -0.2932
 2462TIP3    H128801   5.778   2.420  12.697 -0.5270 -3.8394  0.3449
 2462TIP3    H228802   5.674   2.497  12.618  1.3635  0.7598  2.1617
 2463TIP3   OH228803   6.576   4.723  16.211 -0.1180  0.3171 -0.6477
 2463TIP3    H128804   6.506   4.697  16.151  0.0213 -0.5224 -0.4474
 2463TIP3    H228805   6.654   4.677  16.178  0.4554  1.6370 -1.1688
 2464TIP3   OH228806   3.301   0.470  12.205  0.4952 -0.1302 -0.1123
 2464TIP3    H128807   3.367   0.425  12.152 -0.6568 -3.1733  0.9105
 2464TIP3    H228808   3.344   0.486  12.289  0.2305 -1.3428  0.2648
 2465TIP3   OH228809   3.044   6.202   3.975  0.0751 -0.1323 -0.6150
 2465TIP3    H128810   2.964   6.237   3.935  0.0668 -1.6471 -2.0030
 2465TIP3    H228811   3.115   6.243   3.925  0.0566 -2.4199 -2.5836
 2466TIP3   OH228812   3.075   6.103  10.727  0.7615 -0.7816  0.1818
 2466TIP3    H128813   3.096   6.162  10.800 -1.5401 -1.3838  1.3933
 2466TIP3    H228814   3.140   6.032  10.735  0.9709 -0.4911  1.2358
 2467TIP3   OH228815   4.635   0.863   1.972  0.4434 -0.4158 -0.3577
 2467TIP3    H128816   4.628   0.946   1.926 -2.2871  0.7009  1.9259
 2467TIP3    H228817   4.565   0.809   1.935 -0.6683 -0.1027  1.2570
 2468TIP3   OH228818   6.112   0.860   5.238  0.4632  0.2180  0.3282
 2468TIP3    H128819   6.085   0.920   5.307  3.2302  2.8082 -0.7134
 2468TIP3    H228820   6.187   0.903   5.197  1.0153 -2.8441 -2.0765
 2469TIP3   OH228821   5.603   1.850  15.873 -0.1238  0.2147  0.7447
 2469TIP3    H128822   5.663   1.798  15.820  0.3401  0.5922  0.8868
 2469TIP3    H228823   5.649   1.862  15.956  0.0493  1.3705  0.4948
 2470TIP3   OH228824   3.915   6.433  16.616  0.3438  0.2350  0.1212
 2470TIP3    H128825   3.901   6.506  16.556 -1.2113 -0.8901 -0.9248
 2470TIP3    H228826   3.885   6.466  16.701 -0.5081  0.7675 -0.3797
 2471TIP3   OH228827   0.680   3.497  13.716 -0.2556  0.0683 -0.1406
 2471TIP3    H128828   0.606   3.444  13.688  0.4277 -1.7476  1.3716
 2471TIP3    H228829   0.661   3.519  13.808  0.1304  1.2879 -0.3379
 2472TIP3   OH228830   3.292   0.740  15.213  0.3298 -0.6574  0.5696
 2472TIP3    H128831   3.236   0.731  15.137  1.0355  0.2088 -0.0673
 2472TIP3    H228832   3.365   0.680  15.197  1.1457  0.4897 -0.0677
 2473TIP3   OH228833   0.798   6.172   2.065 -0.5773 -0.4760  0.3689
 2473TIP3    H128834   0.850   6.120   2.127  0.0817  0.9519  1.0704
 2473TIP3    H228835   0.720   6.121   2.049 -0.7160 -0.9198  2.3490
 2474TIP3   OH228836   6.060   0.754   2.322 -0.6205 -0.3996 -0.1494
 2474TIP3    H128837   6.009   0.695   2.268  0.1237 -0.7291 -0.4971
 2474TIP3    H228838   6.151   0.732   2.303 -0.3533 -0.2381  0.9311
 2475TIP3   OH228839   5.172   6.291  14.201  0.2096 -0.4302 -0.0665
 2475TIP3    H128840   5.115   6.239  14.258  0.8530  0.9809  1.9109
 2475TIP3    H228841   5.253   6.301  14.251  1.1152  0.0862 -1.6114
 2476TIP3   OH228842   6.388   5.760   6.029 -0.0802 -0.3826  0.3812
 2476TIP3    H128843   6.370   5.672   5.993  1.3693 -0.5471  0.0447
 2476TIP3    H228844   6.304   5.806   6.021 -0.9781 -1.8708  0.9540
 2477TIP3   OH228845   5.553   6.100   3.322  0.6412 -0.3194 -0.4736
 2477TIP3    H128846   5.625   6.124   3.379  0.7073  0.3456 -0.8329
 2477TIP3    H228847   5.507   6.030   3.369  2.1421 -1.4877 -0.7203
 2478TIP3   OH228848   2.306   4.678  13.428 -0.2965  0.1466 -0.5646
 2478TIP3    H128849   2.264   4.701  13.345 -0.9914 -1.5852 -0.7030
 2478TIP3    H228850   2.262   4.733  13.493 -0.6296  0.5808 -1.1554
 2479TIP3   OH228851   3.035   3.373  15.866  0.3846 -0.4517  0.3851
 2479TIP3    H128852   3.046   3.423  15.947 -0.1129 -1.3888  1.0515
 2479TIP3    H228853   2.981   3.299  15.892 -0.3342 -0.4092 -0.9633
 2480TIP3   OH228854   3.278   3.555   4.076  0.2687 -0.2312  0.1489
 2480TIP3    H128855   3.353   3.517   4.030  0.8561  0.1911  0.7542
 2480TIP3    H228856   3.281   3.648   4.054 -0.8422 -0.4288 -0.8814
 2481TIP3   OH228857   1.157   2.332   5.540  0.4255 -0.3214  0.8333
 2481TIP3    H128858   1.182   2.388   5.614  0.2805  0.0524  0.5951
 2481TIP3    H228859   1.233   2.333   5.482  0.0442  0.4319  0.3426
 2482TIP3   OH228860   1.327   4.175   1.789  0.5726 -0.4034 -0.1318
 2482TIP3    H128861   1.245   4.190   1.742  1.0165 -1.3157 -1.2305
 2482TIP3    H228862   1.312   4.209   1.876 -0.7298  0.1098 -0.5548
 2483TIP3   OH228863   0.154   6.480  16.389  0.2439  0.0091  0.0392
 2483TIP3    H128864   0.198   6.558  16.423  0.4873  0.1649 -0.6117
 2483TIP3    H228865   0.224   6.416  16.380 -0.2807 -0.8978  2.3344
 2484TIP3   OH228866   2.949   1.237  11.744 -0.4036  0.0108  0.2035
 2484TIP3    H128867   2.882   1.217  11.810 -0.4841 -0.2281  0.0478
 2484TIP3    H228868   2.970   1.153  11.704  0.8429 -0.0980  1.0597
 2485TIP3   OH228869   2.537   2.382  14.135 -0.2571 -1.0794 -0.6982
 2485TIP3    H128870   2.609   2.324  14.112  1.0928 -0.6867  2.3470
 2485TIP3    H228871   2.577   2.469  14.141 -0.9417 -0.8783  1.1247
 2486TIP3   OH228872   0.906   0.076  15.084 -0.3139  0.1802 -0.3102
 2486TIP3    H128873   0.959   0.152  15.061  0.0811  0.1790  0.5900
 2486TIP3    H228874   0.820   0.094  15.046 -0.0131  0.7336 -0.7343
 2487TIP3   OH228875   5.442   2.341   5.468 -0.3857  0.2219 -0.1097
 2487TIP3    H128876   5.534   2.354   5.489 -0.9179  0.9942  1.8610
 2487TIP3    H228877   5.427   2.392   5.388  0.3576  1.9240  0.8384
 2488TIP3   OH228878   5.867   4.856  12.130  0.5402  0.2585  0.7108
 2488TIP3    H128879   5.943   4.881  12.183  0.3428  1.3235  0.5046
 2488TIP3    H228880   5.839   4.938  12.088  0.4933 -0.4960 -0.7811
 2489TIP3   OH228881   4.823   1.645  15.242  0.6722 -0.5228 -0.4143
 2489TIP3    H128882   4.869   1.724  15.214 -1.3364  0.0340 -2.2818
 2489TIP3    H228883   4.732   1.672  15.252  0.5050 -1.8266  2.2657
 2490TIP3   OH228884   4.904   4.652  11.750  0.4587 -0.7131 -0.2489
 2490TIP3    H128885   4.939   4.678  11.835  1.4028 -0.9703 -0.5518
 2490TIP3    H228886   4.981   4.630  11.698 -0.1247 -0.7801 -1.0994
 2491TIP3   OH228887   5.823   1.082   6.198  0.2534 -0.1417 -0.5479
 2491TIP3    H128888   5.916   1.098   6.218 -0.1372 -0.3059  1.5453
 2491TIP3    H228889   5.798   1.011   6.257 -1.4065  0.4269 -0.5492
 2492TIP3   OH228890   6.200   0.001   0.629 -0.4946 -0.3753 -0.3529
 2492TIP3    H128891   6.244   0.050   0.699  0.4556 -1.8245  0.1055
 2492TIP3    H228892   6.118   0.048   0.614 -0.0517  0.7781  0.7406
 2493TIP3   OH228893   5.202   0.292   1.067 -0.6617  0.1688 -0.3125
 2493TIP3    H128894   5.148   0.221   1.102  0.3216 -0.4747 -0.0642
 2493TIP3    H228895   5.277   0.297   1.127  1.0459 -0.9460 -2.2705
 2494TIP3   OH228896   1.356   1.148  10.619 -0.3130  0.1594 -0.0876
 2494TIP3    H128897   1.338   1.239  10.595  0.2376  1.1301  2.9987
 2494TIP3    H228898   1.450   1.144  10.632 -0.5217 -0.3871  1.4412
 2495TIP3   OH228899   6.418   0.633  13.973 -0.0496 -0.0772  0.1478
 2495TIP3    H128900   6.449   0.713  14.016 -0.1116  0.0270 -0.0010
 2495TIP3    H228901   6.342   0.606  14.024  0.1417 -0.2010  0.3695
 2496TIP3   OH228902   2.106   1.388   1.911  0.4516 -0.8958 -0.5099
 2496TIP3    H128903   2.062   1.303   1.902  0.6583 -0.9230 -1.2593
 2496TIP3    H228904   2.199   1.368   1.900  0.4326 -0.4545 -1.4589
 2497TIP3   OH228905   1.627   1.579  14.647  0.4065 -0.0267 -0.5061
 2497TIP3    H128906   1.703   1.559  14.702  0.6611  0.7521 -0.5727
 2497TIP3    H228907   1.574   1.639  14.699 -0.2885 -0.7420 -0.3647
 2498TIP3   OH228908   5.314   2.546  12.538 -0.5227  0.2958 -0.0208
 2498TIP3    H128909   5.367   2.545  12.459  0.4213 -2.3005  0.6083
 2498TIP3    H228910   5.349   2.475  12.592 -0.9959  2.1254  2.8287
 2499TIP3   OH228911   0.611   3.510  17.228 -0.5865 -0.0202  0.1722
 2499TIP3    H128912   0.610   3.469  17.141  0.3764 -1.0760  0.6463
 2499TIP3    H228913   0.527   3.486  17.267 -1.4267  1.2370 -0.8053
 2500TIP3   OH228914   3.620   5.224   3.530  0.0480  0.1336  0.4786
 2500TIP3    H128915   3.688   5.290   3.520  0.2962 -0.1341  0.4070
 2500TIP3    H228916   3.593   5.232   3.622  0.7038 -0.2739  0.7060
 2501TIP3   OH228917   5.101   0.622  16.100 -0.3310 -0.6717  0.3236
 2501TIP3    H128918   5.115   0.699  16.156 -1.9260 -1.3045  1.6477
 2501TIP3    H228919   5.189   0.592  16.078  0.3238  1.9236 -0.7854
 2502TIP3   OH228920   4.963   4.799  12.344 -0.0023 -0.8838 -0.4362
 2502TIP3    H128921   4.976   4.817  12.437  1.7344  2.8262 -1.2952
 2502TIP3    H228922   4.868   4.800  12.332 -0.1874  0.6570  0.9735
 2503TIP3   OH228923   1.091   6.047  16.394  0.0772  0.1952 -0.2733
 2503TIP3    H128924   1.101   6.016  16.304 -1.2481 -0.8507 -0.0778
 2503TIP3    H228925   1.169   6.100  16.410  2.4586 -2.9976 -0.6437
 2504TIP3   OH228926   4.712   2.945  16.135  0.5133  0.2669  0.1983
 2504TIP3    H128927   4.689   2.867  16.186  0.2678  1.3770  1.7986
 2504TIP3    H228928   4.734   2.911  16.048  1.9903 -1.7574  1.3291
 2505TIP3   OH228929   2.687   3.441   2.916  0.1730  0.2130  0.3267
 2505TIP3    H128930   2.684   3.401   3.003 -1.0781 -0.9565 -0.2208
 2505TIP3    H228931   2.742   3.518   2.927  0.3844 -0.1491  2.0586
 2506TIP3   OH228932   3.222   0.930   3.181  0.5644 -0.5894  0.1280
 2506TIP3    H128933   3.246   0.885   3.100  0.6492  1.7850 -1.2366
 2506TIP3    H228934   3.131   0.906   3.196  0.9970 -2.2272  0.1433
 2507TIP3   OH228935   6.082   4.744   6.377  0.1990 -0.2791  0.3818
 2507TIP3    H128936   6.151   4.698   6.424  1.7844  0.5198 -1.1198
 2507TIP3    H228937   6.054   4.683   6.309  2.4301  0.9521 -1.7294
 2508TIP3   OH228938   6.330   5.835   4.957  0.1582  0.4493 -0.2131
 2508TIP3    H128939   6.401   5.899   4.958  0.7602 -0.2034  0.9287
 2508TIP3    H228940   6.297   5.835   5.047 -0.8310  0.2417 -0.5686
 2509TIP3   OH228941   0.691   0.289   4.237  0.1179 -0.1427  0.2207
 2509TIP3    H128942   0.628   0.348   4.196  0.6785 -0.5599 -1.3186
 2509TIP3    H228943   0.775   0.335   4.232  0.3067 -0.4706  0.2987
 2510TIP3   OH228944   6.265   3.642   0.600  0.4247  0.3831  0.0345
 2510TIP3    H128945   6.330   3.644   0.670 -0.2633 -1.7169  0.7847
 2510TIP3    H228946   6.296   3.574   0.540 -0.5287  0.0973 -0.1425
 2511TIP3   OH228947   6.391   3.846   1.763  0.9430  0.0081  0.0061
 2511TIP3    H128948   6.429   3.776   1.710  0.0706 -0.5288  0.0840
 2511TIP3    H228949   6.316   3.876   1.713  1.5280  1.1602 -0.2050
 2512TIP3   OH228950   0.691   6.205  12.464  0.2224  0.0366 -0.0086
 2512TIP3    H128951   0.653   6.172  12.545  3.2207 -1.9282  0.6849
 2512TIP3    H228952   0.711   6.297  12.483 -1.2668  0.2405  0.6429
 2513TIP3   OH228953   5.444   0.444  12.779 -0.2543 -0.3688  0.3019
 2513TIP3    H128954   5.478   0.480  12.696 -0.2768 -0.1941  0.3674
 2513TIP3    H228955   5.363   0.493  12.795 -0.4122 -0.6163  0.2699
 2514TIP3   OH228956   3.095   0.801  16.367 -0.2399  0.1569  0.6013
 2514TIP3    H128957   3.188   0.818  16.382  0.0214 -0.7929  0.1067
 2514TIP3    H228958   3.066   0.876  16.314 -0.0211  1.0018  1.6580
 2515TIP3   OH228959   3.714   0.488  13.416  0.1168  0.2995 -0.5016
 2515TIP3    H128960   3.702   0.546  13.342  0.0162  3.4594  1.8923
 2515TIP3    H228961   3.627   0.451  13.432 -0.5952  2.1770  0.0519
 2516TIP3   OH228962   3.944   1.384  15.036 -0.1901  0.2182 -0.3385
 2516TIP3    H128963   3.959   1.308  14.980  1.1768 -0.0073  0.3060
 2516TIP3    H228964   4.031   1.407  15.069 -0.8530  0.8495  1.0239
 2517TIP3   OH228965   5.481   5.184   6.437  0.4112 -0.3002  0.3797
 2517TIP3    H128966   5.438   5.266   6.462 -1.2120 -0.1885 -2.6237
 2517TIP3    H228967   5.419   5.116   6.465  0.3597 -0.3488  0.1468
 2518TIP3   OH228968   3.803   1.591  15.210 -0.3202  0.0526  0.5520
 2518TIP3    H128969   3.897   1.609  15.215 -0.2851  0.2689 -0.7178
 2518TIP3    H228970   3.797   1.502  15.176 -0.5751 -0.0499  0.8620
 2519TIP3   OH228971   0.021   2.377  10.807  0.1702 -0.0340 -0.4677
 2519TIP3    H128972   0.055   2.435  10.739  0.5315  2.0826  1.4052
 2519TIP3    H228973  -0.068   2.355  10.779  0.6081  0.1456 -2.0058
 2520TIP3   OH228974   5.912   5.338   1.175 -0.5535  0.0185 -0.2967
 2520TIP3    H128975   5.831   5.358   1.222 -0.4997 -0.7511  0.1317
 2520TIP3    H228976   5.945   5.258   1.216  0.4151  0.3103 -0.4832
 2521TIP3   OH228977   0.801   2.885   3.837  0.0959  0.2142  0.3280
 2521TIP3    H128978   0.709   2.876   3.859  0.2808  0.5982  1.2690
 2521TIP3    H228979   0.804   2.874   3.741 -0.8134 -0.5879  0.3849
 2522TIP3   OH228980   5.993   3.456   2.042  0.0277  0.4086  0.1745
 2522TIP3    H128981   5.954   3.431   2.126 -2.4697  2.0081 -0.4828
 2522TIP3    H228982   5.992   3.376   1.990 -0.5758 -0.0212  0.8462
 2523TIP3   OH228983   1.522   1.293  11.436 -0.0067  0.1407 -0.2296
 2523TIP3    H128984   1.548   1.274  11.526  1.8014  1.8660 -0.3617
 2523TIP3    H228985   1.426   1.286  11.436  0.0957 -1.3610  1.4570
 2524TIP3   OH228986   0.175   5.801  13.263 -0.6162  0.4137 -0.3690
 2524TIP3    H128987   0.222   5.843  13.191 -0.3307 -1.2475 -1.1942
 2524TIP3    H228988   0.151   5.872  13.322  0.4359  1.6244 -1.3785
 2525TIP3   OH228989   3.685   2.515  14.004 -0.6688  0.3524 -0.0499
 2525TIP3    H128990   3.661   2.533  14.095 -0.8816 -0.8377  0.1453
 2525TIP3    H228991   3.761   2.456  14.011 -1.2288 -0.4420 -0.6279
 2526TIP3   OH228992   1.359   6.683   4.926  0.5452 -0.5306  0.5046
 2526TIP3    H128993   1.322   6.625   4.859 -0.2558 -0.3247  0.7534
 2526TIP3    H228994   1.362   6.630   5.005 -1.1584  0.0418  0.9914
 2527TIP3   OH228995   6.730   0.060   3.775 -0.1050  0.1238  0.6602
 2527TIP3    H128996   6.811   0.058   3.723 -1.0447  0.4182 -0.8275
 2527TIP3    H228997   6.661   0.040   3.713 -1.2375  0.2194  1.8643
 2528TIP3   OH228998   0.967   5.925  17.162 -0.0026  0.5258 -0.3121
 2528TIP3    H128999   1.003   6.005  17.198 -1.7087  2.0306 -1.8414
 2528TIP3    H229000   0.891   5.906  17.217 -0.3881  0.7192 -0.7730
 2529TIP3   OH229001   0.199   4.958  12.061 -0.7832 -0.2107  0.2747
 2529TIP3    H129002   0.235   5.031  12.111  0.0612 -1.1695  1.0810
 2529TIP3    H229003   0.264   4.941  11.993 -1.0753 -0.0730 -0.0367
 2530TIP3   OH229004   0.346   2.942   3.991  0.0633 -0.0355  0.4795
 2530TIP3    H129005   0.314   3.031   4.003  1.5678  0.4409  1.1307
 2530TIP3    H229006   0.408   2.949   3.918  1.5302 -0.1899  1.6935
 2531TIP3   OH229007   1.565   6.486   0.148 -0.1874  0.3341 -0.2642
 2531TIP3    H129008   1.557   6.396   0.176 -0.4618  0.2449 -0.6167
 2531TIP3    H229009   1.658   6.499   0.132 -0.1932 -0.0019 -0.5774
 2532TIP3   OH229010   5.062   3.291   6.305  0.4256 -0.1350 -0.0762
 2532TIP3    H129011   5.153   3.259   6.304 -0.0186 -1.4498 -0.0327
 2532TIP3    H229012   5.017   3.230   6.364 -0.8863 -0.6473 -1.5822
 2533TIP3   OH229013   0.934   1.122  11.409  0.4432 -0.7841  0.8567
 2533TIP3    H129014   0.973   1.054  11.354  0.9259 -0.0672  0.3177
 2533TIP3    H229015   0.898   1.186  11.348  0.3743 -0.3310  1.3688
 2534TIP3   OH229016   6.093   6.538   0.710 -0.4124  0.0527  0.0459
 2534TIP3    H129017   6.138   6.622   0.707  0.9273 -0.6924 -1.0636
 2534TIP3    H229018   6.038   6.537   0.632  0.3611 -0.5179 -0.5031
 2535TIP3   OH229019   0.614   2.065  16.782  0.4004  0.1694 -0.1150
 2535TIP3    H129020   0.652   2.037  16.866  0.2877 -0.6810 -0.3372
 2535TIP3    H229021   0.544   2.002  16.766 -0.8819  1.5123  0.1093
 2536TIP3   OH229022   0.767   5.417  14.627  0.0341 -0.1696 -0.2076
 2536TIP3    H129023   0.863   5.413  14.623 -0.0047 -1.0000 -0.5907
 2536TIP3    H229024   0.740   5.325  14.630 -0.7875  0.0207 -1.3395
 2537TIP3   OH229025   5.304   6.095  12.470  0.3080  0.7761  0.0493
 2537TIP3    H129026   5.280   6.166  12.530 -2.2653 -0.8560  1.0613
 2537TIP3    H229027   5.225   6.080  12.418  0.9802 -0.9665 -0.5212
 2538TIP3   OH229028   0.127   0.157   1.225  0.4635  0.1957 -0.4001
 2538TIP3    H129029   0.194   0.089   1.219 -1.6325 -2.1407  1.5807
 2538TIP3    H229030   0.052   0.122   1.176 -0.2889  1.5423 -0.2464
 2539TIP3   OH229031   5.847   0.621  12.476  0.1551  0.1113  0.2846
 2539TIP3    H129032   5.800   0.681  12.535 -2.0706 -1.4308  0.1233
 2539TIP3    H229033   5.898   0.679  12.420 -1.6097  1.8749  0.4116
 2540TIP3   OH229034   0.373   4.632  12.164 -0.3531  0.1018  0.0328
 2540TIP3    H129035   0.430   4.556  12.159 -1.0676 -0.4576  0.2749
 2540TIP3    H229036   0.399   4.676  12.245 -0.8953 -0.6656  0.6295
 2541TIP3   OH229037   3.812   2.496  12.774 -0.5657  0.5843  0.6825
 2541TIP3    H129038   3.747   2.543  12.722  0.7730 -0.3771 -1.8972
 2541TIP3    H229039   3.895   2.512  12.730  0.6732  0.0664  2.7533
 2542TIP3   OH229040   5.147   6.431  15.410  0.2039 -0.1256  0.3036
 2542TIP3    H129041   5.163   6.348  15.365  0.4262  0.1817 -0.1830
 2542TIP3    H229042   5.195   6.496  15.359  2.1070 -0.0625  2.1132
 2543TIP3   OH229043   2.207   4.644   1.689  0.0409 -0.5923  0.3393
 2543TIP3    H129044   2.253   4.566   1.719 -0.6807 -1.5363 -1.0006
 2543TIP3    H229045   2.132   4.652   1.748 -1.9441 -3.0302 -1.7624
 2544TIP3   OH229046   1.128   1.827  13.476 -0.1779  0.1598  0.2399
 2544TIP3    H129047   1.121   1.893  13.406  0.9600  0.0150 -0.0325
 2544TIP3    H229048   1.208   1.851  13.523  1.1947 -1.9887 -0.8995
 2545TIP3   OH229049   0.794   0.202   5.723  0.7966 -0.4050  0.2877
 2545TIP3    H129050   0.796   0.291   5.758 -0.3507 -0.5376  0.7052
 2545TIP3    H229051   0.826   0.211   5.633 -1.3124  0.7621 -0.3823
 2546TIP3   OH229052   5.778   0.388   1.740 -0.4804 -0.5383 -0.0760
 2546TIP3    H129053   5.735   0.424   1.818  0.7269 -0.1060  0.4055
 2546TIP3    H229054   5.779   0.460   1.677 -1.8889 -1.0297 -0.6929
 2547TIP3   OH229055   5.245   6.753  15.821  0.1520  0.1367  0.6290
 2547TIP3    H129056   5.207   6.712  15.743  0.2814  0.5095  0.3653
 2547TIP3    H229057   5.173   6.803  15.860  0.1698  0.2096  0.5676
 2548TIP3   OH229058   0.478   3.126  13.958 -0.0866 -0.2731  0.0446
 2548TIP3    H129059   0.538   3.168  13.897 -2.2471  1.2970 -1.0512
 2548TIP3    H229060   0.413   3.083  13.903 -0.4127 -1.3124  1.2094
 2549TIP3   OH229061   4.832   6.329  17.047  0.4158  0.2061 -0.0913
 2549TIP3    H129062   4.781   6.335  17.128 -0.4389 -1.8053 -0.4628
 2549TIP3    H229063   4.923   6.333  17.076  0.1538 -2.0541  1.1400
 2550TIP3   OH229064   1.802   1.161  16.569 -0.1901  0.6173 -0.6463
 2550TIP3    H129065   1.741   1.173  16.496 -2.3204 -1.1667  0.7932
 2550TIP3    H229066   1.832   1.071  16.559 -1.0295  0.1416  1.0772
 2551TIP3   OH229067   6.140   0.592  12.818  0.2077  0.3047 -0.0299
 2551TIP3    H129068   6.121   0.634  12.734 -0.2599 -0.1575 -0.1622
 2551TIP3    H229069   6.057   0.552  12.843  0.5365 -0.1705  0.3044
 2552TIP3   OH229070   1.316   4.085   5.572  0.3033  0.1135  0.3772
 2552TIP3    H129071   1.293   3.999   5.537  2.4551  0.3192 -1.5994
 2552TIP3    H229072   1.383   4.067   5.638  1.1081  0.2946 -0.3807
 2553TIP3   OH229073   3.156   0.700  17.079 -0.0943 -0.1189  0.3062
 2553TIP3    H129074   3.164   0.795  17.072 -0.4369 -0.0490  0.7921
 2553TIP3    H229075   3.075   0.687  17.129 -1.0156 -0.6978 -1.2878
 2554TIP3   OH229076   3.631   6.632  13.854 -0.8437  0.6648 -0.5746
 2554TIP3    H129077   3.704   6.665  13.906  0.1770 -0.7168 -1.0857
 2554TIP3    H229078   3.578   6.581  13.915 -2.1302  2.7472  0.0939
 2555TIP3   OH229079   2.749   4.107   0.241  0.0115 -0.0950 -0.7292
 2555TIP3    H129080   2.736   4.126   0.148  0.0672  2.6083 -0.2456
 2555TIP3    H229081   2.668   4.064   0.269  0.2571 -1.5311 -2.1487
 2556TIP3   OH229082   1.183   4.219  15.048  0.1560 -0.2182 -0.2169
 2556TIP3    H129083   1.169   4.174  14.965  0.3847  1.2596 -1.0635
 2556TIP3    H229084   1.145   4.306  15.035  1.3980  0.4809  0.7707
 2557TIP3   OH229085   0.386   6.324  16.356 -0.3834  0.0750 -0.0843
 2557TIP3    H129086   0.438   6.400  16.329 -1.8545  1.8597  1.9651
 2557TIP3    H229087   0.435   6.288  16.430 -0.7836  0.2932  0.2868
 2558TIP3   OH229088   4.683   3.967  14.998 -0.1474 -0.0370  0.2296
 2558TIP3    H129089   4.776   3.944  14.996 -0.7416 -2.4949  0.0439
 2558TIP3    H229090   4.660   3.966  15.091 -0.5470 -1.8101  0.1232
 2559TIP3   OH229091   3.648   2.844   2.971 -0.0758 -0.1757 -0.3504
 2559TIP3    H129092   3.715   2.854   2.903  0.8765 -1.0675  0.4458
 2559TIP3    H229093   3.568   2.823   2.923  0.4884 -0.3625 -1.2231
 2560TIP3   OH229094   4.096   1.101  13.668  0.4597  0.3137  0.2336
 2560TIP3    H129095   4.032   1.035  13.693  0.4705  0.5021  0.7728
 2560TIP3    H229096   4.174   1.079  13.719 -0.0259  1.6398  1.5992
 2561TIP3   OH229097   4.430   5.756   1.008 -0.1075 -0.2234  0.2290
 2561TIP3    H129098   4.518   5.785   1.032  0.0238  0.9770 -1.5859
 2561TIP3    H229099   4.379   5.766   1.089  1.6967 -2.2629  1.6876
 2562TIP3   OH229100   0.645   1.696  16.858 -0.6003  0.2891  0.4468
 2562TIP3    H129101   0.557   1.730  16.848  0.0837  1.7254 -0.7968
 2562TIP3    H229102   0.691   1.761  16.911  0.4554  0.8956 -1.1681
 2563TIP3   OH229103   0.686   6.652  13.279 -0.0354  0.2174  0.0592
 2563TIP3    H129104   0.618   6.638  13.345 -1.0176 -0.0192 -0.9931
 2563TIP3    H229105   0.662   6.594  13.207  0.3686  1.3261 -0.9894
 2564TIP3   OH229106   6.021   0.100   1.476  0.1732 -0.2907 -0.7768
 2564TIP3    H129107   5.995   0.068   1.562 -0.2045  1.1068 -0.3512
 2564TIP3    H229108   6.046   0.022   1.427 -2.9319 -1.5021 -0.5359
 2565TIP3   OH229109   1.952   0.631  10.760 -0.1752 -0.0992 -0.0934
 2565TIP3    H129110   1.864   0.662  10.736  1.2645  3.5548 -0.9329
 2565TIP3    H229111   1.987   0.596  10.678 -0.2637 -0.1427 -0.1141
 2566TIP3   OH229112   3.786   6.518   6.087 -0.1640  0.4977 -0.0979
 2566TIP3    H129113   3.809   6.596   6.037 -1.0466  0.5274 -0.4526
 2566TIP3    H229114   3.762   6.551   6.174  0.9540  0.4787  0.2378
 2567TIP3   OH229115   6.568   2.352  15.313 -0.3964 -0.2955  0.6604
 2567TIP3    H129116   6.594   2.308  15.232 -2.6388 -1.2364  0.4308
 2567TIP3    H229117   6.640   2.335  15.373  1.0515 -0.0360 -0.9558
 2568TIP3   OH229118   5.755   1.565   5.817  0.0162  0.4465 -0.3514
 2568TIP3    H129119   5.667   1.601   5.806 -0.5343 -0.6976  0.1958
 2568TIP3    H229120   5.760   1.541   5.909  0.1486 -1.3856 -0.8128
 2569TIP3   OH229121   5.201   0.686   3.285 -0.4422 -0.1545  0.2730
 2569TIP3    H129122   5.241   0.612   3.239 -0.6810  0.5958 -1.1800
 2569TIP3    H229123   5.276   0.740   3.312 -0.4151  1.5043 -2.8796
 2570TIP3   OH229124   0.595   3.899  14.569 -0.1015  0.0226  0.3713
 2570TIP3    H129125   0.527   3.844  14.530  1.7031 -1.9701 -0.0848
 2570TIP3    H229126   0.572   3.902  14.662 -1.5828  0.5502  0.0036
 2571TIP3   OH229127   0.847   0.051   0.402 -0.4302  0.0427 -0.2143
 2571TIP3    H129128   0.791   0.012   0.469 -1.3049  2.0353  0.2737
 2571TIP3    H229129   0.797   0.043   0.321 -0.1651 -0.7526 -0.2985
 2572TIP3   OH229130   0.742   6.516  14.913 -0.4592  0.0771 -0.7266
 2572TIP3    H129131   0.797   6.534  14.837 -1.0489  2.8406 -0.5224
 2572TIP3    H229132   0.660   6.482  14.875 -0.7728  1.4900 -1.3510
 2573TIP3   OH229133   1.968   3.170  14.859 -0.1637  0.7610 -0.1131
 2573TIP3    H129134   1.915   3.097  14.829 -0.7841  0.5492  1.4559
 2573TIP3    H229135   2.025   3.133  14.926  1.5738  1.1167 -1.3444
 2574TIP3   OH229136   1.850   1.995  11.157  0.0011 -0.6389 -0.9703
 2574TIP3    H129137   1.783   2.039  11.104 -0.9076  0.5292  1.0539
 2574TIP3    H229138   1.806   1.916  11.190 -0.9132  0.8123  1.4612
 2575TIP3   OH229139   3.919   4.134   4.672  0.1862  0.4060  0.2009
 2575TIP3    H129140   3.874   4.096   4.596 -1.1503  0.3136  1.0243
 2575TIP3    H229141   4.011   4.114   4.658 -0.3384 -1.9839 -0.0538
 2576TIP3   OH229142   1.063   2.374  10.700  0.2536 -0.1023  0.3651
 2576TIP3    H129143   1.031   2.353  10.787  0.0971  2.3088  0.9175
 2576TIP3    H229144   0.984   2.393  10.649  0.5262  1.5197  0.5407
 2577TIP3   OH229145   2.059   4.908  15.356 -0.6902 -0.0367  0.4270
 2577TIP3    H129146   1.985   4.881  15.302  0.0446  1.1939 -1.2692
 2577TIP3    H229147   2.089   4.828  15.398 -2.9894 -0.5319  1.1767
 2578TIP3   OH229148   0.172   0.339   5.573  0.9896  0.4242 -0.2469
 2578TIP3    H129149   0.191   0.246   5.558  0.5505  0.1026  1.1938
 2578TIP3    H229150   0.227   0.363   5.647  1.5675  1.4951 -1.0028
 2579TIP3   OH229151   5.223   2.562   1.233  0.3620  0.6222  0.1185
 2579TIP3    H129152   5.237   2.572   1.139 -0.8047 -0.1157 -0.1445
 2579TIP3    H229153   5.252   2.472   1.251  0.2097  0.6298  0.3893
 2580TIP3   OH229154   4.529   2.566  13.908 -0.3499 -0.3822  0.4005
 2580TIP3    H129155   4.483   2.494  13.866  0.1944 -0.2116 -0.4960
 2580TIP3    H229156   4.617   2.532  13.925 -0.4410 -0.3145  1.0486
 2581TIP3   OH229157   5.330   3.114  16.646  0.7706 -0.1968  0.4363
 2581TIP3    H129158   5.295   3.174  16.712  1.5874 -0.5054  1.1578
 2581TIP3    H229159   5.401   3.069  16.690  1.8774  0.1932 -0.9073
 2582TIP3   OH229160   6.515   4.905   3.284 -0.1313 -0.4136  0.1180
 2582TIP3    H129161   6.548   4.884   3.371  2.5205  2.0278 -0.2086
 2582TIP3    H229162   6.560   4.844   3.225  0.0688 -0.3337  0.1880
 2583TIP3   OH229163   4.832   5.912  13.427  0.2938  0.1409 -0.6315
 2583TIP3    H129164   4.924   5.935  13.417  1.0449 -2.6755 -0.6841
 2583TIP3    H229165   4.811   5.936  13.518  1.0356  0.9222 -0.6590
 2584TIP3   OH229166   4.416   1.556  15.221  1.0833  0.1548  0.2576
 2584TIP3    H129167   4.473   1.579  15.295 -0.4752  0.1855  1.4753
 2584TIP3    H229168   4.334   1.600  15.239  0.3626 -0.6132 -1.0300
 2585TIP3   OH229169   0.238   5.386  14.470  0.4370 -0.0269 -0.2554
 2585TIP3    H129170   0.242   5.455  14.536 -0.2332 -0.3924  0.1753
 2585TIP3    H229171   0.314   5.401  14.414  0.0442  1.3510 -0.4553
 2586TIP3   OH229172   1.464   0.744   6.527  0.4808  0.1796  0.3456
 2586TIP3    H129173   1.543   0.725   6.477 -0.2340  0.5213 -0.9389
 2586TIP3    H229174   1.440   0.833   6.500 -2.1034 -1.0674 -1.6899
 2587TIP3   OH229175   6.293   5.938   1.896 -0.4374  0.0317 -0.0174
 2587TIP3    H129176   6.237   5.968   1.825 -0.1103 -0.6701 -0.5702
 2587TIP3    H229177   6.281   6.004   1.965  1.1580  2.1021 -1.6385
 2588TIP3   OH229178   2.023   3.770   3.028 -0.1074  0.0461  1.1945
 2588TIP3    H129179   2.005   3.851   2.981 -1.5510  0.0114  1.6556
 2588TIP3    H229180   2.102   3.735   2.987  0.0554  1.2631  0.4486
 2589TIP3   OH229181   4.613   0.599   5.213 -0.6806 -0.0528 -0.6362
 2589TIP3    H129182   4.680   0.556   5.266 -0.2137  0.7697 -0.5580
 2589TIP3    H229183   4.657   0.676   5.175 -1.2831 -0.0840 -1.4191
 2590TIP3   OH229184   1.886   2.894  12.384 -0.1104  0.4184 -0.4272
 2590TIP3    H129185   1.952   2.961  12.403  0.9601 -1.0741  1.3090
 2590TIP3    H229186   1.803   2.941  12.387  0.4769  1.3813  2.5530
 2591TIP3   OH229187   4.941   5.605  13.198  0.4087  0.0128 -0.1749
 2591TIP3    H129188   4.854   5.569  13.178  0.6377 -0.3940 -0.4317
 2591TIP3    H229189   4.926   5.660  13.276 -0.1946  0.4343 -0.5815
 2592TIP3   OH229190   5.161   0.425   2.054  0.4811 -0.1076  0.2257
 2592TIP3    H129191   5.120   0.343   2.080 -2.8502  1.6855  0.8862
 2592TIP3    H229192   5.182   0.413   1.962 -2.4568 -0.8120 -0.4093
 2593TIP3   OH229193   5.674   4.913   5.219 -0.1689 -0.0365 -0.1138
 2593TIP3    H129194   5.724   4.994   5.211  1.6440 -1.1720 -0.5286
 2593TIP3    H229195   5.740   4.844   5.225 -1.6875 -1.7559 -2.4710
 2594TIP3   OH229196   3.091   1.360  14.926 -0.2056  0.1110 -0.1407
 2594TIP3    H129197   3.155   1.293  14.951 -0.3605 -0.2868 -0.7790
 2594TIP3    H229198   3.010   1.311  14.913 -0.7569  0.6759  1.0968
 2595TIP3   OH229199   0.121   2.341  12.943  0.2520 -0.2724  0.1711
 2595TIP3    H129200   0.031   2.358  12.916 -0.6213 -0.2624  2.9401
 2595TIP3    H229201   0.174   2.398  12.887 -1.5095  0.2701 -0.9784
 2596TIP3   OH229202   5.105   5.147  13.932  0.1854  0.2754 -0.1636
 2596TIP3    H129203   5.094   5.190  14.017 -2.1806  1.0978 -0.8361
 2596TIP3    H229204   5.176   5.194  13.889  1.2864 -0.0417  1.2681
 2597TIP3   OH229205   5.237   0.375   3.394  0.7109  0.5636  0.2038
 2597TIP3    H129206   5.184   0.333   3.326  0.8050  0.3183  0.2814
 2597TIP3    H229207   5.324   0.337   3.383  1.3027  2.2233 -1.0335
 2598TIP3   OH229208   6.295   2.651   0.188 -0.2736 -0.3590 -0.1733
 2598TIP3    H129209   6.230   2.581   0.176  0.0170 -1.1939  2.7863
 2598TIP3    H229210   6.295   2.667   0.282  2.1172  1.2979 -0.4382
 2599TIP3   OH229211   2.761   3.646   3.793 -0.1732  0.0081 -1.0142
 2599TIP3    H129212   2.803   3.629   3.877  1.5691  2.3662 -1.3608
 2599TIP3    H229213   2.690   3.707   3.813  1.2836  1.8803 -1.4519
 2600TIP3   OH229214   2.501   1.617   3.799  0.4333  0.4610  0.0521
 2600TIP3    H129215   2.574   1.673   3.771  2.0554 -1.5263  0.2578
 2600TIP3    H229216   2.518   1.533   3.757 -1.0776 -0.3894  1.1152
 2601TIP3   OH229217   4.009   2.142   0.124  0.1313 -0.6709 -0.2787
 2601TIP3    H129218   4.103   2.124   0.122  0.4431  1.0156 -2.7566
 2601TIP3    H229219   3.969   2.065   0.083  0.6005 -0.3792 -1.2720
 2602TIP3   OH229220   2.655   2.239  15.934 -0.0672 -0.0508  0.4805
 2602TIP3    H129221   2.625   2.187  16.009  1.3963 -0.9013  0.5130
 2602TIP3    H229222   2.588   2.226  15.868 -0.8405 -0.1747  1.2744
 2603TIP3   OH229223   2.302   6.490   3.725  0.1630  0.0732  0.7592
 2603TIP3    H129224   2.353   6.550   3.671  0.0419  0.8847  1.5268
 2603TIP3    H229225   2.266   6.545   3.795  1.1350 -1.0992  2.2347
 2604TIP3   OH229226   1.160   5.125  16.677 -0.6722  0.2138  0.2886
 2604TIP3    H129227   1.138   5.140  16.769  0.1233 -1.5554  0.7891
 2604TIP3    H229228   1.134   5.035  16.660 -0.8584  0.5351 -1.2538
 2605TIP3   OH229229   2.110   2.458  11.848  0.4876 -0.4438 -0.0223
 2605TIP3    H129230   2.133   2.467  11.940  1.0901  1.9456 -0.3854
 2605TIP3    H229231   2.192   2.476  11.801 -0.5396  1.5814 -1.1037
 2606TIP3   OH229232   4.478   4.257  14.455 -0.1595  0.0138 -0.6736
 2606TIP3    H129233   4.444   4.190  14.396 -0.4266 -0.3500 -0.1034
 2606TIP3    H229234   4.401   4.307  14.481 -0.4280 -1.4791  1.4728
 2607TIP3   OH229235   4.455   3.461   1.489  0.2758  0.4457  0.1218
 2607TIP3    H129236   4.422   3.544   1.524  1.8308 -0.0909  3.0761
 2607TIP3    H229237   4.498   3.420   1.564 -0.6488 -3.1291 -1.2212
 2608TIP3   OH229238   5.932   3.105  15.487  0.0464  0.2348  0.0660
 2608TIP3    H129239   6.019   3.104  15.527 -0.3187 -2.1609  0.8864
 2608TIP3    H229240   5.923   3.018  15.447 -1.6621  0.7377 -0.6897
 2609TIP3   OH229241   2.457   2.434  13.233  0.3132  0.5009 -0.0156
 2609TIP3    H129242   2.399   2.453  13.159 -0.7580  1.0958  0.9492
 2609TIP3    H229243   2.409   2.466  13.309  0.8952 -1.1359  1.0664
 2610TIP3   OH229244   5.761   2.366   3.899 -0.4288 -0.4496  0.0749
 2610TIP3    H129245   5.701   2.298   3.870 -1.3761  0.2925  0.2656
 2610TIP3    H229246   5.733   2.387   3.988  1.6194 -1.7626  1.0819
 2611TIP3   OH229247   6.304   0.054   5.720 -0.9313  0.0468  0.5216
 2611TIP3    H129248   6.312  -0.004   5.796 -1.3441 -0.1891  0.3897
 2611TIP3    H229249   6.220   0.030   5.681 -0.9381  0.4927  0.2600
 2612TIP3   OH229250   5.212   6.387  15.777 -0.0624 -0.0400 -0.0337
 2612TIP3    H129251   5.259   6.404  15.858 -0.5080 -0.9122  0.4072
 2612TIP3    H229252   5.176   6.473  15.752  2.0893  0.7159 -0.6025
 2613TIP3   OH229253   2.181   1.646  16.832 -0.5631  0.0568  0.5612
 2613TIP3    H129254   2.257   1.630  16.775 -0.3011  1.2082  0.5873
 2613TIP3    H229255   2.219   1.666  16.918 -0.9618 -2.2117  1.3172
 2614TIP3   OH229256   4.996   6.234  15.828  0.0650  0.3014 -0.2159
 2614TIP3    H129257   4.948   6.279  15.898 -0.5462  0.1430 -0.5291
 2614TIP3    H229258   5.062   6.297  15.800  1.1880 -0.1220  1.4085
 2615TIP3   OH229259   2.002   1.353  13.430 -0.4032  0.5772  0.8855
 2615TIP3    H129260   2.021   1.286  13.364  0.4113  1.5263  0.1522
 2615TIP3    H229261   2.050   1.324  13.507  1.3763  1.2178  0.0401
 2616TIP3   OH229262   2.537   0.980  12.948  0.3131 -0.1811 -0.7897
 2616TIP3    H129263   2.454   0.998  12.904 -0.5629 -0.1455  0.8202
 2616TIP3    H229264   2.562   1.063  12.987  0.3001 -0.5501  0.0268
 2617TIP3   OH229265   1.764   3.377  16.128 -0.3300  0.4561 -0.1299
 2617TIP3    H129266   1.831   3.446  16.124  1.4103 -1.2295 -1.2386
 2617TIP3    H229267   1.775   3.338  16.214 -0.2260  0.5218 -0.1136
 2618TIP3   OH229268   6.176   1.219   4.040 -0.0236  0.9003 -0.4093
 2618TIP3    H129269   6.264   1.239   4.072 -0.5330  1.8967  0.4292
 2618TIP3    H229270   6.180   1.240   3.947  0.8043  0.3082 -0.5170
 2619TIP3   OH229271   6.591   0.585   5.285  0.3261  0.5409  0.1656
 2619TIP3    H129272   6.617   0.514   5.343  2.1403  1.6244  0.7152
 2619TIP3    H229273   6.495   0.582   5.284  0.3452 -0.7726  1.5840
 2620TIP3   OH229274   1.341   6.042  11.488 -0.1473  0.1284 -0.4046
 2620TIP3    H129275   1.298   6.114  11.533 -3.5353 -2.6338  0.9858
 2620TIP3    H229276   1.396   6.001  11.555 -0.8736 -0.6018 -0.2405
 2621TIP3   OH229277   5.944   0.382   2.458  0.1431 -0.1823  0.3106
 2621TIP3    H129278   6.016   0.416   2.406  0.3603  0.7928  1.2231
 2621TIP3    H229279   5.870   0.440   2.438 -0.4028 -1.1839 -0.6307
 2622TIP3   OH229280   0.848   4.033  12.866  0.1578  0.1624 -0.2224
 2622TIP3    H129281   0.798   3.955  12.889  0.7340 -0.8008 -2.0858
 2622TIP3    H229282   0.782   4.100  12.851 -0.7075 -1.2224 -3.1535
 2623TIP3   OH229283   3.385   3.217   1.999 -0.0279 -0.2180  0.7237
 2623TIP3    H129284   3.426   3.220   2.086  1.7425  1.4044 -0.1023
 2623TIP3    H229285   3.459   3.207   1.939 -0.9428  1.6239 -0.7549
 2624TIP3   OH229286   4.825   6.012  15.439 -0.1895  0.6012  0.1563
 2624TIP3    H129287   4.795   6.081  15.497 -0.7342  1.8704 -1.5883
 2624TIP3    H229288   4.879   5.955  15.494 -0.2002  2.0939  1.7253
 2625TIP3   OH229289   6.277   3.728   2.638 -0.7675  0.3131 -0.1407
 2625TIP3    H129290   6.206   3.671   2.667 -1.0515  0.5420 -0.3928
 2625TIP3    H229291   6.285   3.712   2.544 -1.6879  1.6117 -0.4517
 2626TIP3   OH229292   4.070   4.758  14.503 -0.1812  0.1042 -0.3069
 2626TIP3    H129293   4.048   4.827  14.440 -0.9051 -1.1201 -1.4404
 2626TIP3    H229294   4.131   4.702  14.455  0.3253 -0.0890  0.5693
 2627TIP3   OH229295   4.437   1.775   2.188  0.5899  0.2232 -0.3983
 2627TIP3    H129296   4.385   1.791   2.109 -0.6122  1.5439  0.6242
 2627TIP3    H229297   4.406   1.690   2.219  0.7089 -0.0730 -1.0771
 2628TIP3   OH229298   2.630   4.133  16.935  0.2903  0.1844 -0.3894
 2628TIP3    H129299   2.565   4.166  16.874  0.3927 -3.4634 -2.6042
 2628TIP3    H229300   2.597   4.047  16.962  2.1621  0.0508  1.6956
 2629TIP3   OH229301   4.949   5.447  13.729  0.3733 -0.4199 -0.6246
 2629TIP3    H129302   4.982   5.536  13.715 -1.5563  0.5561  0.7115
 2629TIP3    H229303   4.905   5.424  13.648  0.3012  0.1199 -0.7397
 2630TIP3   OH229304   2.475   5.331  12.472  0.5611 -0.2632  0.2742
 2630TIP3    H129305   2.421   5.395  12.425  0.6549 -0.1565  0.3131
 2630TIP3    H229306   2.565   5.358  12.453  0.6050  0.8918  2.0275
 2631TIP3   OH229307   4.994   6.583   1.013 -0.1240 -0.5110  0.0556
 2631TIP3    H129308   4.979   6.653   0.949 -1.8337 -0.3010  0.6391
 2631TIP3    H229309   5.079   6.603   1.051  0.4433 -0.0626 -1.4252
 2632TIP3   OH229310   4.091   4.617   1.885  0.0716 -0.4406 -0.0545
 2632TIP3    H129311   4.145   4.680   1.931  2.1612 -1.7353 -0.6773
 2632TIP3    H229312   4.105   4.635   1.792 -1.1488 -0.3092 -0.2265
 2633TIP3   OH229313   5.499   0.590   5.497 -0.8640  0.1112  0.3028
 2633TIP3    H129314   5.574   0.587   5.437 -1.2911  1.2578 -0.3101
 2633TIP3    H229315   5.444   0.517   5.470 -0.2017 -0.4451  0.4453
 2634TIP3   OH229316   3.501   5.029  14.402  0.1912  0.3673  0.4555
 2634TIP3    H129317   3.544   4.979  14.470  0.1574  1.1976  1.1004
 2634TIP3    H229318   3.474   4.964  14.337 -3.1271 -0.9469  2.9935
 2635TIP3   OH229319   5.783   0.429  12.723 -0.5271  0.1906 -0.1637
 2635TIP3    H129320   5.833   0.386  12.792 -0.2610 -1.4564 -1.3604
 2635TIP3    H229321   5.751   0.510  12.764 -0.6604 -0.9088  1.9861
 2636TIP3   OH229322   5.206   5.348  11.716  0.0283 -0.4177  0.1304
 2636TIP3    H129323   5.187   5.260  11.750  0.0889 -0.7042 -0.5716
 2636TIP3    H229324   5.165   5.407  11.779  0.5008 -0.9318  0.9377
 2637TIP3   OH229325   1.456   3.712   0.981 -0.5190 -0.0693 -0.2411
 2637TIP3    H129326   1.437   3.806   0.975  2.4158  0.5651 -0.1055
 2637TIP3    H229327   1.523   3.706   1.049 -0.3932 -2.2200 -0.5492
 2638TIP3   OH229328   4.101   5.401   2.644 -0.5238 -0.3581  0.3173
 2638TIP3    H129329   4.088   5.490   2.611 -0.1560 -0.7444 -0.9082
 2638TIP3    H229330   4.017   5.378   2.684 -0.3630  0.8313  1.3758
 2639TIP3   OH229331   1.576   0.271  10.823 -0.0355 -0.2564  0.3647
 2639TIP3    H129332   1.558   0.362  10.800  0.7885 -0.1886  0.0040
 2639TIP3    H229333   1.546   0.221  10.747 -1.3714 -0.3718  0.9444
 2640TIP3   OH229334   4.838   1.411   5.023 -0.1462  0.2777 -0.1886
 2640TIP3    H129335   4.869   1.383   4.937  1.4180 -1.0679  0.7830
 2640TIP3    H229336   4.814   1.503   5.012 -0.1432  0.0615 -2.0977
 2641TIP3   OH229337   5.896   0.195  11.907 -0.6523  0.4098  0.1051
 2641TIP3    H129338   5.916   0.279  11.866 -2.8272  1.0193  0.1891
 2641TIP3    H229339   5.832   0.217  11.974 -1.1321 -1.3018  0.2183
 2642TIP3   OH229340   4.551   2.577   4.772 -0.1607 -0.4102 -0.6307
 2642TIP3    H129341   4.498   2.655   4.764 -1.3136 -1.0206  0.8907
 2642TIP3    H229342   4.489   2.507   4.793  1.0479 -1.4039 -0.2726
 2643TIP3   OH229343   3.775   3.708  15.720  0.0269  0.1459  0.1846
 2643TIP3    H129344   3.779   3.667  15.806  0.8355  2.1173  1.1184
 2643TIP3    H229345   3.821   3.646  15.663 -0.8179 -1.3456  1.0707
 2644TIP3   OH229346   2.596   3.874   3.825 -0.2331 -0.0434 -0.4954
 2644TIP3    H129347   2.643   3.917   3.753  2.6699  1.6467  2.2939
 2644TIP3    H229348   2.550   3.944   3.870 -0.1571 -0.7172  0.6693
 2645TIP3   OH229349   1.647   2.070  14.181 -0.0666  0.0518  0.0609
 2645TIP3    H129350   1.593   2.109  14.250 -1.0621 -0.4482 -0.4288
 2645TIP3    H229351   1.620   1.979  14.177 -1.1933  0.4549 -2.1085
 2646TIP3   OH229352   0.903   5.781   2.703 -0.0420 -0.0601  0.3288
 2646TIP3    H129353   0.913   5.697   2.748  0.7614  0.0097  0.2755
 2646TIP3    H229354   0.817   5.813   2.732 -0.1435 -0.6743  0.7169
 2647TIP3   OH229355   3.158   3.904  11.757 -0.5292 -0.1882  0.5985
 2647TIP3    H129356   3.247   3.897  11.724 -0.5456  0.4051  0.4271
 2647TIP3    H229357   3.158   3.984  11.810 -1.2071  0.3327 -0.1824
 2648TIP3   OH229358   1.835   6.360  14.768 -0.1644 -0.0068 -0.1750
 2648TIP3    H129359   1.822   6.453  14.750  0.4283  0.4571  1.6972
 2648TIP3    H229360   1.926   6.343  14.743 -0.7282 -0.4672 -1.9907
 2649TIP3   OH229361   1.905   5.573   1.110 -0.1156  0.2981  0.0859
 2649TIP3    H129362   1.812   5.580   1.089 -0.2178  0.2699  0.5237
 2649TIP3    H229363   1.925   5.480   1.104 -0.1155  0.3038 -0.0060
 2650TIP3   OH229364   2.732   2.590   0.582 -0.6322  0.0973  0.5229
 2650TIP3    H129365   2.700   2.507   0.618 -0.6041 -0.2775 -0.2993
 2650TIP3    H229366   2.654   2.644   0.573 -0.5777  0.3614  1.5677
 2651TIP3   OH229367   6.192   2.422  12.709 -0.0278  0.4225  0.0170
 2651TIP3    H129368   6.173   2.351  12.647  0.5920  0.3248 -0.0687
 2651TIP3    H229369   6.107   2.443  12.748 -0.3502  0.1863 -0.5480
 2652TIP3   OH229370   2.261   4.822  13.182 -0.1586 -0.1504  0.0922
 2652TIP3    H129371   2.205   4.811  13.105  0.2395  0.3947 -0.2832
 2652TIP3    H229372   2.302   4.908  13.169  0.6682 -0.4922  0.4198
 2653TIP3   OH229373   4.101   6.783  10.378 -0.5249 -0.2737  0.1730
 2653TIP3    H129374   4.023   6.820  10.337  0.7009  2.1501 -0.0545
 2653TIP3    H229375   4.166   6.853  10.374  1.4191 -1.9693  1.0980
 2654TIP3   OH229376   3.491   4.556  15.222 -0.5993 -0.6088  0.7333
 2654TIP3    H129377   3.535   4.471  15.220 -1.4893 -1.0557  0.0113
 2654TIP3    H229378   3.399   4.536  15.207 -0.7502  0.5291  0.1015
 2655TIP3   OH229379   0.107   4.735  16.227 -0.7584 -0.0000 -0.2644
 2655TIP3    H129380   0.096   4.828  16.206  1.6254  0.2697 -0.5237
 2655TIP3    H229381   0.093   4.730  16.321 -3.1579  0.2237 -0.5888
 2656TIP3   OH229382   6.563   3.335   4.219  0.1373  0.3180 -0.2091
 2656TIP3    H129383   6.601   3.301   4.300 -0.3585  1.0013  0.3117
 2656TIP3    H229384   6.500   3.401   4.247 -1.3451 -0.6788 -1.0553
 2657TIP3   OH229385   5.577   5.373   0.516 -0.3149  0.8002 -0.3902
 2657TIP3    H129386   5.544   5.430   0.586 -2.3275  0.3744 -0.9476
 2657TIP3    H229387   5.629   5.307   0.562 -1.3339  0.7334  0.7055
 2658TIP3   OH229388   4.757   4.750   2.891  0.4482  0.1728  0.0047
 2658TIP3    H129389   4.697   4.821   2.869  0.1070 -0.2310 -0.3909
 2658TIP3    H229390   4.763   4.699   2.810  0.4030 -0.4571  0.4019
 2659TIP3   OH229391   1.882   6.349  17.031 -0.0976 -0.1102 -0.4208
 2659TIP3    H129392   1.869   6.429  17.083 -0.3436 -1.2081  1.2303
 2659TIP3    H229393   1.977   6.344  17.018 -0.0597  0.3058 -0.3269
 2660TIP3   OH229394   3.565   0.603   4.176 -0.1104  0.0350  0.7186
 2660TIP3    H129395   3.603   0.556   4.102 -0.1143  0.2391  0.5858
 2660TIP3    H229396   3.486   0.644   4.141 -1.6120 -2.0888  1.4970
 2661TIP3   OH229397   5.984   2.703  10.757 -0.5014  0.0565 -0.5664
 2661TIP3    H129398   5.980   2.633  10.823 -1.6766 -0.5059 -1.2271
 2661TIP3    H229399   6.074   2.734  10.761 -0.3201 -0.5898  0.6720
 2662TIP3   OH229400   2.582   2.525   5.723  0.2167 -0.4457 -0.1520
 2662TIP3    H129401   2.509   2.484   5.678  0.2356  2.1625 -2.7274
 2662TIP3    H229402   2.654   2.463   5.714 -0.6341 -1.3221 -1.0051
 2663TIP3   OH229403   2.954   0.065   5.774 -0.3779  0.1007 -0.5380
 2663TIP3    H129404   2.907   0.047   5.856  0.6607 -0.9308 -0.1431
 2663TIP3    H229405   2.957  -0.020   5.729  0.1115  0.4019 -1.0784
 2664TIP3   OH229406   3.525   6.532  10.905  0.3118 -0.5269 -0.1570
 2664TIP3    H129407   3.501   6.512  10.815  2.2148  0.5793 -0.9265
 2664TIP3    H229408   3.505   6.452  10.953  0.8230 -1.6927 -1.8503
 2665TIP3   OH229409   6.653   5.181  16.523  0.3878 -0.5150  0.4085
 2665TIP3    H129410   6.609   5.123  16.462  0.4183  2.4557 -2.6051
 2665TIP3    H229411   6.588   5.249  16.542  1.0256 -0.3907  2.2153
 2666TIP3   OH229412   5.475   2.076   4.215 -0.6608 -0.2523  0.2525
 2666TIP3    H129413   5.406   2.013   4.194 -0.1045 -1.0845  0.8909
 2666TIP3    H229414   5.516   2.042   4.294 -0.0247  0.6513  0.3228
 2667TIP3   OH229415   4.199   1.661   0.149 -0.5074 -0.0684  0.2607
 2667TIP3    H129416   4.226   1.575   0.117  0.9901  0.3680  0.3148
 2667TIP3    H229417   4.192   1.716   0.071  0.3640  0.2456  0.3980
 2668TIP3   OH229418   0.642   2.384   2.356 -0.2345  0.3481 -0.3019
 2668TIP3    H129419   0.590   2.318   2.402 -2.6757  1.0358 -1.9249
 2668TIP3    H229420   0.718   2.337   2.323 -1.5674 -1.4975 -0.8023
 2669TIP3   OH229421   3.342   4.143   4.839  0.2726  0.9312  0.2558
 2669TIP3    H129422   3.250   4.134   4.813  0.3721  1.3307 -0.2486
 2669TIP3    H229423   3.379   4.202   4.773  0.6242  1.6378  1.0836
 2670TIP3   OH229424   6.078   5.242  12.084  0.3110 -0.2703 -0.2738
 2670TIP3    H129425   6.162   5.284  12.104  0.2410 -0.8306  1.2363
 2670TIP3    H229426   6.071   5.171  12.147 -2.1500  0.8952  0.8499
 2671TIP3   OH229427   5.657   1.509  15.864  0.0782  0.2393 -0.3909
 2671TIP3    H129428   5.570   1.539  15.835  0.2464  0.3455 -0.7983
 2671TIP3    H229429   5.640   1.427  15.910 -0.5688  1.6679  2.0413
 2672TIP3   OH229430   5.460   3.245   0.659  0.1662 -0.6967 -0.2530
 2672TIP3    H129431   5.453   3.339   0.643 -0.0730 -0.8949 -1.3001
 2672TIP3    H229432   5.461   3.205   0.572 -3.2184 -1.9062  0.2050
 2673TIP3   OH229433   3.689   4.596   2.957 -0.1555 -0.0653  0.0540
 2673TIP3    H129434   3.622   4.579   3.023  0.3636 -0.4936  0.4701
 2673TIP3    H229435   3.722   4.683   2.979  0.2762 -0.3613  0.5855
 2674TIP3   OH229436   5.052   1.523  11.097  0.0315  0.1851 -0.0342
 2674TIP3    H129437   5.129   1.469  11.078 -1.2444 -2.1662  1.2907
 2674TIP3    H229438   5.057   1.595  11.033  2.5046 -0.7317 -0.9419
 2675TIP3   OH229439   3.160   5.298   4.270 -0.1520 -0.2455 -0.0051
 2675TIP3    H129440   3.165   5.205   4.245 -0.0760 -0.6167  1.3828
 2675TIP3    H229441   3.138   5.343   4.188 -0.3038 -1.4984 -0.6686
 2676TIP3   OH229442   0.151   0.753   1.101 -1.1878  0.1700 -0.5351
 2676TIP3    H129443   0.152   0.707   1.185 -0.5398  0.9530 -0.1013
 2676TIP3    H229444   0.083   0.819   1.110 -0.7504  0.6094 -0.4252
 2677TIP3   OH229445   2.351   4.022   2.915 -0.4807  0.3110 -0.1830
 2677TIP3    H129446   2.326   4.108   2.947  0.9585  0.9095 -0.6468
 2677TIP3    H229447   2.392   4.038   2.830  1.0111 -0.6753  0.3181
 2678TIP3   OH229448   6.105   3.275  14.390  0.1933  0.1215  0.1317
 2678TIP3    H129449   6.198   3.292  14.373  0.2208  0.3816  0.5342
 2678TIP3    H229450   6.096   3.180  14.383  0.7219 -0.0176  1.2125
 2679TIP3   OH229451   2.854   1.575  16.590 -0.2534 -0.3298  0.8159
 2679TIP3    H129452   2.764   1.564  16.560  0.2336 -1.7464 -0.1606
 2679TIP3    H229453   2.859   1.666  16.620 -1.9641 -0.2103  0.7521
 2680TIP3   OH229454   1.903   3.501   3.062 -0.1872 -0.1272  0.1891
 2680TIP3    H129455   1.813   3.517   3.090 -1.2370 -0.5730 -2.7222
 2680TIP3    H229456   1.936   3.587   3.036 -0.1146 -0.1229  0.2947
 2681TIP3   OH229457   5.279   1.891   4.165 -0.5260  0.5355  0.1970
 2681TIP3    H129458   5.269   1.808   4.212 -0.2714 -0.1072 -0.8466
 2681TIP3    H229459   5.199   1.940   4.184 -0.5213  0.1963  1.1047
 2682TIP3   OH229460   6.411   3.909  13.901 -0.6247  0.1415  0.1894
 2682TIP3    H129461   6.377   3.890  13.813  1.7262  1.3174 -1.0425
 2682TIP3    H229462   6.381   3.998  13.919 -1.2237 -0.1504  0.6602
 2683TIP3   OH229463   2.975   2.859  14.711 -0.0311  0.3322  0.0697
 2683TIP3    H129464   2.959   2.792  14.778  1.3966 -1.4268 -1.2863
 2683TIP3    H229465   3.001   2.937  14.760 -1.4760 -0.1583  1.6680
 2684TIP3   OH229466   2.039   3.612   4.618 -0.4411 -0.1194  0.1787
 2684TIP3    H129467   2.099   3.559   4.671 -0.6311 -0.6654 -0.1383
 2684TIP3    H229468   2.083   3.696   4.608  1.0515 -1.0581 -1.4687
 2685TIP3   OH229469   5.573   3.335   3.550  0.5901  0.1354  0.0462
 2685TIP3    H129470   5.548   3.427   3.545  1.1814  0.2765 -0.3138
 2685TIP3    H229471   5.493   3.291   3.580 -1.1491  0.1648 -4.1143
 2686TIP3   OH229472   4.570   4.257  12.225 -0.4957  0.2267  0.2104
 2686TIP3    H129473   4.500   4.224  12.281  0.5805 -1.3967  0.6389
 2686TIP3    H229474   4.524   4.293  12.149 -1.7832 -1.5663  0.0863
 2687TIP3   OH229475   1.046   5.816   6.362  0.2297 -0.0888  0.1866
 2687TIP3    H129476   0.954   5.826   6.384 -0.1266  0.4483 -1.4784
 2687TIP3    H229477   1.056   5.724   6.339  0.0590 -0.1056  0.1854
 2688TIP3   OH229478   0.554   0.919  14.834  0.0844 -0.0049  0.1100
 2688TIP3    H129479   0.595   0.853  14.777  3.6179  0.1431  2.3365
 2688TIP3    H229480   0.521   0.985  14.774 -0.4907 -2.1181 -1.9904
 2689TIP3   OH229481   4.408   5.615  16.894 -0.3399  0.3759 -0.5222
 2689TIP3    H129482   4.470   5.614  16.967 -0.0054  1.1422 -0.7857
 2689TIP3    H229483   4.430   5.538  16.843  0.7458  0.9173 -0.8958
 2690TIP3   OH229484   3.361   5.654   2.559  0.5801 -0.0507 -0.3848
 2690TIP3    H129485   3.378   5.561   2.574 -1.2632 -0.3206  0.1759
 2690TIP3    H229486   3.294   5.656   2.491  0.5067  0.8699 -0.2901
 2691TIP3   OH229487   0.106   6.550   5.701 -0.1882 -0.0414 -0.2815
 2691TIP3    H129488   0.137   6.468   5.661  0.0996  0.5193 -1.2108
 2691TIP3    H229489   0.186   6.592   5.733 -0.1829  0.5493 -1.0702
 2692TIP3   OH229490   5.054   5.270  15.377 -0.5740 -0.0426  0.4744
 2692TIP3    H129491   4.983   5.231  15.428 -1.6663  0.1967 -0.8448
 2692TIP3    H229492   5.010   5.318  15.307  0.9185 -1.2360 -1.3190
 2693TIP3   OH229493   4.055   5.502  11.055 -0.5094 -0.0211  0.2774
 2693TIP3    H129494   4.004   5.563  11.107  2.0284  1.2163  1.4183
 2693TIP3    H229495   4.098   5.445  11.119  0.9546  0.1299 -0.5256
 2694TIP3   OH229496   0.595   1.433   4.574 -0.3314  0.8823 -0.0581
 2694TIP3    H129497   0.582   1.495   4.503 -3.0215 -1.4556 -1.7203
 2694TIP3    H229498   0.511   1.387   4.582  1.5063 -2.4719  1.1269
 2695TIP3   OH229499   6.697   2.992  14.472  0.3206  0.1523 -0.2005
 2695TIP3    H129500   6.681   3.086  14.468  0.6092  0.1750 -0.9306
 2695TIP3    H229501   6.783   2.984  14.512  1.2575  0.2991 -2.1323
 2696TIP3   OH229502   2.982   0.602  13.705  0.1615 -0.7853 -0.0134
 2696TIP3    H129503   3.067   0.592  13.660  0.8032 -0.2734  1.0716
 2696TIP3    H229504   3.005   0.609  13.797 -0.9249  1.4608  0.0952
 2697TIP3   OH229505   4.073   3.941   0.877  0.4400  0.1536  0.8384
 2697TIP3    H129506   4.014   4.016   0.886 -0.5892 -0.7543  1.6816
 2697TIP3    H229507   4.111   3.952   0.790 -1.4730  0.3982  0.0014
 2698TIP3   OH229508   5.994   1.993  16.323  0.1919 -0.1588 -0.4835
 2698TIP3    H129509   5.960   2.039  16.400 -1.4939 -0.8186 -0.8093
 2698TIP3    H229510   6.037   2.062  16.271 -0.7333  0.7312 -0.0921
 2699TIP3   OH229511   1.846   4.702  10.606  0.5835 -0.0081 -0.3536
 2699TIP3    H129512   1.933   4.688  10.644  1.6104  0.0186 -2.5853
 2699TIP3    H229513   1.861   4.697  10.511 -1.5533  1.7160 -0.8095
 2700TIP3   OH229514   1.375   3.775  14.139  0.4324 -1.1183 -0.1653
 2700TIP3    H129515   1.403   3.763  14.230  0.7015 -0.0109 -0.0968
 2700TIP3    H229516   1.283   3.799  14.145  0.5652 -0.6155 -0.1663
 2701TIP3   OH229517   0.220   1.155   1.877  0.6507 -0.1096 -0.3688
 2701TIP3    H129518   0.155   1.103   1.924  1.7727 -0.3088  1.0010
 2701TIP3    H229519   0.239   1.228   1.936  0.9519  0.4736 -1.1804
 2702TIP3   OH229520   1.386   4.779  16.656  0.0287 -0.5656 -0.0982
 2702TIP3    H129521   1.405   4.856  16.603  1.1360 -1.1734 -0.5964
 2702TIP3    H229522   1.295   4.792  16.685  0.2262  0.9520 -0.1079
 2703TIP3   OH229523   4.277   5.085  16.734  0.6070 -0.7328 -0.0041
 2703TIP3    H129524   4.360   5.130  16.722  0.5119 -0.9341 -1.6134
 2703TIP3    H229525   4.293   4.996  16.701 -0.4044 -0.5905 -0.9221
 2704TIP3   OH229526   5.054   6.334   0.204 -0.2729 -0.2222  0.3635
 2704TIP3    H129527   5.103   6.398   0.255 -0.9830 -0.5108  1.4129
 2704TIP3    H229528   5.108   6.255   0.204  0.3240  0.1740 -0.4313
 2705TIP3   OH229529   3.042   3.757  13.859  0.4745  0.3757 -0.3139
 2705TIP3    H129530   3.129   3.738  13.823 -0.7532 -4.4381 -1.0790
 2705TIP3    H229531   2.986   3.765  13.782 -0.3264  0.3941  0.2714
 2706TIP3   OH229532   2.473   2.585  15.846 -0.3186 -0.3057  0.4037
 2706TIP3    H129533   2.540   2.538  15.798  0.1865  1.1688 -0.3738
 2706TIP3    H229534   2.391   2.562  15.802 -0.1704 -1.0571  0.5215
 2707TIP3   OH229535   1.022   4.791   1.155  0.0908  0.1939  0.7551
 2707TIP3    H129536   0.972   4.872   1.167 -0.2706  0.2699 -1.0332
 2707TIP3    H229537   0.979   4.727   1.212  0.2776  1.2195  2.0553
 2708TIP3   OH229538   5.282   1.221   0.874  0.1304 -0.0409  0.2522
 2708TIP3    H129539   5.248   1.265   0.952  1.1413 -0.2875  0.8434
 2708TIP3    H229540   5.285   1.290   0.807  2.0860  0.9183  1.2787
 2709TIP3   OH229541   3.826   3.522  12.737  0.2782  0.5143  0.2526
 2709TIP3    H129542   3.830   3.522  12.832 -0.5541 -0.1191  0.2850
 2709TIP3    H229543   3.849   3.432  12.712 -0.9704  0.2908 -0.0829
 2710TIP3   OH229544   1.189   3.875  14.985  0.1328  0.4393 -0.1012
 2710TIP3    H129545   1.173   3.969  14.987  2.2061  0.8151 -0.4491
 2710TIP3    H229546   1.142   3.841  15.061 -0.4686  1.7788  0.1373
 2711TIP3   OH229547   2.553   1.944   2.317  0.3098 -0.1385  0.5028
 2711TIP3    H129548   2.502   1.940   2.398 -1.5679 -1.3847 -0.7234
 2711TIP3    H229549   2.502   2.002   2.260  1.3902  0.3591  0.0362
 2712TIP3   OH229550   3.065   2.353  12.377  0.7598 -0.3033 -0.2795
 2712TIP3    H129551   3.132   2.302  12.422 -0.6923 -2.3303 -0.3425
 2712TIP3    H229552   3.113   2.398  12.307  1.7135 -3.6937 -1.9120
 2713TIP3   OH229553   0.346   5.191  15.620  0.3756  0.0512  0.4501
 2713TIP3    H129554   0.335   5.106  15.663  0.2700  0.2279  0.7741
 2713TIP3    H229555   0.338   5.172  15.526 -0.0976 -0.2320  0.5446
 2714TIP3   OH229556   0.773   3.799  11.400 -0.0144  0.0242  0.5660
 2714TIP3    H129557   0.862   3.764  11.399 -0.4553 -1.1027  0.7369
 2714TIP3    H229558   0.736   3.774  11.315  0.2519  1.6069 -0.0352
 2715TIP3   OH229559   5.211   0.788  13.816  0.4083  0.2146  0.4848
 2715TIP3    H129560   5.201   0.694  13.829 -0.5706  0.3282  0.5967
 2715TIP3    H229561   5.142   0.827  13.871  1.0317  1.0071  0.7125
 2716TIP3   OH229562   6.209   5.690  16.585 -0.2266  0.4066 -0.7131
 2716TIP3    H129563   6.253   5.732  16.659 -1.3690 -0.0029  0.2219
 2716TIP3    H229564   6.280   5.670  16.523  0.8279  0.2577  0.5062
 2717TIP3   OH229565   4.780   5.850  13.067  0.4336  0.4100 -0.4207
 2717TIP3    H129566   4.790   5.808  12.981 -1.1681  1.3590 -1.0904
 2717TIP3    H229567   4.869   5.864  13.097  1.0171 -1.2325 -1.2901
 2718TIP3   OH229568   0.079   1.979   2.598  0.6046 -0.2082  0.0659
 2718TIP3    H129569   0.129   1.929   2.534 -0.1579 -0.4459 -0.3500
 2718TIP3    H229570  -0.008   1.987   2.559 -0.5559 -2.4201  2.1567
 2719TIP3   OH229571   2.227   5.608  11.574 -0.2728 -0.0429  0.0665
 2719TIP3    H129572   2.167   5.675  11.542  0.4355  0.0778 -1.0247
 2719TIP3    H229573   2.260   5.565  11.495  2.4336  1.0837  0.5021
 2720TIP3   OH229574   5.851   2.318  13.483  0.1649 -0.0677 -0.4029
 2720TIP3    H129575   5.773   2.361  13.517 -0.1401  1.0332 -2.4221
 2720TIP3    H229576   5.818   2.244  13.432  0.4157  0.5239 -1.4348
 2721TIP3   OH229577   3.296   5.390  12.005 -0.2338  0.2788 -0.1205
 2721TIP3    H129578   3.231   5.339  12.054  1.5912 -0.3971  1.6490
 2721TIP3    H229579   3.330   5.328  11.941 -2.5606  1.1386 -2.2603
 2722TIP3   OH229580   4.919   0.218  11.024  0.6850  0.7642  0.1081
 2722TIP3    H129581   4.956   0.164  10.954  1.5969  1.6445 -0.1096
 2722TIP3    H229582   4.962   0.187  11.104 -0.4717 -0.3470  0.3219
 2723TIP3   OH229583   5.574   2.127   1.287  0.2414  0.1524  0.3364
 2723TIP3    H129584   5.550   2.051   1.233  1.4448 -1.7383  2.3806
 2723TIP3    H229585   5.491   2.169   1.307 -0.5169 -1.0303 -0.2643
 2724TIP3   OH229586   0.065   5.461   3.772  0.1407  0.8153 -0.3608
 2724TIP3    H129587   0.036   5.484   3.861 -0.2345  0.0147 -0.2690
 2724TIP3    H229588   0.159   5.478   3.772  0.1635  0.6999  0.2315
 2725TIP3   OH229589   0.912   4.465  12.521 -0.4528 -0.5763  0.1155
 2725TIP3    H129590   0.992   4.464  12.469 -0.5325  1.0985 -0.0844
 2725TIP3    H229591   0.933   4.413  12.598  0.7324 -0.4225 -0.0877
 2726TIP3   OH229592   3.472   6.270  15.101  0.0652  0.2530 -0.0565
 2726TIP3    H129593   3.474   6.207  15.030  1.1246 -0.9428  1.0065
 2726TIP3    H229594   3.390   6.251  15.147 -1.1750  1.7737 -1.5944
 2727TIP3   OH229595   6.332   6.051   4.129 -0.1016 -0.7819  0.0408
 2727TIP3    H129596   6.423   6.056   4.159  0.1334  0.5906 -0.8785
 2727TIP3    H229597   6.287   6.119   4.177 -0.8859 -2.1426  1.2633
 2728TIP3   OH229598   1.728   2.857   5.309  0.0728  0.2044 -0.1288
 2728TIP3    H129599   1.720   2.762   5.316  0.2537  0.2044  0.1215
 2728TIP3    H229600   1.742   2.886   5.399 -1.4138  0.6147 -0.0163
 2729TIP3   OH229601   3.680   4.952   5.994  0.1012  0.7462 -0.1138
 2729TIP3    H129602   3.652   4.896   5.921  1.2351 -0.7783  0.5859
 2729TIP3    H229603   3.776   4.951   5.989  0.1460  2.1435  0.2855
 2730TIP3   OH229604   6.664   0.665   3.181  0.1740  0.8425  0.2478
 2730TIP3    H129605   6.758   0.677   3.169  0.1124  0.5093 -0.5586
 2730TIP3    H229606   6.657   0.580   3.224  0.1608  0.1830 -1.0398
 2731TIP3   OH229607   1.608   1.517  12.362  0.3999 -0.0286  0.1294
 2731TIP3    H129608   1.656   1.455  12.418  1.3603  1.3358  0.8402
 2731TIP3    H229609   1.664   1.526  12.284  0.5657  0.4123  0.2991
 2732TIP3   OH229610   2.125   0.708   1.818 -0.2475 -0.7156  0.3387
 2732TIP3    H129611   2.198   0.679   1.763 -1.1929 -2.4875 -0.0276
 2732TIP3    H229612   2.060   0.742   1.755  0.5343  1.5302  0.7121
 2733TIP3   OH229613   4.935   2.148   0.369 -0.2158 -0.2510 -0.0585
 2733TIP3    H129614   4.964   2.211   0.435 -0.1224 -1.1581  0.7865
 2733TIP3    H229615   5.014   2.126   0.320  0.2594 -1.6398  1.3121
 2734TIP3   OH229616   2.787   5.157  14.087 -0.1194 -0.7953  0.2059
 2734TIP3    H129617   2.759   5.113  14.168 -0.8772 -0.6832  0.0057
 2734TIP3    H229618   2.732   5.119  14.019  0.1970 -0.5505 -0.1882
 2735TIP3   OH229619   3.419   2.752  15.930 -0.6782 -0.1273  0.1641
 2735TIP3    H129620   3.383   2.830  15.887  1.2623  0.9123  0.3593
 2735TIP3    H229621   3.444   2.783  16.017  1.7150 -0.5144 -0.3604
 2736TIP3   OH229622   2.361   1.236   3.496 -0.1455 -0.1019 -0.7725
 2736TIP3    H129623   2.410   1.154   3.502 -0.2656 -0.1092  0.1585
 2736TIP3    H229624   2.420   1.296   3.451 -0.1719 -0.7884 -1.7353
 2737TIP3   OH229625   3.245   4.497   4.162 -0.6773 -0.2369 -0.5734
 2737TIP3    H129626   3.230   4.405   4.185  0.5658 -0.7375 -1.6945
 2737TIP3    H229627   3.203   4.507   4.076 -1.9699  0.6119  0.1404
 2738TIP3   OH229628   1.194   3.546   5.583 -0.5793 -0.7286 -0.6776
 2738TIP3    H129629   1.177   3.468   5.636  2.9724 -0.0613  1.6471
 2738TIP3    H229630   1.203   3.617   5.647  0.8264  0.6991 -2.3935
 2739TIP3   OH229631   1.669   6.395   1.188 -0.0490 -0.4540  0.2204
 2739TIP3    H129632   1.653   6.469   1.130  0.0084 -1.4855 -1.1415
 2739TIP3    H229633   1.598   6.334   1.169  0.2442 -1.0121  0.8859
 2740TIP3   OH229634   6.297   1.302   0.351 -0.1260  0.2743  0.1773
 2740TIP3    H129635   6.377   1.352   0.333 -0.3463  1.1056  1.4275
 2740TIP3    H229636   6.289   1.242   0.277  2.5819 -1.0126  0.8542
 2741TIP3   OH229637   6.243   5.787  15.319  0.3099  0.0917 -0.3133
 2741TIP3    H129638   6.231   5.881  15.335  1.9662  0.3789 -0.7394
 2741TIP3    H229639   6.167   5.763  15.266  0.4272  1.4208 -1.1213
 2742TIP3   OH229640   5.651   5.765   5.195 -0.3110 -0.3266  0.2445
 2742TIP3    H129641   5.737   5.781   5.234  0.2597  0.4422 -1.2613
 2742TIP3    H229642   5.670   5.714   5.116 -1.4837 -2.3502  1.2277
 2743TIP3   OH229643   3.397   2.427  16.522  0.2342 -0.3998  0.2635
 2743TIP3    H129644   3.317   2.376  16.534  0.4917 -0.8905 -0.0799
 2743TIP3    H229645   3.441   2.386  16.448 -0.1554  1.1018 -0.8161
 2744TIP3   OH229646   6.658   3.012   4.046 -0.1250  0.4983 -0.4642
 2744TIP3    H129647   6.573   3.000   4.004 -0.3538  0.3064  0.0467
 2744TIP3    H229648   6.720   3.022   3.973 -0.4798 -0.0635 -0.8489
 2745TIP3   OH229649   2.603   3.677   5.462  0.5545 -0.0918 -0.8111
 2745TIP3    H129650   2.515   3.712   5.474  0.5869 -0.0728 -0.6156
 2745TIP3    H229651   2.590   3.590   5.426  0.4539 -0.1002 -0.7539
 2746TIP3   OH229652   1.641   4.517   0.452 -0.0828  0.6852 -0.2400
 2746TIP3    H129653   1.720   4.563   0.480  0.9473  0.4156 -2.5755
 2746TIP3    H229654   1.625   4.453   0.522 -0.1059  2.8467  1.8084
 2747TIP3   OH229655   6.662   5.553  13.595 -0.4864  0.7198 -0.5127
 2747TIP3    H129656   6.640   5.575  13.685 -2.1251  2.5554 -1.3373
 2747TIP3    H229657   6.705   5.631  13.560 -0.9297  0.4682 -1.6614
 2748TIP3   OH229658   2.318   3.921   7.005 -0.0574  0.3781 -0.3881
 2748TIP3    H129659   2.283   3.960   6.925  0.1217  0.7985 -0.2620
 2748TIP3    H229660   2.256   3.947   7.074 -0.3792 -0.2380 -0.4374
 2749TIP3   OH229661   0.127   4.126   4.051  0.4190 -0.3871  0.6724
 2749TIP3    H129662   0.086   4.141   3.966  0.3688 -0.6319  0.6530
 2749TIP3    H229663   0.145   4.213   4.085 -1.2497 -0.2451  1.2373
 2750TIP3   OH229664   0.217   4.895  16.847  0.5740  0.5263  0.3027
 2750TIP3    H129665   0.211   4.804  16.875  0.1245  0.5150  0.1732
 2750TIP3    H229666   0.311   4.912  16.840  0.7083  0.5149  1.7943
 2751TIP3   OH229667   3.952   6.191   5.568  0.1156  0.2756  0.4136
 2751TIP3    H129668   3.978   6.276   5.603 -1.5533  0.8619  0.2396
 2751TIP3    H229669   4.024   6.167   5.509  0.5843  1.5634  0.4429
 2752TIP3   OH229670   4.655   3.155   0.338 -0.2540  0.4124  0.3362
 2752TIP3    H129671   4.560   3.157   0.325 -0.1933  2.4916  0.0774
 2752TIP3    H229672   4.670   3.207   0.417  0.7172  0.6546  0.0008
 2753TIP3   OH229673   1.018   3.211   3.843  0.3803  0.0969 -0.0605
 2753TIP3    H129674   0.954   3.180   3.779  2.1867 -0.3146 -1.6923
 2753TIP3    H229675   1.014   3.145   3.913 -1.5689  0.5270  0.2674
 2754TIP3   OH229676   3.807   6.728   3.915 -0.1751 -0.2337 -0.7139
 2754TIP3    H129677   3.880   6.743   3.976 -0.3345 -0.4210 -0.4774
 2754TIP3    H229678   3.808   6.634   3.899 -0.9739 -0.3813  0.0591
 2755TIP3   OH229679   0.692   3.309   1.800 -0.1148 -0.7826  0.5620
 2755TIP3    H129680   0.737   3.230   1.769  1.4350  0.9948 -1.8735
 2755TIP3    H229681   0.615   3.316   1.744  0.0734 -0.2410  0.3722
 2756TIP3   OH229682   3.750   3.113   2.754  0.5234 -0.9885 -0.5907
 2756TIP3    H129683   3.725   3.196   2.715  1.7322 -0.8783 -1.1742
 2756TIP3    H229684   3.697   3.106   2.833  1.6180  1.1608  0.3949
 2757TIP3   OH229685   1.120   6.437   5.620  0.1338 -0.3173 -0.4471
 2757TIP3    H129686   1.044   6.409   5.670  0.5976 -0.1640  0.3418
 2757TIP3    H229687   1.138   6.365   5.560  0.3257 -1.0244  0.4513
 2758TIP3   OH229688   6.531   5.260  15.570  0.4541  0.3627  0.2312
 2758TIP3    H129689   6.558   5.169  15.569 -0.2853  0.1242  1.1544
 2758TIP3    H229690   6.447   5.261  15.525 -1.2201  0.0025  3.1979
 2759TIP3   OH229691   1.047   3.220  16.914 -0.2250  0.4140 -0.3881
 2759TIP3    H129692   1.069   3.313  16.912  0.5027  0.2702  0.4887
 2759TIP3    H229693   1.098   3.182  16.843  0.8808  0.3961  0.4081
 2760TIP3   OH229694   3.977   5.968   0.616 -0.1378  0.1418  0.6233
 2760TIP3    H129695   3.921   5.920   0.678 -0.9699  1.1833  0.6985
 2760TIP3    H229696   4.009   6.043   0.665 -0.4918  0.7674 -0.0795
 2761TIP3   OH229697   3.554   3.273   1.014 -0.1089 -0.0753  0.3107
 2761TIP3    H129698   3.538   3.337   1.084  0.5075  0.9524 -0.4741
 2761TIP3    H229699   3.624   3.218   1.049  1.4120  1.5068 -0.1512
 2762TIP3   OH229700   1.539   6.752  12.246 -0.4501  0.6333  0.3132
 2762TIP3    H129701   1.600   6.754  12.172 -0.7005  0.4294  0.1032
 2762TIP3    H229702   1.505   6.663  12.248 -0.0569  0.4933  0.9911
 2763TIP3   OH229703   6.783   1.852  13.262  0.1564  0.7028  0.0201
 2763TIP3    H129704   6.840   1.813  13.196 -2.7879 -0.6954 -1.7602
 2763TIP3    H229705   6.803   1.946  13.258  2.4386  0.2322 -0.4024
 2764TIP3   OH229706   2.616   3.455  12.344 -0.3356  0.1680 -0.0069
 2764TIP3    H129707   2.525   3.436  12.366 -0.4160 -0.7328 -1.0760
 2764TIP3    H229708   2.612   3.541  12.301 -0.8268 -0.3101 -0.9481
 2765TIP3   OH229709   0.532   5.431   1.719  0.0842 -0.5628 -0.3233
 2765TIP3    H129710   0.564   5.408   1.632 -0.1004 -0.0045 -0.5392
 2765TIP3    H229711   0.441   5.456   1.706 -0.0359 -0.7792  0.0780
 2766TIP3   OH229712   3.000   6.630   1.243 -0.5270 -0.0078 -0.5091
 2766TIP3    H129713   3.088   6.593   1.232  0.0741  1.0882  0.4868
 2766TIP3    H229714   2.942   6.555   1.249  0.6369 -0.7913  1.2178
 2767TIP3   OH229715   0.952   3.361  13.588 -0.2205  0.0269 -0.2160
 2767TIP3    H129716   0.859   3.385  13.592 -0.1299  0.2561  0.5350
 2767TIP3    H229717   0.998   3.444  13.599  0.0814 -0.0298 -0.9736
 2768TIP3   OH229718   0.084   2.833   2.548  0.4199  0.1050 -0.1081
 2768TIP3    H129719   0.065   2.740   2.537 -1.3022  0.6795 -2.5062
 2768TIP3    H229720  -0.002   2.875   2.550  1.2006  1.8699 -1.6708
 2769TIP3   OH229721   1.323   1.596  16.001 -0.1721 -0.2578 -0.2352
 2769TIP3    H129722   1.302   1.631  16.088  1.3175  0.8730 -0.3005
 2769TIP3    H229723   1.255   1.531  15.984 -1.3681  0.6018  1.1228
 2770TIP3   OH229724   6.513   1.241   1.419 -0.1689 -0.0903  0.2638
 2770TIP3    H129725   6.456   1.307   1.456 -0.1086 -0.6640  1.4189
 2770TIP3    H229726   6.479   1.158   1.454  0.1402 -0.6045 -0.6491
 2771TIP3   OH229727   4.257   3.026  15.844 -0.2525  0.0107 -0.0607
 2771TIP3    H129728   4.349   3.006  15.864 -0.4455 -1.4525 -0.5700
 2771TIP3    H229729   4.241   2.985  15.759 -0.9107  1.7321 -0.7965
 2772TIP3   OH229730   3.037   3.568   3.912  0.1659  0.0568 -0.2328
 2772TIP3    H129731   3.022   3.661   3.899  1.0728  0.4233  1.1562
 2772TIP3    H229732   3.081   3.563   3.997  0.5241 -1.5977 -0.4998
 2773TIP3   OH229733   0.963   0.764   3.445 -0.3635 -0.5521  0.1211
 2773TIP3    H129734   0.987   0.758   3.353  2.4554 -0.1751  0.7913
 2773TIP3    H229735   1.030   0.819   3.484 -2.4893  0.7331  2.0900
 2774TIP3   OH229736   6.617   3.534   4.960 -0.2036  0.6516  0.0501
 2774TIP3    H129737   6.654   3.617   4.990  0.4572  0.2513  0.3773
 2774TIP3    H229738   6.523   3.550   4.953 -0.2240  1.1161  1.1708
 2775TIP3   OH229739   6.058   2.530  15.618  0.4662 -0.2465 -0.4726
 2775TIP3    H129740   6.027   2.595  15.554 -0.1122 -1.6190 -1.6392
 2775TIP3    H229741   5.993   2.460  15.612  0.4797 -0.4409  1.5704
 2776TIP3   OH229742   5.522   6.621   1.008  0.3770  0.5243  0.5314
 2776TIP3    H129743   5.573   6.653   0.933 -1.7141 -1.0501 -1.6334
 2776TIP3    H229744   5.578   6.556   1.049  0.7351 -0.0853 -0.9022
 2777TIP3   OH229745   1.235   0.679  11.708  0.0289 -0.0833 -0.1381
 2777TIP3    H129746   1.232   0.617  11.635  2.4735  1.2908 -1.4758
 2777TIP3    H229747   1.297   0.640  11.769 -1.1143 -0.6511  0.6717
 2778TIP3   OH229748   1.699   4.531   4.517 -0.3565 -0.1336  0.3767
 2778TIP3    H129749   1.768   4.587   4.553  0.3441  0.0891 -1.2310
 2778TIP3    H229750   1.724   4.442   4.541 -0.9182  0.1542  2.0494
 2779TIP3   OH229751   2.658   0.001   2.329  0.2742 -0.3948  0.2423
 2779TIP3    H129752   2.737   0.043   2.363 -0.0499  1.7584 -1.5354
 2779TIP3    H229753   2.646   0.039   2.242 -1.7326 -2.0041 -0.2330
 2780TIP3   OH229754   3.105   5.201   2.574  0.0229 -0.3059 -0.4679
 2780TIP3    H129755   3.092   5.205   2.479  1.0912 -1.4444 -0.6730
 2780TIP3    H229756   3.071   5.116   2.600 -0.0196 -0.1054  0.1419
 2781TIP3   OH229757   2.094   3.521   1.120 -0.0040 -0.2905 -0.6377
 2781TIP3    H129758   2.115   3.477   1.037  2.0519 -0.1750 -0.2057
 2781TIP3    H229759   2.117   3.613   1.104  2.5290 -0.6599  0.7698
 2782TIP3   OH229760   1.402   1.777  15.777  0.6544 -0.2115  0.2998
 2782TIP3    H129761   1.394   1.703  15.838 -0.1583 -0.9817 -0.7184
 2782TIP3    H229762   1.496   1.781  15.755  0.8652 -0.2544  1.1932
 2783TIP3   OH229763   6.035   4.787   0.652  0.0259 -0.1657  0.2324
 2783TIP3    H129764   5.963   4.735   0.615  0.4235 -0.9744  0.5729
 2783TIP3    H229765   6.079   4.727   0.712  0.3665  0.6473  0.7978
 2784TIP3   OH229766   5.013   2.274  10.909  0.2132  0.2910  0.1544
 2784TIP3    H129767   4.997   2.179  10.912  0.4691  0.1822 -1.5643
 2784TIP3    H229768   4.928   2.313  10.931  0.0195 -0.3318  0.5401
 2785TIP3   OH229769   1.246   5.624   4.211 -0.4282  0.1618 -0.0419
 2785TIP3    H129770   1.321   5.616   4.269 -0.6852  1.1187  0.4311
 2785TIP3    H229771   1.280   5.665   4.132 -0.2300 -0.4678 -0.2932
 2786TIP3   OH229772   5.445   6.302  13.942 -0.4652  0.0333 -0.2055
 2786TIP3    H129773   5.512   6.235  13.949  0.6257  1.0242 -0.9155
 2786TIP3    H229774   5.442   6.343  14.028 -0.0743  0.0617 -0.2063
 2787TIP3   OH229775   1.464   0.546  10.803  0.4702 -0.9574  0.2950
 2787TIP3    H129776   1.373   0.521  10.792  0.0106  0.9253 -0.4172
 2787TIP3    H229777   1.460   0.635  10.838  2.0256 -0.7739  0.0451
 2788TIP3   OH229778   6.726   5.027  15.577 -0.0731  0.2160 -0.2000
 2788TIP3    H129779   6.778   5.075  15.512 -0.5980  0.1028 -0.7073
 2788TIP3    H229780   6.726   4.936  15.545 -3.3576  0.8026 -2.0123
 2789TIP3   OH229781   3.333   5.334  16.215 -0.1114 -0.7261 -0.0429
 2789TIP3    H129782   3.396   5.377  16.157 -0.6824  1.5634  0.9761
 2789TIP3    H229783   3.318   5.248  16.175  4.4911 -1.7970  0.2954
 2790TIP3   OH229784   5.576   6.276   0.193 -0.2524 -0.1073  0.3959
 2790TIP3    H129785   5.559   6.291   0.286  0.7065 -1.9677  0.8817
 2790TIP3    H229786   5.531   6.349   0.149 -1.2517  0.4359  2.2591
 2791TIP3   OH229787   2.695   5.146  16.429 -0.3521  0.0823 -0.6527
 2791TIP3    H129788   2.646   5.071  16.397  1.3026 -0.6749 -1.4563
 2791TIP3    H229789   2.709   5.200  16.351  0.7357 -0.0917 -0.5871
 2792TIP3   OH229790   0.146   1.225   2.644  0.3517  0.6032 -0.4889
 2792TIP3    H129791   0.102   1.206   2.727 -1.0822 -0.0307 -1.3745
 2792TIP3    H229792   0.142   1.320   2.636  0.8243  0.6978  0.3394
 2793TIP3   OH229793   4.381   5.940  14.404  0.0676 -0.2870 -0.1994
 2793TIP3    H129794   4.321   6.011  14.381 -0.9231 -0.6446  1.2459
 2793TIP3    H229795   4.460   5.984  14.436 -0.2751  0.1566  0.0352
 2794TIP3   OH229796   3.381   1.469   2.440 -0.0826  0.0041  0.0554
 2794TIP3    H129797   3.400   1.465   2.346 -0.3657 -1.7992  0.0678
 2794TIP3    H229798   3.431   1.545   2.471  0.2629  0.4246 -1.4846
 2795TIP3   OH229799   3.583   4.434   5.010 -0.2306  0.0802  0.3031
 2795TIP3    H129800   3.604   4.376   4.937 -0.6638  0.3991 -0.0733
 2795TIP3    H229801   3.657   4.424   5.071 -0.5141 -1.1869  0.4382
 2796TIP3   OH229802   2.018   2.816   0.392 -0.0796 -0.4588 -0.2837
 2796TIP3    H129803   1.961   2.764   0.450  0.1640 -3.5069 -2.6677
 2796TIP3    H229804   1.968   2.896   0.375 -0.6089  0.0510  3.2082
 2797TIP3   OH229805   6.696   0.530  10.796 -0.5937 -0.4263  0.0788
 2797TIP3    H129806   6.649   0.613  10.783  0.5445  0.3788  1.0290
 2797TIP3    H229807   6.711   0.497  10.707 -0.6969  0.5870 -0.3255
 2798TIP3   OH229808   5.422   4.576  12.161  0.1981 -0.0993  0.3137
 2798TIP3    H129809   5.436   4.551  12.069  0.5559  1.9012 -0.2211
 2798TIP3    H229810   5.509   4.603  12.191 -0.2162  0.7700  0.7443
 2799TIP3   OH229811   4.819   3.533   4.542 -0.2170  0.1007  0.4986
 2799TIP3    H129812   4.892   3.533   4.481  0.7897  0.0424  1.6965
 2799TIP3    H229813   4.771   3.452   4.522  0.8551 -0.5796  0.6947
 2800TIP3   OH229814   1.180   1.424  16.714 -0.6407 -0.2660 -0.1006
 2800TIP3    H129815   1.258   1.417  16.770 -0.4828  2.0016  0.0040
 2800TIP3    H229816   1.205   1.382  16.632  1.1368  1.4770 -0.4951
 2801TIP3   OH229817   4.500   1.024  15.964 -0.0271 -0.0758 -0.5686
 2801TIP3    H129818   4.587   1.058  15.986  1.2074 -2.6374 -1.3437
 2801TIP3    H229819   4.514   0.932  15.943 -2.5291  0.0474 -3.1835
 2802TIP3   OH229820   5.511   0.703   5.164 -0.0172  0.8006  0.4248
 2802TIP3    H129821   5.432   0.742   5.127 -0.1132 -0.5982 -0.9023
 2802TIP3    H229822   5.481   0.620   5.202  0.6116  0.8304  1.0010
 2803TIP3   OH229823   3.189   0.779  12.749 -0.0693 -0.0404 -0.1992
 2803TIP3    H129824   3.155   0.732  12.824  0.3585 -0.7686 -0.4512
 2803TIP3    H229825   3.279   0.745  12.738 -0.2556 -0.2313 -1.2537
 2804TIP3   OH229826   3.000   6.364   3.111  0.0575  0.4718 -0.0181
 2804TIP3    H129827   3.017   6.279   3.071  2.3026  0.9268 -0.0839
 2804TIP3    H229828   2.983   6.344   3.203  1.6644  0.0158  0.1975
 2805TIP3   OH229829   3.436   3.743  17.092  0.0795 -0.2029  0.3896
 2805TIP3    H129830   3.377   3.818  17.085  0.8579  0.3780  0.0061
 2805TIP3    H229831   3.468   3.746  17.182  0.0390 -0.1317  0.4021
 2806TIP3   OH229832   0.012   2.628  13.469 -0.6339  0.4490  0.6140
 2806TIP3    H129833   0.033   2.696  13.405 -2.0368 -0.1769 -0.5293
 2806TIP3    H229834   0.092   2.575  13.474 -0.3720  0.7510 -0.3066
 2807TIP3   OH229835   0.949   5.438   5.832  0.7371  0.5169  0.1717
 2807TIP3    H129836   0.975   5.353   5.796  0.3532 -0.9501  3.2668
 2807TIP3    H229837   0.862   5.423   5.868 -0.2945  2.8465 -1.2488
 2808TIP3   OH229838   6.323   0.485  13.765 -0.2090 -0.1027 -0.7277
 2808TIP3    H129839   6.275   0.427  13.824  0.8749  0.1057  0.3564
 2808TIP3    H229840   6.351   0.558  13.820  0.9617  0.0094 -1.4560
 2809TIP3   OH229841   4.119   5.125   2.043 -0.0154  0.7862  0.3716
 2809TIP3    H129842   4.167   5.169   1.973  0.2062 -1.0178 -0.6539
 2809TIP3    H229843   4.076   5.052   1.999  1.1661 -1.1462  2.3404
 2810TIP3   OH229844   1.554   6.329   4.458 -0.8017  0.2685 -0.2288
 2810TIP3    H129845   1.580   6.410   4.501 -1.2813  0.8628 -1.0373
 2810TIP3    H229846   1.552   6.264   4.528 -2.6129  1.4363  0.8501
 2811TIP3   OH229847   5.957   1.205  15.780  0.0826  0.0718  0.1640
 2811TIP3    H129848   5.874   1.169  15.811  0.5001 -2.3934 -1.4550
 2811TIP3    H229849   5.987   1.143  15.713  2.2670  1.9546 -0.6608
 2812TIP3   OH229850   0.826   4.054   2.571  0.5688 -0.1929  0.2978
 2812TIP3    H129851   0.758   4.044   2.505  1.4881 -0.1073 -0.6694
 2812TIP3    H229852   0.795   4.003   2.646 -0.1743 -0.8070 -0.4280
 2813TIP3   OH229853   0.112   6.309  11.762 -0.1288 -0.4223  0.5976
 2813TIP3    H129854   0.118   6.404  11.754  1.2893 -0.5533 -0.1543
 2813TIP3    H229855   0.020   6.289  11.745 -0.3597  0.7740  0.3955
 2814TIP3   OH229856   4.615   5.428  15.525  0.5422  0.2699  0.1382
 2814TIP3    H129857   4.634   5.510  15.478  3.0251 -1.1394 -1.4315
 2814TIP3    H229858   4.556   5.380  15.466 -0.4440  0.6496  0.7971
 2815TIP3   OH229859   0.024   1.615  11.550  0.0650 -0.2894  0.0306
 2815TIP3    H129860   0.053   1.679  11.615 -0.5223  0.3376 -0.3108
 2815TIP3    H229861   0.099   1.604  11.492  0.5978 -0.8585  0.8123
 2816TIP3   OH229862   1.155   5.709   2.180  0.5485 -0.0698  0.1056
 2816TIP3    H129863   1.064   5.703   2.210  1.1870  1.8058  2.5494
 2816TIP3    H229864   1.152   5.680   2.089 -2.6012  0.5429 -0.0418
 2817TIP3   OH229865   3.668   1.890  14.737 -0.6889  0.2038  0.6646
 2817TIP3    H129866   3.741   1.877  14.798 -2.2548 -1.7071  2.2261
 2817TIP3    H229867   3.591   1.857  14.785 -2.0501 -0.8847 -2.1484
 2818TIP3   OH229868   3.148   5.690  14.251 -0.1901  0.0425 -0.1324
 2818TIP3    H129869   3.091   5.742  14.308 -0.6045 -1.1736  0.6089
 2818TIP3    H229870   3.236   5.725  14.265 -0.4542  0.4990  0.3886
 2819TIP3   OH229871   3.216   6.662  14.303  0.0541 -0.3723 -0.6369
 2819TIP3    H129872   3.172   6.577  14.298 -0.9105  0.0157  0.6536
 2819TIP3    H229873   3.245   6.669  14.394  0.6415  0.4305 -0.8741
 2820TIP3   OH229874   5.239   4.093   5.109 -0.7110 -0.1235 -0.2772
 2820TIP3    H129875   5.233   4.043   5.190  0.2999 -0.4860 -0.4174
 2820TIP3    H229876   5.177   4.049   5.050 -1.0560 -0.1864  0.1296
 2821TIP3   OH229877   0.465   6.122  14.200  0.1116  0.4746 -0.1629
 2821TIP3    H129878   0.395   6.179  14.168  0.0887  1.2754  1.2486
 2821TIP3    H229879   0.457   6.127  14.296 -0.9923 -3.2386  0.0203
 2822TIP3   OH229880   2.942   0.017  14.493  0.3911  0.2202  0.6772
 2822TIP3    H129881   2.879  -0.028  14.436  1.6890 -1.4273  0.4953
 2822TIP3    H229882   3.005   0.056  14.433  1.6189 -1.3058  0.9401
 2823TIP3   OH229883   2.334   3.994   5.365 -0.1326  0.5708 -0.5824
 2823TIP3    H129884   2.421   3.952   5.362  0.0176  0.8172  0.1274
 2823TIP3    H229885   2.340   4.056   5.438 -0.8130  0.8099 -0.7248
 2824TIP3   OH229886   5.574   3.931  14.536  0.2598 -0.9693  0.1550
 2824TIP3    H129887   5.668   3.943  14.522  0.1315  1.3851  1.0362
 2824TIP3    H229888   5.568   3.859  14.597  1.4621 -1.6037 -0.4543
 2825TIP3   OH229889   2.980   0.572  16.477  0.6735 -0.5287 -0.5904
 2825TIP3    H129890   2.930   0.507  16.427  1.3845 -1.9603  0.5194
 2825TIP3    H229891   2.997   0.642  16.415 -1.2731 -0.7801 -1.4553
 2826TIP3   OH229892   6.220   2.511  14.390 -0.7879  0.4006  0.0602
 2826TIP3    H129893   6.258   2.469  14.466 -1.8974 -0.0778  0.3592
 2826TIP3    H229894   6.132   2.475  14.384  0.1347 -1.5446 -2.9576
 2827TIP3   OH229895   6.197   0.244   0.335 -0.3283 -0.0546  0.2531
 2827TIP3    H129896   6.161   0.189   0.265 -0.4489  0.4886 -0.1133
 2827TIP3    H229897   6.265   0.190   0.375 -0.0201 -0.2348 -0.5131
 2828TIP3   OH229898   5.717   6.603   5.913  0.0904  0.9616 -0.4927
 2828TIP3    H129899   5.627   6.626   5.937  0.0520  1.7068 -1.3093
 2828TIP3    H229900   5.730   6.516   5.950 -0.7989  1.0503  0.0595
 2829TIP3   OH229901   3.403   1.795  16.910 -0.4290  0.7001  0.2023
 2829TIP3    H129902   3.423   1.881  16.947  0.3373  0.5703  0.0992
 2829TIP3    H229903   3.365   1.815  16.824  1.1674  0.9001 -0.4750
 2830TIP3   OH229904   6.447   3.104  15.548  0.2006 -0.2918 -0.2069
 2830TIP3    H129905   6.516   3.166  15.571  0.1825 -0.4174  0.1845
 2830TIP3    H229906   6.455   3.093  15.453 -0.0445  0.6080 -0.3409
 2831TIP3   OH229907   1.332   1.217  16.241  0.8722 -0.3184  0.1020
 2831TIP3    H129908   1.267   1.258  16.184  0.5523  0.4120  0.9829
 2831TIP3    H229909   1.342   1.128  16.206 -2.2667 -1.1906  1.3236
 2832TIP3   OH229910   1.291   1.671  11.619  0.4094  0.2650 -0.9920
 2832TIP3    H129911   1.363   1.650  11.679 -0.5058  0.0608  0.0636
 2832TIP3    H229912   1.290   1.766  11.614 -1.8201  0.5076  2.2936
 2833TIP3   OH229913   1.358   3.955   0.979 -0.1219 -0.0338  0.4401
 2833TIP3    H129914   1.268   3.934   0.954  0.2115  1.0849 -1.8708
 2833TIP3    H229915   1.358   4.050   0.994  0.8366  0.1216 -0.4381
 2834TIP3   OH229916   0.421   4.440   2.295  0.1912  0.0375  0.0712
 2834TIP3    H129917   0.455   4.466   2.210 -0.2049 -0.9278 -0.3985
 2834TIP3    H229918   0.355   4.506   2.316  1.0860  0.9078  0.1556
 2835TIP3   OH229919   1.621   0.188  15.501 -0.2206  0.3827  0.0756
 2835TIP3    H129920   1.675   0.259  15.533 -1.2820  1.2724 -0.0916
 2835TIP3    H229921   1.533   0.224  15.496 -0.9964 -1.2729  1.0935
 2836TIP3   OH229922   3.828   2.338  11.488 -0.0049  0.5088  0.3862
 2836TIP3    H129923   3.902   2.358  11.431  0.1860 -0.8489  0.1495
 2836TIP3    H229924   3.752   2.369  11.439  0.3141  0.9999  0.1949
 2837TIP3   OH229925   3.183   2.201   2.518 -0.3987  0.1591  0.0173
 2837TIP3    H129926   3.205   2.203   2.425 -0.6740 -0.2413 -0.0564
 2837TIP3    H229927   3.158   2.291   2.538 -0.8164  0.1387 -0.4139
 2838TIP3   OH229928   1.040   1.709  13.077  0.5843 -0.8570  0.4108
 2838TIP3    H129929   1.119   1.725  13.025  0.4509  1.4606  0.8356
 2838TIP3    H229930   1.070   1.651  13.148  1.1138 -2.7387 -1.3087
 2839TIP3   OH229931   6.660   3.317  13.121 -0.1080 -0.6453  0.1787
 2839TIP3    H129932   6.618   3.319  13.036 -1.2898 -2.0845  0.7269
 2839TIP3    H229933   6.619   3.388  13.170 -1.0897 -1.3144  0.3291
 2840TIP3   OH229934   1.853   6.655   6.424  0.2890 -0.1076  0.0891
 2840TIP3    H129935   1.803   6.678   6.346  1.0831 -0.0108 -0.3954
 2840TIP3    H229936   1.940   6.632   6.391  0.3917 -0.8671  0.8609
 2841TIP3   OH229937   1.398   2.230  12.013  0.2742  0.1782  0.7431
 2841TIP3    H129938   1.310   2.210  11.980 -0.7336  2.5919  1.8618
 2841TIP3    H229939   1.413   2.165  12.082  0.5986 -2.0756 -1.3398
 2842TIP3   OH229940   2.191   4.235  17.210  0.6443  0.4826  0.6602
 2842TIP3    H129941   2.147   4.297  17.268 -0.0789  0.4874  0.1161
 2842TIP3    H229942   2.282   4.263  17.209  0.1252  2.2403 -0.4783
 2843TIP3   OH229943   3.414   2.293  12.117  0.1220  0.8306 -0.6275
 2843TIP3    H129944   3.508   2.295  12.134 -0.2487  0.4486  1.6816
 2843TIP3    H229945   3.407   2.257  12.028  2.1738  1.7795 -1.2121
 2844TIP3   OH229946   3.494   5.401   5.758 -0.0639 -0.1060  0.1623
 2844TIP3    H129947   3.568   5.450   5.721 -0.4917  0.8507  0.5645
 2844TIP3    H229948   3.417   5.439   5.716 -0.4048 -0.3298  0.5854
 2845TIP3   OH229949   0.214   5.821   3.821  0.2666 -0.0090  0.3690
 2845TIP3    H129950   0.146   5.817   3.753  2.2976  0.0688 -1.7501
 2845TIP3    H229951   0.241   5.730   3.833  2.3686  0.3017 -1.5800
 2846TIP3   OH229952   6.191   3.500   4.160 -0.6015  0.4912 -0.4927
 2846TIP3    H129953   6.181   3.576   4.103 -0.3575  0.5675 -0.4370
 2846TIP3    H229954   6.192   3.425   4.101 -0.3891  0.5665 -0.5854
 2847TIP3   OH229955   3.562   3.119   0.236 -0.1139  0.0364 -0.1235
 2847TIP3    H129956   3.530   3.032   0.216 -0.8587  0.2321  0.2074
 2847TIP3    H229957   3.545   3.170   0.157  0.7474 -0.2332 -0.4846
 2848TIP3   OH229958   2.687   1.593  12.136  0.1328  0.5333 -0.2438
 2848TIP3    H129959   2.672   1.644  12.056 -0.4759 -0.2601 -0.6395
 2848TIP3    H229960   2.619   1.622  12.196  1.0014  1.6213  0.2359
 2849TIP3   OH229961   3.737   6.721  13.201  0.0684  0.0034  0.1669
 2849TIP3    H129962   3.674   6.711  13.272 -0.1286  0.9377  0.1221
 2849TIP3    H229963   3.742   6.634  13.161 -0.6765 -0.2406  0.6021
 2850TIP3   OH229964   4.583   1.773  15.734 -0.1690  0.0057 -0.4341
 2850TIP3    H129965   4.499   1.759  15.692  0.4561  1.2184 -2.1568
 2850TIP3    H229966   4.561   1.798  15.824 -1.7046  1.5824 -1.2173
 2851TIP3   OH229967   4.817   0.005  11.857  0.1617  0.3453 -0.2137
 2851TIP3    H129968   4.851  -0.018  11.943 -0.9081  3.4319  1.0890
 2851TIP3    H229969   4.779  -0.077  11.824  0.4709 -0.8423  2.2887
 2852TIP3   OH229970   4.071   2.783  14.776 -0.0751  0.5242 -0.6811
 2852TIP3    H129971   4.123   2.862  14.785  0.9593 -0.2187 -0.0346
 2852TIP3    H229972   4.072   2.763  14.682  1.3283  0.1762 -0.6046
 2853TIP3   OH229973   0.310   5.342  14.999 -0.0097 -0.0687  0.0912
 2853TIP3    H129974   0.256   5.385  15.066 -0.4542  0.2953 -0.4974
 2853TIP3    H229975   0.387   5.398  14.990 -0.0972  0.0493  0.0761
 2854TIP3   OH229976   2.113   3.397   0.871 -0.9956 -0.0191  0.0529
 2854TIP3    H129977   2.137   3.304   0.881  0.3354  0.2982 -0.0486
 2854TIP3    H229978   2.026   3.395   0.831 -1.0933 -1.2280  0.2865
 2855TIP3   OH229979   2.975   3.466  14.753 -0.1187 -0.3231  0.3508
 2855TIP3    H129980   3.059   3.420  14.759  0.4587  0.2505 -2.6840
 2855TIP3    H229981   2.982   3.520  14.674 -3.0782  0.2725  0.4245
 2856TIP3   OH229982   2.965   6.335   1.104  0.4440  0.6992 -0.6957
 2856TIP3    H129983   2.913   6.264   1.066  0.7152  0.2390 -0.2050
 2856TIP3    H229984   2.924   6.352   1.188  1.0754  0.3411 -0.3089
 2857TIP3   OH229985   5.572   0.379   4.985  0.0807  0.3223  0.1112
 2857TIP3    H129986   5.532   0.427   5.058  0.4173  0.0370  0.4814
 2857TIP3    H229987   5.534   0.420   4.907 -0.2604  0.6482  0.4413
 2858TIP3   OH229988   2.590   3.607   1.384  0.0908  0.0597  0.5356
 2858TIP3    H129989   2.524   3.672   1.359  0.2977 -0.4575 -1.4291
 2858TIP3    H229990   2.661   3.658   1.421 -0.1198  0.8877 -0.1804
 2859TIP3   OH229991   2.825   6.619  15.723  0.2831  0.0575  0.2396
 2859TIP3    H129992   2.889   6.578  15.664 -1.1192  1.2613 -2.2175
 2859TIP3    H229993   2.840   6.713  15.714 -1.8809  0.3726 -0.5357
 2860TIP3   OH229994   0.105   6.014   2.247  0.4858  0.2084  0.1155
 2860TIP3    H129995   0.021   5.969   2.235  0.3348  0.1927  1.2260
 2860TIP3    H229996   0.091   6.101   2.209  0.5607 -0.4227 -1.4019
 2861TIP3   OH229997   5.849   5.898  10.538  0.1570 -0.1738  0.1240
 2861TIP3    H129998   5.866   5.852  10.456 -0.7488  0.1898 -0.2658
 2861TIP3    H229999   5.759   5.928  10.531  0.4858  0.9703  0.7123
 2862TIP3   OH230000   5.521   4.607  16.128 -0.3284 -0.0654  0.8441
 2862TIP3    H130001   5.614   4.609  16.151 -0.1828 -0.2858  0.2706
 2862TIP3    H230002   5.498   4.699  16.115  0.3728 -0.1562 -1.2605
 2863TIP3   OH230003   1.076   5.172  15.806  0.0534  0.2149 -0.1422
 2863TIP3    H130004   1.055   5.086  15.771  0.4142  0.1256 -0.1443
 2863TIP3    H230005   0.998   5.199  15.855 -0.9319  0.8410 -1.9956
 2864TIP3   OH230006   6.551   6.766   2.478  0.3607 -0.2845  0.8393
 2864TIP3    H130007   6.463   6.761   2.516  0.4199  1.8751  1.2970
 2864TIP3    H230008   6.548   6.841   2.419  1.8494 -0.2841  0.7463
 2865TIP3   OH230009   1.276   1.185  14.353 -0.1195  0.1240 -0.6066
 2865TIP3    H130010   1.331   1.140  14.289  0.2104  2.4739 -2.0376
 2865TIP3    H230011   1.330   1.257  14.385 -1.1918  0.4755  0.4705
 2866TIP3   OH230012   4.890   4.782  12.604 -0.0313 -0.5381  0.0869
 2866TIP3    H130013   4.899   4.877  12.619 -1.7662  0.4030 -4.1464
 2866TIP3    H230014   4.798   4.764  12.624 -0.0759 -1.0007 -0.5230
 2867TIP3   OH230015   1.518   2.093   4.105  0.1608 -0.1486  0.4696
 2867TIP3    H130016   1.609   2.072   4.125  0.7222  0.7206 -1.0673
 2867TIP3    H230017   1.467   2.054   4.176  1.9026  1.1572  2.4942
 2868TIP3   OH230018   6.765   3.724   4.668 -0.3505  0.7001 -0.5602
 2868TIP3    H130019   6.734   3.724   4.577 -4.3406 -0.7033  0.7042
 2868TIP3    H230020   6.686   3.735   4.720  1.4223 -2.1326  2.8902
 2869TIP3   OH230021   3.336   1.749   0.966  0.2057 -0.5709  0.2474
 2869TIP3    H130022   3.295   1.835   0.977 -1.2425 -1.0355 -1.2645
 2869TIP3    H230023   3.309   1.699   1.042  0.4667  0.0808  0.7741
 2870TIP3   OH230024   2.365   0.630  12.104  0.4880  0.4109 -0.0915
 2870TIP3    H130025   2.404   0.592  12.183  1.3739 -1.2341 -1.2937
 2870TIP3    H230026   2.329   0.714  12.133  2.2599  0.5815  1.7078
 2871TIP3   OH230027   2.724   5.831  11.889  0.0040 -0.5759 -0.1739
 2871TIP3    H130028   2.638   5.853  11.852 -1.0154 -0.5993  2.0668
 2871TIP3    H230029   2.725   5.735  11.890  0.6910 -0.5865 -1.5979
 2872TIP3   OH230030   1.281   2.166  13.905 -0.2072 -0.0166  0.1083
 2872TIP3    H130031   1.290   2.093  13.966  1.4209 -0.0386 -0.1315
 2872TIP3    H230032   1.371   2.199  13.893 -0.7383  1.1450 -0.8486
 2873TIP3   OH230033   1.443   5.794  11.074  0.0148  0.3734  0.5999
 2873TIP3    H130034   1.519   5.737  11.067  0.4486  0.8312  1.5524
 2873TIP3    H230035   1.398   5.785  10.990 -0.1701 -1.7099  0.8958
 2874TIP3   OH230036   1.315   6.146   1.755 -0.3887 -0.7396 -0.0410
 2874TIP3    H130037   1.294   6.162   1.663  0.4592 -1.4552 -0.3655
 2874TIP3    H230038   1.229   6.138   1.798 -0.7903 -0.9015 -0.8634
 2875TIP3   OH230039   5.248   2.189  15.755  0.2016 -0.3304 -0.2925
 2875TIP3    H130040   5.259   2.194  15.660  1.6778 -0.9499 -0.1736
 2875TIP3    H230041   5.295   2.265  15.789 -2.2953  1.2119 -0.1624
 2876TIP3   OH230042   4.997   5.794  15.861  0.2450 -0.2918 -0.0237
 2876TIP3    H130043   4.932   5.852  15.823  1.2872  2.5873  2.4132
 2876TIP3    H230044   4.948   5.738  15.920 -0.3165  0.4473  0.2146
 2877TIP3   OH230045   3.185   5.246  12.236  0.0344  0.4005  0.5989
 2877TIP3    H130046   3.208   5.154  12.223 -0.6456 -0.0479  2.3335
 2877TIP3    H230047   3.252   5.278  12.297  0.0849  0.9588  0.2440
 2878TIP3   OH230048   3.736   3.257   3.272  0.2000 -0.3969  0.3066
 2878TIP3    H130049   3.729   3.161   3.277  0.8851 -0.4886 -0.4309
 2878TIP3    H230050   3.829   3.275   3.287 -0.1315  0.2526  1.7464
 2879TIP3   OH230051   2.316   1.078   4.566  0.0342  0.9358  0.7987
 2879TIP3    H130052   2.275   1.123   4.492 -1.8277  1.4659  2.1242
 2879TIP3    H230053   2.402   1.119   4.574  1.5096 -1.1873 -2.9449
 2880TIP3   OH230054   5.374   4.589  15.708 -0.6766 -0.5485  0.0750
 2880TIP3    H130055   5.403   4.499  15.714  0.1103 -0.3555 -0.6911
 2880TIP3    H230056   5.443   4.640  15.751 -1.2565 -0.3348  0.7645
 2881TIP3   OH230057   2.145   1.293  15.053 -0.3161  0.1102 -0.6128
 2881TIP3    H130058   2.138   1.234  15.128 -2.3780  1.8002  0.5793
 2881TIP3    H230059   2.091   1.252  14.985  1.3219 -1.2752 -1.1113
 2882TIP3   OH230060   2.501   6.127   1.069  0.2706  0.1710 -0.0098
 2882TIP3    H130061   2.408   6.134   1.090  0.0929  1.5089 -1.1675
 2882TIP3    H230062   2.508   6.048   1.015  0.3562 -1.8725  2.8606
 2883TIP3   OH230063   0.517   4.178   3.607 -0.5024 -0.7366 -0.0582
 2883TIP3    H130064   0.451   4.208   3.545 -0.5544 -0.8636 -0.0643
 2883TIP3    H230065   0.591   4.151   3.553 -0.3748 -0.4223 -0.0427
 2884TIP3   OH230066   4.861   4.471   1.248 -0.0123 -0.6345 -0.0927
 2884TIP3    H130067   4.822   4.507   1.169 -1.9259 -3.1158 -0.3521
 2884TIP3    H230068   4.948   4.510   1.252  0.1825 -0.5883 -3.5090
 2885TIP3   OH230069   0.571   5.228   3.045 -0.2345  0.4485 -0.4258
 2885TIP3    H130070   0.586   5.235   2.951 -1.6048 -1.4084 -0.8131
 2885TIP3    H230071   0.593   5.137   3.066  0.5166  0.9757  1.1445
 2886TIP3   OH230072   4.855   0.136   6.129  0.4205  0.9140 -0.2069
 2886TIP3    H130073   4.851   0.170   6.040 -0.3483 -2.0013 -1.3545
 2886TIP3    H230074   4.897   0.050   6.120  0.2077  0.5265  2.2078
 2887TIP3   OH230075   2.422   2.256   1.752 -0.1966 -0.8956  0.0964
 2887TIP3    H130076   2.441   2.325   1.689 -1.6098 -0.2259  0.3664
 2887TIP3    H230077   2.498   2.254   1.810 -0.0653  0.3191 -0.0271
 2888TIP3   OH230078   6.023   5.005   1.971  0.1407  0.3894 -0.0287
 2888TIP3    H130079   6.072   4.977   1.894 -1.6487 -2.7395 -0.1040
 2888TIP3    H230080   6.077   4.979   2.046  0.8778  1.4806 -0.1737
 2889TIP3   OH230081   3.150   5.381  13.794  0.1794 -0.4861 -0.2207
 2889TIP3    H130082   3.170   5.299  13.838  1.5762  0.2481  0.5480
 2889TIP3    H230083   3.199   5.447  13.842 -0.9442  0.8126 -0.8095
 2890TIP3   OH230084   3.647   6.205  13.578 -0.1199  0.0289 -0.4663
 2890TIP3    H130085   3.569   6.163  13.543 -0.0102 -0.3810 -0.2223
 2890TIP3    H230086   3.678   6.262  13.507  0.8935 -1.8385 -1.5353
 2891TIP3   OH230087   2.800   3.704  13.967 -0.0708  0.5299 -0.0448
 2891TIP3    H130088   2.892   3.728  13.957 -0.4663  1.4322 -1.6471
 2891TIP3    H230089   2.791   3.680  14.060  1.7528  0.4791  0.1303
 2892TIP3   OH230090   4.320   2.199   3.180  0.3062 -0.1510 -0.1164
 2892TIP3    H130091   4.255   2.269   3.188  0.7195  0.1532  0.6582
 2892TIP3    H230092   4.377   2.227   3.109  1.5543  1.2107  1.3689
 2893TIP3   OH230093   2.907   2.399   2.715  0.5568 -0.7372  0.0171
 2893TIP3    H130094   2.816   2.408   2.687  0.6540 -0.7959 -0.3163
 2893TIP3    H230095   2.904   2.334   2.785  0.1698  0.1576  0.8423
 2894TIP3   OH230096   2.926   1.341   0.372 -0.3752  0.1569 -0.0797
 2894TIP3    H130097   2.842   1.341   0.326 -0.2141 -1.0150 -0.3826
 2894TIP3    H230098   2.919   1.270   0.436  0.5847 -0.3154 -0.4849
 2895TIP3   OH230099   3.986   5.657   2.587 -0.2179 -0.4608 -0.3852
 2895TIP3    H130100   3.943   5.696   2.511  1.0789 -0.2997 -1.0444
 2895TIP3    H230101   4.044   5.725   2.620  0.6750 -1.1913 -0.4275
 2896TIP3   OH230102   0.457   3.809  14.006  0.5300  0.6805 -0.9323
 2896TIP3    H130103   0.539   3.850  14.032 -0.2057  1.1664  0.6373
 2896TIP3    H230104   0.479   3.716  13.995  1.2018  0.7468 -0.1674
 2897TIP3   OH230105   0.203   4.653  14.084 -0.5408 -0.1635  0.4467
 2897TIP3    H130106   0.168   4.665  14.172 -0.6055  2.1102  0.1306
 2897TIP3    H230107   0.293   4.685  14.089  0.6371 -3.3468  0.5460
 2898TIP3   OH230108   2.789   0.951  10.478  0.0552 -0.0124 -0.4797
 2898TIP3    H130109   2.881   0.976  10.485 -0.5282  1.5736  2.0870
 2898TIP3    H230110   2.771   0.956  10.384  2.6094 -0.4861 -1.0363
 2899TIP3   OH230111   6.473   4.730   4.302 -0.1245 -0.6905  0.5498
 2899TIP3    H130112   6.395   4.695   4.259 -0.0729 -0.9341  0.6485
 2899TIP3    H230113   6.443   4.755   4.389 -0.2871  0.0476  0.2852
 2900TIP3   OH230114   6.686   4.435   1.879  0.7533  0.1586  0.2662
 2900TIP3    H130115   6.681   4.529   1.861  0.9589 -0.3833 -2.8721
 2900TIP3    H230116   6.599   4.402   1.855  0.9066 -0.5621  0.6972
 2901TIP3   OH230117   6.145   1.427   0.958  0.2668  0.0479  0.1485
 2901TIP3    H130118   6.171   1.518   0.943 -1.4256  0.5181 -0.0442
 2901TIP3    H230119   6.084   1.408   0.886 -0.6502 -0.7102  1.1239
 2902TIP3   OH230120   0.796   5.408  10.780 -0.4283 -0.2286  0.3177
 2902TIP3    H130121   0.721   5.361  10.816 -1.0086  0.5880  0.1717
 2902TIP3    H230122   0.868   5.386  10.838 -1.1515  0.3298  1.4359
 2903TIP3   OH230123   2.900   2.298   4.981 -0.0386  0.2383  0.2405
 2903TIP3    H130124   2.956   2.231   5.021 -0.2810 -0.4007 -0.4761
 2903TIP3    H230125   2.823   2.302   5.038  0.5503  0.8485  1.0148
 2904TIP3   OH230126   0.179   5.508   5.720 -0.1604 -0.0117  0.4558
 2904TIP3    H130127   0.178   5.589   5.670 -0.8993  0.0142  0.4962
 2904TIP3    H230128   0.259   5.464   5.694  1.0513  1.4546  1.6197
 2905TIP3   OH230129   1.431   6.675   5.441 -0.4110  0.0572  0.0596
 2905TIP3    H130130   1.340   6.698   5.424 -0.0270  0.6991 -1.2494
 2905TIP3    H230131   1.461   6.739   5.506 -0.4311  0.9006 -0.7482
 2906TIP3   OH230132   1.332   3.718   0.032  0.1384  0.4687 -0.7829
 2906TIP3    H130133   1.366   3.739  -0.055  0.5375 -1.7740 -1.2065
 2906TIP3    H230134   1.243   3.687   0.016 -0.7477  2.5840 -0.0840
 2907TIP3   OH230135   2.289   3.260   5.766  0.1878 -0.6378  0.1965
 2907TIP3    H130136   2.222   3.192   5.778  0.7072 -1.5190 -1.6716
 2907TIP3    H230137   2.369   3.221   5.803  1.0803 -2.1318 -3.1096
 2908TIP3   OH230138   3.461   5.464   4.779  0.1091  0.1661 -0.0238
 2908TIP3    H130139   3.456   5.447   4.873  2.1053  0.0313  0.0797
 2908TIP3    H230140   3.443   5.379   4.739 -2.3640  0.5611  0.1674
 2909TIP3   OH230141   4.856   3.530  16.333  0.4019  0.1854 -0.2596
 2909TIP3    H130142   4.874   3.475  16.409  0.5080  2.0243  1.0533
 2909TIP3    H230143   4.937   3.528  16.282  0.7020 -0.1536  0.2324
 2910TIP3   OH230144   6.182   1.149  13.711 -0.0276 -0.8091  0.2855
 2910TIP3    H130145   6.223   1.131  13.795 -0.6303  2.1391  1.2789
 2910TIP3    H230146   6.092   1.119  13.720 -0.7086  1.5039  1.5073
 2911TIP3   OH230147   5.338   4.095   1.028 -0.3167 -0.4073 -0.3549
 2911TIP3    H130148   5.384   4.037   1.089  0.1585  2.4928  2.1524
 2911TIP3    H230149   5.253   4.110   1.069 -1.1234 -0.7575 -1.8788
 2912TIP3   OH230150   0.644   4.273  13.814 -0.9176 -0.0446  0.9058
 2912TIP3    H130151   0.656   4.232  13.900 -1.7289 -1.8725  0.1738
 2912TIP3    H230152   0.551   4.263  13.796 -0.5625 -0.6161 -0.6553
 2913TIP3   OH230153   3.533   1.957   1.514  0.5763  0.4199 -0.9183
 2913TIP3    H130154   3.487   1.975   1.432  0.7077 -0.5009 -1.1991
 2913TIP3    H230155   3.568   1.868   1.503  0.9433  0.4498 -0.0300
 2914TIP3   OH230156   2.301   2.273   6.148 -0.2997  0.6692  0.2523
 2914TIP3    H130157   2.291   2.194   6.094 -0.3618  1.3100 -0.6783
 2914TIP3    H230158   2.230   2.267   6.212 -0.3344 -0.0074  0.1564
 2915TIP3   OH230159   5.881   1.027   0.476 -0.2690  0.3801 -0.1494
 2915TIP3    H130160   5.855   0.962   0.541 -0.0372 -0.8380 -1.2761
 2915TIP3    H230161   5.809   1.030   0.414  0.4888 -0.1038 -1.0728
 2916TIP3   OH230162   0.596   5.127   1.042  0.2022  0.0470  0.7112
 2916TIP3    H130163   0.510   5.164   1.062  0.0586  0.3984 -0.5182
 2916TIP3    H230164   0.632   5.103   1.128 -1.0300  0.0868  1.2523
 2917TIP3   OH230165   3.743   6.319   5.748  0.4192 -0.4534 -0.0139
 2917TIP3    H130166   3.772   6.293   5.661  0.7689 -0.7767  0.2015
 2917TIP3    H230167   3.797   6.394   5.771 -1.1068  0.9779 -0.9561
 2918TIP3   OH230168   0.246   4.837  12.574  0.3574 -0.3685 -0.5344
 2918TIP3    H130169   0.213   4.837  12.664  1.1148 -1.3121 -0.2534
 2918TIP3    H230170   0.226   4.924  12.541  0.3815  0.0928  0.6658
 2919TIP3   OH230171   4.855   0.215  16.620  0.6752  0.0267  0.0990
 2919TIP3    H130172   4.928   0.261  16.661 -0.2871  0.5437  1.2618
 2919TIP3    H230173   4.812   0.280  16.565 -0.1977  0.3019  1.1057
 2920TIP3   OH230174   0.139   5.568  11.493  0.1320 -0.2658 -0.0410
 2920TIP3    H130175   0.098   5.513  11.427  0.4258 -0.2805 -0.2136
 2920TIP3    H230176   0.197   5.508  11.541  0.2980 -0.1484 -0.0953
 2921TIP3   OH230177   3.209   0.501   5.629 -0.2547 -0.6657  0.1318
 2921TIP3    H130178   3.166   0.419   5.602  0.4455 -0.4211 -1.7410
 2921TIP3    H230179   3.170   0.568   5.573  0.6267 -0.0199  0.2876
 2922TIP3   OH230180   6.507   3.378  15.236  0.1138 -0.4233 -0.0375
 2922TIP3    H130181   6.482   3.338  15.153  1.2728 -0.7297 -0.2357
 2922TIP3    H230182   6.429   3.368  15.291 -0.8074  0.1697 -1.2187
 2923TIP3   OH230183   0.610   4.007   2.421 -0.3204  0.6060  0.0210
 2923TIP3    H130184   0.575   3.921   2.446 -1.3660  0.4828 -1.7370
 2923TIP3    H230185   0.532   4.059   2.401  0.4210  0.6686 -2.9141
 2924TIP3   OH230186   5.170   6.483  14.515 -0.7596  0.1952  0.2583
 2924TIP3    H130187   5.198   6.416  14.453 -1.2349  0.3967 -0.1772
 2924TIP3    H230188   5.194   6.448  14.601  0.0089 -0.0316 -0.0455
 2925TIP3   OH230189   5.219   1.675  15.721 -0.3949  0.6936  0.4467
 2925TIP3    H130190   5.234   1.765  15.751 -0.1464  0.4579  1.0280
 2925TIP3    H230191   5.197   1.685  15.628  0.3088  1.3019  0.3359
 2926TIP3   OH230192   6.286   1.308  15.779  0.0633 -0.0788 -0.0415
 2926TIP3    H130193   6.239   1.263  15.848  0.0843  1.3775  0.9484
 2926TIP3    H230194   6.233   1.294  15.700 -1.0995  0.0559  0.7070
 2927TIP3   OH230195   3.590   2.638  17.206  0.1613 -0.1523  0.2341
 2927TIP3    H130196   3.604   2.595  17.122  0.8839 -0.4699  0.5181
 2927TIP3    H230197   3.624   2.727  17.194  1.5485 -0.6151  0.6084
 2928TIP3   OH230198   5.770   5.404  14.274  0.5426 -0.5837 -0.1007
 2928TIP3    H130199   5.750   5.464  14.345 -1.2830 -2.0320  0.6696
 2928TIP3    H230200   5.850   5.360  14.301  1.5025  0.9859 -0.3497
 2929TIP3   OH230201   1.104   2.512   0.741  0.1687  0.9280  0.0249
 2929TIP3    H130202   1.133   2.597   0.776  1.1300  0.2543  0.9078
 2929TIP3    H230203   1.012   2.506   0.767  0.5317  0.9996  1.3558
 2930TIP3   OH230204   0.517   1.199   3.062  0.2328 -0.4197  0.3338
 2930TIP3    H130205   0.588   1.250   3.101 -0.1477 -0.2920  0.8761
 2930TIP3    H230206   0.530   1.207   2.968  0.2042  0.6456  0.4158
 2931TIP3   OH230207   3.416   0.359   0.233  0.1702 -0.3728  1.0387
 2931TIP3    H130208   3.375   0.338   0.149  0.6997 -0.7873  0.8832
 2931TIP3    H230209   3.386   0.447   0.253  0.7581  0.0733 -0.0149
 2932TIP3   OH230210   3.970   6.516   4.200  0.4392  0.2881 -0.2409
 2932TIP3    H130211   3.946   6.577   4.271  1.9574 -0.3952  0.8849
 2932TIP3    H230212   3.933   6.432   4.227 -1.1829  0.5614 -1.5302
 2933TIP3   OH230213   5.099   2.654   4.966 -0.0362  0.4577  0.1424
 2933TIP3    H130214   5.023   2.695   4.925  0.7837  2.4306  0.5432
 2933TIP3    H230215   5.167   2.722   4.965  0.7427 -0.2143  2.6094
 2934TIP3   OH230216   6.176   0.735  12.553  0.2912  0.5841 -0.0685
 2934TIP3    H130217   6.167   0.775  12.466 -1.4422  0.4882  0.0557
 2934TIP3    H230218   6.134   0.798  12.612 -1.7718 -1.0269  0.2250
 2935TIP3   OH230219   2.670   4.793   3.779  0.0380  0.0293  0.0145
 2935TIP3    H130220   2.614   4.861   3.741 -1.5689 -0.6739  1.0278
 2935TIP3    H230221   2.689   4.734   3.706 -1.3395 -0.2249 -0.1632
 2936TIP3   OH230222   4.346   3.548  13.123 -0.3993 -0.1067  0.2272
 2936TIP3    H130223   4.371   3.604  13.196  1.6612 -0.5450 -0.0996
 2936TIP3    H230224   4.273   3.496  13.157 -0.2313  0.5075  1.5844
 2937TIP3   OH230225   5.839   2.089  15.180  0.0733  0.1988  0.1713
 2937TIP3    H130226   5.745   2.075  15.182  0.5546 -3.7759 -0.3231
 2937TIP3    H230227   5.856   2.127  15.094 -0.7956 -1.8627 -0.9425
 2938TIP3   OH230228   1.328   6.767  12.651 -0.6594  0.0719 -0.4126
 2938TIP3    H130229   1.241   6.755  12.688 -0.8323  0.4005 -0.7052
 2938TIP3    H230230   1.351   6.682  12.614 -0.3033 -0.3801  0.8279
 2939TIP3   OH230231   5.629   2.927   0.942 -0.2265  0.7569 -0.0421
 2939TIP3    H130232   5.717   2.942   0.908 -0.5880 -0.6109 -1.6452
 2939TIP3    H230233   5.634   2.843   0.987 -0.2494  1.6240  1.6311
 2940TIP3   OH230234   2.161   2.211   1.805 -0.1764 -0.2034  0.0256
 2940TIP3    H130235   2.252   2.239   1.801  0.0487 -1.0557 -1.3150
 2940TIP3    H230236   2.131   2.216   1.714 -0.9018 -1.7227  0.1621
 2941TIP3   OH230237   4.442   1.507  16.357  0.8575  0.0693 -0.8680
 2941TIP3    H130238   4.520   1.517  16.303  1.1054 -0.8065 -0.6864
 2941TIP3    H230239   4.414   1.596  16.376  0.5306  0.3966 -2.7863
 2942TIP3   OH230240   4.371   4.723   6.240  0.2028 -0.1571 -0.3995
 2942TIP3    H130241   4.305   4.708   6.308 -0.3519  1.1035 -0.6373
 2942TIP3    H230242   4.452   4.692   6.279  0.2609  2.3093  1.6375
 2943TIP3   OH230243   3.447   1.116   3.082  0.0310 -0.4541  0.0026
 2943TIP3    H130244   3.367   1.079   3.045 -0.8764 -0.2595  1.6972
 2943TIP3    H230245   3.461   1.197   3.034 -1.6085  0.2334  0.6380
 2944TIP3   OH230246   3.708   0.231   5.305  0.5632 -0.3903  0.0505
 2944TIP3    H130247   3.660   0.204   5.384  2.3343 -1.3139  0.8473
 2944TIP3    H230248   3.645   0.221   5.234 -1.7090  2.3574  1.5754
 2945TIP3   OH230249   4.325   3.455   3.723 -0.4329 -0.2514 -0.0622
 2945TIP3    H130250   4.272   3.524   3.684  0.2630  0.0891 -0.4037
 2945TIP3    H230251   4.272   3.422   3.795 -0.6948  0.7497  0.2081
 2946TIP3   OH230252   6.466   0.850   4.820  0.0524 -1.1961 -0.1086
 2946TIP3    H130253   6.455   0.879   4.729 -1.3083 -1.8983 -0.1888
 2946TIP3    H230254   6.489   0.757   4.813 -0.8266 -1.4476  0.2734
 2947TIP3   OH230255   1.470   1.739  14.790  0.3588 -0.5794 -0.3059
 2947TIP3    H130256   1.401   1.787  14.743  0.1270 -0.9737 -0.3711
 2947TIP3    H230257   1.486   1.791  14.868  0.7625  0.0919 -0.8324
 2948TIP3   OH230258   4.302   5.554  16.519 -0.0086  0.0588 -0.1621
 2948TIP3    H130259   4.350   5.630  16.552  0.0281  0.0095 -0.1028
 2948TIP3    H230260   4.305   5.490  16.591 -0.6873  0.2842  0.0698
 2949TIP3   OH230261   4.468   4.295   0.215  0.0372 -0.1272  0.4037
 2949TIP3    H130262   4.423   4.267   0.295 -1.9178 -0.3201 -0.7468
 2949TIP3    H230263   4.479   4.389   0.226  0.6602 -0.2979  1.3286
 2950TIP3   OH230264   5.467   0.475  15.334 -0.0052  0.0222 -0.0788
 2950TIP3    H130265   5.399   0.442  15.275  0.2892 -0.9107  0.1066
 2950TIP3    H230266   5.548   0.467  15.284  0.0468  0.6377 -0.1002
 2951TIP3   OH230267   5.362   0.667  14.265  0.0285  0.6302  0.3967
 2951TIP3    H130268   5.279   0.711  14.282  0.0817  0.1584  2.0475
 2951TIP3    H230269   5.404   0.719  14.197 -2.1068  0.2136 -1.2937
 2952TIP3   OH230270   2.041   0.365  14.213 -0.1403  0.2308 -0.2312
 2952TIP3    H130271   2.006   0.330  14.131  0.9164 -0.2168 -0.4964
 2952TIP3    H230272   2.032   0.293  14.276  0.1527  0.1657 -0.2618
 2953TIP3   OH230273   4.430   3.497   3.004  0.6375  0.1336 -0.4743
 2953TIP3    H130274   4.339   3.485   2.976  0.8238  0.4615 -1.2369
 2953TIP3    H230275   4.436   3.590   3.026  0.4574 -0.1530  0.7985
 2954TIP3   OH230276   6.263   6.322  16.415 -0.5455  0.0141 -0.1876
 2954TIP3    H130277   6.294   6.401  16.371  0.2840 -1.8902 -3.1392
 2954TIP3    H230278   6.337   6.294  16.469 -0.5939  0.8436  0.3160
 2955TIP3   OH230279   0.936   6.043   1.080  0.4479  0.7785  0.4989
 2955TIP3    H130280   0.890   5.964   1.107  1.9628 -1.3271 -2.6656
 2955TIP3    H230281   0.875   6.088   1.022  1.1369 -0.4343 -1.2359
 2956TIP3   OH230282   1.743   6.577  12.810 -0.0313  0.1680 -0.2657
 2956TIP3    H130283   1.652   6.596  12.835  0.5992 -0.0758  2.3428
 2956TIP3    H230284   1.780   6.662  12.787 -0.5784  0.4322 -0.1748
 2957TIP3   OH230285   1.660   5.380   6.505 -0.1336  0.2037 -0.0483
 2957TIP3    H130286   1.565   5.381   6.515  0.0859  0.6635  2.4205
 2957TIP3    H230287   1.680   5.458   6.453 -1.1191 -0.0641 -0.8331
 2958TIP3   OH230288   1.014   3.096  14.804  0.1602 -0.2216  0.5811
 2958TIP3    H130289   0.984   3.020  14.754  0.0528  0.2150 -0.0238
 2958TIP3    H230290   1.018   3.167  14.740  0.8738  0.1328  1.0108
 2959TIP3   OH230291   5.756   1.749   1.604 -0.1107 -0.4629 -0.2610
 2959TIP3    H130292   5.741   1.840   1.582  0.1791 -0.5352 -0.7694
 2959TIP3    H230293   5.726   1.740   1.695 -1.9087 -0.3142 -0.8320
 2960TIP3   OH230294   0.004   1.216  11.851  0.1348  0.7453 -0.1107
 2960TIP3    H130295  -0.018   1.248  11.763  0.8153  0.7795 -0.2711
 2960TIP3    H230296   0.096   1.191  11.845  0.3462  1.2808  0.7421
 2961TIP3   OH230297   6.416   4.045   0.880  0.3851 -0.2960 -0.3469
 2961TIP3    H130298   6.475   4.101   0.829 -0.0574  0.7649  0.2885
 2961TIP3    H230299   6.329   4.074   0.856  0.1438 -0.9261 -0.2407
 2962TIP3   OH230300   2.655   0.620   0.445  0.4651 -0.1383  0.4163
 2962TIP3    H130301   2.609   0.631   0.529 -0.4191  0.4241 -0.1258
 2962TIP3    H230302   2.739   0.664   0.458  0.8406 -1.1335  1.4097
 2963TIP3   OH230303   4.327   0.072   1.437  0.1617 -0.4841  0.6047
 2963TIP3    H130304   4.280   0.018   1.374 -2.1154  1.3050  0.7215
 2963TIP3    H230305   4.369   0.140   1.384 -2.3750  1.4736  1.0026
 2964TIP3   OH230306   2.372   6.128  14.239  0.2886  0.1092  0.0284
 2964TIP3    H130307   2.408   6.140  14.327 -0.7407 -0.0835  0.4741
 2964TIP3    H230308   2.366   6.217  14.204  1.0402  0.1596  0.0075
 2965TIP3   OH230309   6.343   3.066  12.309 -0.1828  0.0156  0.0681
 2965TIP3    H130310   6.282   3.122  12.260  0.3721 -0.4720 -1.1950
 2965TIP3    H230311   6.318   2.977  12.285  1.2479 -0.1826 -0.7361
 2966TIP3   OH230312   4.132   5.041  11.278 -0.2958  0.4428  0.3447
 2966TIP3    H130313   4.162   5.129  11.255 -0.0833 -0.2658 -2.2739
 2966TIP3    H230314   4.212   4.988  11.276 -0.7635 -0.2435 -0.3714
 2967TIP3   OH230315   4.261   6.571   5.418  0.3869 -0.4116 -0.4548
 2967TIP3    H130316   4.345   6.612   5.437  0.1630  0.0152 -0.3810
 2967TIP3    H230317   4.198   6.643   5.418 -0.2727 -0.9695  1.2905
 2968TIP3   OH230318   5.768   3.144   5.240  0.3398 -0.1086 -0.1821
 2968TIP3    H130319   5.757   3.061   5.285 -0.1769 -0.3483 -0.7406
 2968TIP3    H230320   5.742   3.210   5.304 -1.9553 -0.5263 -0.6192
 2969TIP3   OH230321   0.570   5.206  14.133 -0.4243 -0.7327 -0.0937
 2969TIP3    H130322   0.479   5.210  14.101  0.1394 -2.1857 -1.9646
 2969TIP3    H230323   0.583   5.114  14.157  0.2628 -0.3289  1.1019
 2970TIP3   OH230324   3.791   2.163   5.267 -0.0079  0.6904 -0.9402
 2970TIP3    H130325   3.713   2.198   5.223  0.0299  2.1520  0.1002
 2970TIP3    H230326   3.809   2.080   5.222 -2.4043  0.1229 -0.9281
 2971TIP3   OH230327   1.210   3.870  16.903  0.1534  0.6976  0.3301
 2971TIP3    H130328   1.124   3.844  16.868  1.2003 -0.4653 -1.4322
 2971TIP3    H230329   1.208   3.966  16.904 -0.8287  0.6919 -0.5443
 2972TIP3   OH230330   5.253   1.260   0.443  0.4369  0.0226  0.2089
 2972TIP3    H130331   5.265   1.355   0.441 -1.2432  0.2756  1.2880
 2972TIP3    H230332   5.318   1.226   0.382  1.5797  1.8170  0.4027
 2973TIP3   OH230333   6.715   4.107   1.309 -0.7268 -0.4395  0.5597
 2973TIP3    H130334   6.719   4.163   1.387  4.7507 -0.6621  0.6329
 2973TIP3    H230335   6.708   4.018   1.345  0.9326 -0.4800  0.8253
 2974TIP3   OH230336   4.752   2.098   3.286 -0.5377 -0.3828  0.2481
 2974TIP3    H130337   4.673   2.087   3.339 -0.7549 -3.0889 -0.5419
 2974TIP3    H230338   4.824   2.086   3.348 -0.6974  1.8741  0.9280
 2975TIP3   OH230339   0.191   4.867   3.538  0.2646  0.4759  0.8243
 2975TIP3    H130340   0.165   4.959   3.548 -0.0137  0.2948  1.8401
 2975TIP3    H230341   0.279   4.871   3.502  0.1219  1.1393  0.5317
 2976TIP3   OH230342   6.316   6.322   1.682  0.4015 -0.0571 -0.2255
 2976TIP3    H130343   6.381   6.322   1.752  1.6672 -1.4626 -1.3684
 2976TIP3    H230344   6.319   6.233   1.646 -2.7632 -0.4201  0.2532
 2977TIP3   OH230345   0.073   2.615   3.698 -0.5501 -0.1305  0.0614
 2977TIP3    H130346  -0.002   2.572   3.739  0.5778 -1.7473  0.5179
 2977TIP3    H230347   0.100   2.555   3.628  0.3509  0.4011 -0.0609
 2978TIP3   OH230348   1.690   3.380   0.893  0.4258  0.2873 -0.2120
 2978TIP3    H130349   1.756   3.347   0.832 -0.2449  1.3430 -1.5374
 2978TIP3    H230350   1.616   3.404   0.837 -0.5068  0.4979  1.1072
 2979TIP3   OH230351   1.857   3.159  13.501 -0.4544  0.3866 -0.4008
 2979TIP3    H130352   1.814   3.074  13.509 -0.2381  0.2376 -0.7697
 2979TIP3    H230353   1.791   3.223  13.525 -1.6336  0.3123 -3.2055
 2980TIP3   OH230354   2.692   1.507  13.095 -0.2815  0.8817 -0.1232
 2980TIP3    H130355   2.763   1.571  13.090  0.5747 -0.0701 -0.2637
 2980TIP3    H230356   2.691   1.465  13.008 -2.1720  2.1105 -0.7262
 2981TIP3   OH230357   0.906   2.677  11.453  0.1966  0.5324  0.0052
 2981TIP3    H130358   0.900   2.696  11.547  0.3132  0.1269  0.0977
 2981TIP3    H230359   0.953   2.752  11.416  0.4338  0.5414  0.3222
 2982TIP3   OH230360   5.380   6.580   5.501  0.1378  1.0077 -0.2510
 2982TIP3    H130361   5.313   6.637   5.464 -0.4779  1.1402  1.0568
 2982TIP3    H230362   5.335   6.529   5.568  1.4364  1.4553  0.9943
 2983TIP3   OH230363   1.834   1.122   5.538 -0.1799 -0.0965  0.1675
 2983TIP3    H130364   1.812   1.041   5.585  0.7367 -0.8525 -0.6682
 2983TIP3    H230365   1.756   1.177   5.546  0.2233  0.1040  3.2102
 2984TIP3   OH230366   6.518   5.964  10.995  0.6375 -0.6771 -0.1824
 2984TIP3    H130367   6.563   6.042  11.027  0.8268 -0.6752 -0.4431
 2984TIP3    H230368   6.432   5.966  11.037  1.3220 -1.3373  1.2883
 2985TIP3   OH230369   3.632   2.863  12.720 -0.2094  0.0532  0.5040
 2985TIP3    H130370   3.627   2.785  12.664 -0.8029  0.1993  0.3472
 2985TIP3    H230371   3.626   2.828  12.809  0.6781 -0.1748  0.4718
 2986TIP3   OH230372   0.450   1.649   3.418 -0.2038  0.3288 -0.1671
 2986TIP3    H130373   0.506   1.727   3.426 -1.9689  1.8028 -1.6305
 2986TIP3    H230374   0.484   1.603   3.341 -0.7783  1.0614 -0.8721
 2987TIP3   OH230375   0.285   5.793  17.081  0.3834  0.3872 -0.3644
 2987TIP3    H130376   0.207   5.848  17.075  0.0420  0.3878  2.9656
 2987TIP3    H230377   0.351   5.849  17.120  0.2471 -1.2532  2.3913
 2988TIP3   OH230378   0.940   4.682  11.566  0.5643 -0.1095  0.0594
 2988TIP3    H130379   0.950   4.734  11.487  2.0627 -0.3383  0.0719
 2988TIP3    H230380   0.906   4.598  11.536 -3.2090  1.2924  0.1972
 2989TIP3   OH230381   2.000   1.423  12.485 -0.0605  0.3386 -0.3002
 2989TIP3    H130382   1.989   1.366  12.560 -0.1870  0.2510 -0.3857
 2989TIP3    H230383   1.931   1.397  12.424  0.7483 -0.3493 -0.9222
 2990TIP3   OH230384   0.822   1.391   2.203 -0.7332 -0.4525 -0.4974
 2990TIP3    H130385   0.845   1.310   2.249  1.3798  0.7920  0.7793
 2990TIP3    H230386   0.857   1.379   2.114  1.1148 -0.3225  0.1741
 2991TIP3   OH230387   6.198   6.674   0.993 -0.2139 -0.2542 -0.0574
 2991TIP3    H130388   6.135   6.688   0.922 -0.7923  2.7161  0.9445
 2991TIP3    H230389   6.278   6.719   0.963 -0.1338  0.1256  0.7083
 2992TIP3   OH230390   0.484   6.295  13.789  0.1549  0.2730 -0.4048
 2992TIP3    H130391   0.533   6.303  13.707  0.4340  3.4408  0.0360
 2992TIP3    H230392   0.543   6.329  13.856 -1.0699  0.1813  0.7324
 2993TIP3   OH230393   0.918   5.497  15.839  0.1159  0.1648 -0.0013
 2993TIP3    H130394   0.845   5.436  15.829  0.8166 -0.4704 -1.4309
 2993TIP3    H230395   0.926   5.538  15.753 -0.2597  2.2009  0.9031
 2994TIP3   OH230396   3.467   3.959   1.207 -0.1648  0.4507  0.1557
 2994TIP3    H130397   3.449   3.874   1.246 -1.6065  0.5131 -0.3331
 2994TIP3    H230398   3.559   3.976   1.227  0.1639 -1.2551  0.1750
 2995TIP3   OH230399   1.897   2.794   5.598  0.1941  0.2026  0.2233
 2995TIP3    H130400   1.861   2.708   5.615  0.7490  0.6503  4.1630
 2995TIP3    H230401   1.982   2.777   5.556  0.2166 -1.1856  0.8085
 2996TIP3   OH230402   0.236   0.386   1.354 -0.3587 -0.3476 -0.3343
 2996TIP3    H130403   0.207   0.336   1.278 -2.0179  0.6434 -0.3773
 2996TIP3    H230404   0.245   0.322   1.424  0.3392 -1.1334 -1.1398
 2997TIP3   OH230405   0.912   3.684  13.525  0.3817  0.1412 -0.1158
 2997TIP3    H130406   0.908   3.779  13.519 -1.8452  0.0238 -0.7963
 2997TIP3    H230407   0.998   3.666  13.563  0.5610  2.4485  0.6443
 2998TIP3   OH230408   6.505   3.124  17.140  0.2137  0.4334  0.3450
 2998TIP3    H130409   6.600   3.129  17.135  0.1249  1.0349 -0.9380
 2998TIP3    H230410   6.486   3.030  17.148  0.8866  0.2575 -0.0909
 2999TIP3   OH230411   0.403   4.506   3.173 -0.5570 -0.1763  0.4625
 2999TIP3    H130412   0.423   4.581   3.116 -1.5918  0.3576  0.7983
 2999TIP3    H230413   0.334   4.458   3.126 -0.9426 -0.1030  0.9574
 3000TIP3   OH230414   4.676   5.138   3.717 -0.0738  0.3138  0.9735
 3000TIP3    H130415   4.742   5.207   3.713 -0.7469  0.9093 -0.2397
 3000TIP3    H230416   4.593   5.184   3.711 -0.6234 -0.4255  2.5864
 3001TIP3   OH230417   4.689   6.560   5.074  0.0413 -0.0111 -0.1648
 3001TIP3    H130418   4.675   6.476   5.116  0.8051 -0.4188 -0.7214
 3001TIP3    H230419   4.752   6.542   5.004  0.2508  1.0240 -0.2539
 3002TIP3   OH230420   5.648   2.203   1.734  0.1808  0.3196 -0.0323
 3002TIP3    H130421   5.637   2.208   1.829  0.2136 -1.8899  0.1316
 3002TIP3    H230422   5.590   2.270   1.699 -0.4429  0.6164  1.5301
 3003TIP3   OH230423   6.696   1.156   3.352 -0.0594  0.1774  0.1427
 3003TIP3    H130424   6.720   1.240   3.313  0.4170  0.0983  0.2632
 3003TIP3    H230425   6.726   1.162   3.442 -1.3792  0.4520  0.5812
 3004TIP3   OH230426   2.964   4.455  13.788 -0.0726  0.4150 -0.4163
 3004TIP3    H130427   3.037   4.395  13.771  0.3675 -0.1491  3.0579
 3004TIP3    H230428   2.888   4.399  13.798  0.0222  0.5547  1.1695
 3005TIP3   OH230429   5.269   4.741   4.673 -0.0006  0.0297  0.1814
 3005TIP3    H130430   5.252   4.662   4.723 -2.3074 -0.5360 -1.3850
 3005TIP3    H230431   5.321   4.712   4.598  0.2848  0.2174  0.3074
 3006TIP3   OH230432   1.258   2.122  13.388 -0.1230  0.2429  0.2469
 3006TIP3    H130433   1.333   2.127  13.328  1.0282 -2.4441  1.3888
 3006TIP3    H230434   1.185   2.095  13.332  0.4085  0.0546 -0.3709
 3007TIP3   OH230435   2.361   1.684   0.905  0.1912 -0.3648 -0.0358
 3007TIP3    H130436   2.424   1.612   0.914  1.3988  0.7569  0.7013
 3007TIP3    H230437   2.302   1.656   0.835  1.8652 -1.1948 -1.1409
 3008TIP3   OH230438   1.606   5.839  17.055 -0.1651  0.3017 -0.1750
 3008TIP3    H130439   1.608   5.766  16.993  0.7484  0.4851 -0.3718
 3008TIP3    H230440   1.551   5.905  17.013 -0.2886  0.0606 -0.3849
 3009TIP3   OH230441   4.560   4.324  10.949 -0.0775  0.1971  0.1885
 3009TIP3    H130442   4.636   4.365  10.907  1.0888 -1.8440  0.2627
 3009TIP3    H230443   4.485   4.359  10.901  0.9377  1.7412 -0.3151
 3010TIP3   OH230444   2.408   1.410  14.395  0.1281  0.9438  0.0818
 3010TIP3    H130445   2.431   1.400  14.488 -0.6416 -0.0299  0.1788
 3010TIP3    H230446   2.316   1.382  14.390  0.8630 -1.4045 -1.3839
 3011TIP3   OH230447   5.282   6.553  11.098 -0.0605  0.6711  0.1417
 3011TIP3    H130448   5.307   6.503  11.021 -1.7683 -0.4522  0.2843
 3011TIP3    H230449   5.358   6.606  11.118  1.0153 -0.2887 -1.3055
 3012TIP3   OH230450   3.217   5.389   5.624 -0.0412  0.5314  0.3707
 3012TIP3    H130451   3.301   5.346   5.610 -0.2552  0.1734  0.1715
 3012TIP3    H230452   3.200   5.436   5.543  0.0531  0.7449  0.4765
 3013TIP3   OH230453   4.433   4.917   0.090 -0.0507  0.0527  0.2935
 3013TIP3    H130454   4.445   4.825   0.113  0.4346  0.3136  1.1119
 3013TIP3    H230455   4.352   4.942   0.135 -0.8497 -0.3026 -0.9385
 3014TIP3   OH230456   6.401   0.699   1.240 -0.5385  0.1276  0.4369
 3014TIP3    H130457   6.324   0.681   1.187 -0.9888 -0.0151  1.1294
 3014TIP3    H230458   6.418   0.792   1.227 -0.6735  0.0988  0.0743
 3015TIP3   OH230459   5.591   4.459   5.362 -0.1053 -0.3674  0.3555
 3015TIP3    H130460   5.613   4.552   5.369 -0.6767 -0.0816 -1.2771
 3015TIP3    H230461   5.546   4.438   5.444  1.6248  0.3282  1.5056
 3016TIP3   OH230462   5.850   3.571  13.803 -0.2773  0.0935  0.1719
 3016TIP3    H130463   5.939   3.552  13.831 -0.1911  1.5500  0.9274
 3016TIP3    H230464   5.841   3.666  13.814 -2.9310 -0.4334  3.1396
 3017TIP3   OH230465   6.434   6.454  14.916 -0.2339  0.3272  0.0324
 3017TIP3    H130466   6.353   6.469  14.867 -0.1635 -0.0035 -0.1885
 3017TIP3    H230467   6.457   6.540  14.953 -0.3528  0.5478 -0.4130
 3018TIP3   OH230468   2.814   2.106  13.033 -0.0944 -0.1950  0.9042
 3018TIP3    H130469   2.871   2.076  13.104  0.1307  1.7621  1.5720
 3018TIP3    H230470   2.753   2.167  13.076 -1.7726 -1.1457 -0.0644
 3019TIP3   OH230471   5.689   3.057  14.412 -0.2149  0.5153  0.0129
 3019TIP3    H130472   5.601   3.021  14.405  0.9588 -2.6287  0.8159
 3019TIP3    H230473   5.720   3.064  14.322 -0.4564 -0.5264 -0.1505
 3020TIP3   OH230474   3.623   2.000   4.091 -0.2654 -0.4921  0.2588
 3020TIP3    H130475   3.620   1.905   4.096  0.0391 -0.5280 -0.2514
 3020TIP3    H230476   3.615   2.029   4.182  1.4123 -1.0637  0.6127
 3021TIP3   OH230477   4.693   3.849   0.946 -0.5393 -0.8195 -0.3865
 3021TIP3    H130478   4.654   3.797   0.875  0.1609 -2.5773  0.5092
 3021TIP3    H230479   4.787   3.838   0.935 -0.3305  1.0153 -0.7190
 3022TIP3   OH230480   1.213   2.995   5.393 -0.3253 -0.0381  0.4134
 3022TIP3    H130481   1.302   2.965   5.378  0.3627  2.8698 -1.8679
 3022TIP3    H230482   1.215   3.033   5.480  0.3599 -1.0249  0.8362
 3023TIP3   OH230483   5.110   2.459   4.693 -0.1440  0.3183 -0.1624
 3023TIP3    H130484   5.140   2.534   4.641  0.5877  0.9519  1.1558
 3023TIP3    H230485   5.018   2.479   4.712 -1.2364 -1.1679 -3.3789
 3024TIP3   OH230486   5.466   0.750   3.411  0.3494  0.2719 -0.1780
 3024TIP3    H130487   5.533   0.683   3.397 -0.3058 -0.2812 -0.7216
 3024TIP3    H230488   5.511   0.833   3.396  1.1725 -0.0417  0.4949
 3025TIP3   OH230489   3.196   1.731  12.794  0.1366 -0.6566  0.5229
 3025TIP3    H130490   3.265   1.756  12.733 -0.1128  0.2175  0.5807
 3025TIP3    H230491   3.167   1.814  12.832 -1.8866 -0.8359 -0.5289
 3026TIP3   OH230492   3.417   4.770   6.229  0.8026  0.3366  0.2894
 3026TIP3    H130493   3.335   4.814   6.205  1.0922  1.0449  0.5906
 3026TIP3    H230494   3.447   4.729   6.148 -0.2172 -0.5252  0.3356
 3027TIP3   OH230495   1.790   0.594  12.457  0.0394 -0.5395 -0.2507
 3027TIP3    H130496   1.727   0.523  12.450 -0.4645 -0.3533  1.9321
 3027TIP3    H230497   1.859   0.571  12.395 -0.6318 -2.3814 -0.3491
 3028TIP3   OH230498   0.649   1.347  15.588 -0.1933 -0.4037  0.5192
 3028TIP3    H130499   0.588   1.319  15.520 -1.3263  0.5060  1.1340
 3028TIP3    H230500   0.611   1.316  15.670 -1.6373  2.9963  1.2535
 3029TIP3   OH230501   0.754   4.510   6.056  0.6948  0.0955  0.2452
 3029TIP3    H130502   0.701   4.588   6.072 -1.9149 -1.3062 -1.1161
 3029TIP3    H230503   0.751   4.462   6.139 -1.7435 -0.8280 -0.3334
 3030TIP3   OH230504   0.933   3.596  14.654  0.5281  0.1097 -0.1023
 3030TIP3    H130505   0.879   3.580  14.732 -0.6318 -1.0075 -1.1003
 3030TIP3    H230506   0.960   3.688  14.661 -1.0616  0.5284  0.6929
 3031TIP3   OH230507   4.598   5.502  16.043 -0.0251 -0.2502  0.6045
 3031TIP3    H130508   4.506   5.502  16.019  0.0619  2.1268  0.1043
 3031TIP3    H230509   4.631   5.417  16.013 -1.6771 -0.4596 -0.6830
 3032TIP3   OH230510   2.195   1.944   3.676  0.0670 -0.2926  0.0536
 3032TIP3    H130511   2.202   2.032   3.714 -1.1892 -0.5876  1.0028
 3032TIP3    H230512   2.245   1.948   3.595 -0.9940  1.6456 -0.5260
 3033TIP3   OH230513   6.623   3.005   1.712  0.0723  0.0524  0.2389
 3033TIP3    H130514   6.602   2.979   1.801 -0.4126  0.7957  0.3528
 3033TIP3    H230515   6.564   3.079   1.694 -0.2748 -0.4784 -0.9086
 3034TIP3   OH230516   2.690   2.328   0.097  0.2904 -0.1122  0.5597
 3034TIP3    H130517   2.669   2.246   0.052  0.6330  0.1193 -0.0273
 3034TIP3    H230518   2.783   2.323   0.116  0.3655  0.2520  0.2947
 3035TIP3   OH230519   6.158   2.710  11.460  0.3392 -0.1514  0.1033
 3035TIP3    H130520   6.232   2.685  11.404 -0.8361 -0.2829 -1.4212
 3035TIP3    H230521   6.107   2.771  11.406 -0.5469  0.1040  1.2277
 3036TIP3   OH230522   3.999   2.351   0.428 -0.3862 -0.2798  0.0434
 3036TIP3    H130523   3.911   2.313   0.422 -0.3296 -0.5951  0.9980
 3036TIP3    H230524   4.057   2.284   0.392 -0.5787  0.1147 -1.0105
 3037TIP3   OH230525   2.613   3.918  14.641  0.5734 -0.5484  0.1877
 3037TIP3    H130526   2.556   3.938  14.716 -2.3030 -1.3096 -1.7194
 3037TIP3    H230527   2.654   4.002  14.620  1.5478 -0.3534  2.6804
 3038TIP3   OH230528   0.451   3.497   1.035  0.7478 -0.0022 -0.1855
 3038TIP3    H130529   0.364   3.458   1.023  0.9756 -0.3953 -0.5525
 3038TIP3    H230530   0.441   3.555   1.110  0.2961 -0.4291  0.0839
 3039TIP3   OH230531   1.276   1.063  12.256  0.4074  0.0002  0.0458
 3039TIP3    H130532   1.304   1.107  12.176  0.5431  2.5185  1.4483
 3039TIP3    H230533   1.193   1.022  12.233  0.9953 -0.2499 -1.6906
 3040TIP3   OH230534   2.669   0.228   0.858 -0.1148 -0.6853  0.1257
 3040TIP3    H130535   2.755   0.243   0.896  0.2980  0.0570 -1.0941
 3040TIP3    H230536   2.687   0.193   0.771 -1.0373  0.7202 -0.6423
 3041TIP3   OH230537   5.294   3.208  13.462 -0.0573 -0.5227  0.0940
 3041TIP3    H130538   5.326   3.295  13.438 -1.7349  0.1014  0.0626
 3041TIP3    H230539   5.232   3.185  13.394  0.3329 -1.7333  0.1372
 3042TIP3   OH230540   4.069   5.054  10.597  0.1042 -0.1227 -0.1923
 3042TIP3    H130541   4.064   5.139  10.553  0.2190  0.1340  0.2734
 3042TIP3    H230542   4.142   5.009  10.554 -0.6944 -0.4516 -1.2164
 3043TIP3   OH230543   2.707   3.057   3.319 -0.0731 -0.2409  0.6461
 3043TIP3    H130544   2.626   3.073   3.271  0.7045 -0.0845 -0.6394
 3043TIP3    H230545   2.709   2.963   3.333  0.6150 -0.5346 -1.3116
 3044TIP3   OH230546   3.336   6.156   5.690 -0.4098  0.7295  0.0528
 3044TIP3    H130547   3.344   6.234   5.635 -0.0434 -0.3878 -1.5153
 3044TIP3    H230548   3.417   6.108   5.675 -0.6575  0.0158  0.9674
 3045TIP3   OH230549   4.981   6.196   1.825  0.0897 -0.4235 -0.3074
 3045TIP3    H130550   5.014   6.108   1.840  1.8767  0.2254 -0.3219
 3045TIP3    H230551   5.046   6.237   1.768 -1.3001  0.5339 -1.2345
 3046TIP3   OH230552   4.583   5.175   0.622  0.1449  0.2094 -0.1619
 3046TIP3    H130553   4.611   5.234   0.692  2.8825  1.7715 -2.4627
 3046TIP3    H230554   4.664   5.142   0.584 -1.3249 -3.0241 -0.6729
 3047TIP3   OH230555   1.394   1.241  13.010  0.3464  0.0094  0.4780
 3047TIP3    H130556   1.323   1.179  13.027  1.1368 -0.7954  0.8952
 3047TIP3    H230557   1.442   1.246  13.093  0.5917  0.7956  0.2965
 3048TIP3   OH230558   5.117   6.647   2.157  0.2480  0.0031  0.2147
 3048TIP3    H130559   5.061   6.721   2.134  0.6449  0.9201  2.1015
 3048TIP3    H230560   5.095   6.579   2.093 -2.3354  0.6678  0.3469
 3049TIP3   OH230561   3.175   6.043   0.869  0.2830  0.3454  0.3296
 3049TIP3    H130562   3.081   6.033   0.880  0.5950  0.1812  3.0234
 3049TIP3    H230563   3.190   6.138   0.875  0.1846  0.4867 -1.2890
 3050TIP3   OH230564   1.865   3.475   3.934 -0.4474 -0.5856 -0.2787
 3050TIP3    H130565   1.809   3.445   3.863 -0.7148  0.4212 -0.5058
 3050TIP3    H230566   1.952   3.485   3.894 -0.4201 -0.7970 -0.2699
 3051TIP3   OH230567   3.992   6.732   1.370  0.1225 -0.4725 -0.3060
 3051TIP3    H130568   3.985   6.804   1.308  0.3079  0.1586  0.4055
 3051TIP3    H230569   3.907   6.731   1.415  0.1489 -0.6585 -0.2568
 3052TIP3   OH230570   6.004   5.870  12.477 -0.4488  0.0920 -0.5719
 3052TIP3    H130571   5.929   5.869  12.537 -1.0896  1.1970 -1.3382
 3052TIP3    H230572   5.966   5.880  12.390  0.5824  0.5098 -0.9889
 3053TIP3   OH230573   5.794   4.757  16.424  0.4717 -0.1082 -0.0258
 3053TIP3    H130574   5.822   4.809  16.500  0.0132  0.4417 -0.2309
 3053TIP3    H230575   5.805   4.816  16.349  0.3519 -0.4538 -0.3180
 3054TIP3   OH230576   5.689   0.807  12.613 -0.2034 -0.4184  1.1347
 3054TIP3    H130577   5.686   0.880  12.552  0.1761  0.2620  1.9241
 3054TIP3    H230578   5.620   0.826  12.676 -1.1760 -1.5627  0.4231
 3055TIP3   OH230579   3.078   5.410   5.849 -0.4032  0.5557 -0.2278
 3055TIP3    H130580   3.135   5.415   5.772 -1.3571 -1.6732 -1.1110
 3055TIP3    H230581   2.989   5.414   5.814 -0.9038 -2.7478  0.5006
 3056TIP3   OH230582   6.111   2.083  14.571  0.4544 -0.3797 -0.2577
 3056TIP3    H130583   6.081   2.083  14.480  0.0918 -0.3425 -0.1389
 3056TIP3    H230584   6.046   2.030  14.618  0.8101 -0.6618 -0.0736
 3057TIP3   OH230585   0.449   5.348  12.638  0.0865 -0.4388  0.5276
 3057TIP3    H130586   0.498   5.291  12.697 -1.8119 -1.6509  0.9851
 3057TIP3    H230587   0.495   5.343  12.555  3.3049  1.9324  2.0530
 3058TIP3   OH230588   2.085   5.999  13.183  0.9024  0.0382 -0.6203
 3058TIP3    H130589   2.127   6.059  13.122  0.9955 -0.3901 -0.9804
 3058TIP3    H230590   2.004   6.043  13.208  0.8869  0.2401 -1.0168
 3059TIP3   OH230591   4.499   5.478  13.029  0.1315 -1.3187 -0.5337
 3059TIP3    H130592   4.434   5.491  12.960 -0.2767  1.2557  0.3022
 3059TIP3    H230593   4.448   5.449  13.105 -0.0457  0.5596  0.0791
 3060TIP3   OH230594   0.132   3.242   2.371  0.2027  0.0900 -0.0539
 3060TIP3    H130595   0.168   3.308   2.311  0.5281 -1.4949 -1.6493
 3060TIP3    H230596   0.049   3.216   2.331  0.3600 -0.8878  0.2456
 3061TIP3   OH230597   0.575   0.679  15.018 -0.5295  0.0094 -0.3110
 3061TIP3    H130598   0.556   0.595  15.060 -0.7962 -0.4170 -1.2633
 3061TIP3    H230599   0.491   0.709  14.983 -0.3081  0.3369 -0.5753
 3062TIP3   OH230600   6.048   6.539  12.878  0.5179  0.3574  0.1846
 3062TIP3    H130601   6.076   6.625  12.911 -1.0626  0.3797  1.5226
 3062TIP3    H230602   6.075   6.539  12.786  2.4107  1.4490  0.7049
 3063TIP3   OH230603   5.479   6.259  13.555 -0.2301  0.0231  0.2812
 3063TIP3    H130604   5.439   6.332  13.602  1.7465  1.2548  0.1249
 3063TIP3    H230605   5.550   6.229  13.613  0.1615 -0.5490 -0.4839
 3064TIP3   OH230606   0.391   2.940   1.962  0.2614  0.5472 -0.4604
 3064TIP3    H130607   0.303   2.962   1.994 -0.0951 -1.3323 -0.0949
 3064TIP3    H230608   0.427   3.024   1.932 -1.6606  1.3399 -0.6353
 3065TIP3   OH230609   2.229   6.257  13.340  0.0607 -0.5472 -0.0691
 3065TIP3    H130610   2.285   6.334  13.357  0.7007 -1.2845  1.2241
 3065TIP3    H230611   2.152   6.293  13.298  1.7089  0.4512 -2.3618
 3066TIP3   OH230612   2.653   3.572   2.533  0.4184  0.1475  0.1845
 3066TIP3    H130613   2.606   3.620   2.601 -1.3718 -1.2187 -0.0632
 3066TIP3    H230614   2.723   3.526   2.580 -0.7814 -0.7528  1.1278
 3067TIP3   OH230615   0.998   3.424   1.248 -0.3401  0.3509  0.2805
 3067TIP3    H130616   1.011   3.340   1.293  0.9604  1.6417  2.3608
 3067TIP3    H230617   1.081   3.441   1.204 -1.2600 -0.3839 -1.8509
 3068TIP3   OH230618   6.626   2.778  11.620 -0.3382  0.1083  0.7707
 3068TIP3    H130619   6.533   2.757  11.634 -0.2710 -0.0461  0.9752
 3068TIP3    H230620   6.659   2.798  11.707  0.0223 -0.6226  0.8014
 3069TIP3   OH230621   3.553   0.827  15.356  0.1050 -0.2840  0.7747
 3069TIP3    H130622   3.600   0.765  15.412 -0.1602 -0.7124  0.5159
 3069TIP3    H230623   3.505   0.773  15.294 -0.7882  0.1488  1.0785
 3070TIP3   OH230624   3.342   0.193   5.903  0.2416  0.2487 -0.2249
 3070TIP3    H130625   3.249   0.173   5.912  0.2945  0.2311  0.2864
 3070TIP3    H230626   3.370   0.217   5.992  0.3363  1.8773 -0.6703
 3071TIP3   OH230627   4.795   5.069  11.425 -0.1844  0.0650  0.5701
 3071TIP3    H130628   4.815   5.124  11.501  1.0190  0.0352  0.2894
 3071TIP3    H230629   4.812   4.979  11.455 -1.9875 -0.1436  0.9788
 3072TIP3   OH230630   5.140   6.298   6.125 -0.1644 -0.6468 -0.4659
 3072TIP3    H130631   5.143   6.377   6.072  0.4624  0.3173  0.9652
 3072TIP3    H230632   5.057   6.304   6.173 -0.5020 -1.2674 -0.9695
 3073TIP3   OH230633   0.169   2.845  13.716  0.3071 -0.7015  0.3656
 3073TIP3    H130634   0.133   2.784  13.652  0.1516  0.8965 -1.1105
 3073TIP3    H230635   0.230   2.900  13.666 -2.1463  2.6390  0.8438
 3074TIP3   OH230636   5.510   1.746   0.919 -0.8782 -0.4486 -0.5497
 3074TIP3    H130637   5.564   1.674   0.951 -2.1608 -0.6040  1.4060
 3074TIP3    H230638   5.558   1.782   0.845  0.8360 -1.9280 -0.1859
 3075TIP3   OH230639   5.724   1.751   1.311 -0.3843 -0.2878 -0.3878
 3075TIP3    H130640   5.742   1.770   1.403 -0.9402  0.7073 -0.4797
 3075TIP3    H230641   5.684   1.831   1.277  0.0531 -0.5564 -1.5631
 3076TIP3   OH230642   0.312   4.920  14.424 -0.0189  0.0690 -0.4083
 3076TIP3    H130643   0.400   4.885  14.416 -0.4436 -1.1821  0.1908
 3076TIP3    H230644   0.255   4.842  14.421 -1.0688  0.8243 -0.4135
 3077TIP3   OH230645   5.075   3.751   1.567  0.0614 -0.1697 -0.0549
 3077TIP3    H130646   5.079   3.675   1.625  0.9334  0.9385  1.3866
 3077TIP3    H230647   5.166   3.767   1.542  0.0223  1.0913  0.5852
 3078TIP3   OH230648   2.842   0.387  12.443  0.4132 -0.1523  0.0272
 3078TIP3    H130649   2.937   0.370  12.443  0.4261 -0.0806 -0.1147
 3078TIP3    H230650   2.835   0.482  12.451  0.3323 -0.2535  1.1962
 3079TIP3   OH230651   3.581   5.396  10.952 -0.3890 -0.5946 -0.1038
 3079TIP3    H130652   3.564   5.388  11.046  2.1963 -1.3187  0.3361
 3079TIP3    H230653   3.494   5.391  10.912 -1.4840 -0.8475  2.1951
 3080TIP3   OH230654   0.713   5.946  14.389  0.2521 -0.3611 -0.1174
 3080TIP3    H130655   0.719   5.928  14.295  1.5453 -1.3916  0.1479
 3080TIP3    H230656   0.803   5.956  14.417 -0.0261 -1.6737  1.3101
 3081TIP3   OH230657   0.441   5.438   3.172 -0.6672  0.2516  0.1927
 3081TIP3    H130658   0.494   5.368   3.132  1.7101  0.7597  2.3327
 3081TIP3    H230659   0.371   5.454   3.109  1.9187 -0.2085 -2.9256
 3082TIP3   OH230660   0.463   1.191  14.843  0.1025 -0.0595  0.0627
 3082TIP3    H130661   0.392   1.187  14.779  0.5242  2.8881 -0.6887
 3082TIP3    H230662   0.428   1.245  14.914  1.0985  0.2375  0.3408
 3083TIP3   OH230663   3.698   4.217  12.014  0.2080  0.0913  0.2792
 3083TIP3    H130664   3.711   4.170  12.096 -1.3160  1.5362  1.3648
 3083TIP3    H230665   3.787   4.237  11.984  0.7842 -0.8853  1.3019
 3084TIP3   OH230666   4.251   2.081   0.850  0.1508  0.6480  0.3582
 3084TIP3    H130667   4.250   2.176   0.840 -0.5279  0.7633  1.3913
 3084TIP3    H230668   4.182   2.049   0.792  0.7731  0.7330 -0.4323
 3085TIP3   OH230669   5.428   1.241  13.307  0.2604 -0.6965 -0.0260
 3085TIP3    H130670   5.377   1.286  13.374  1.0776 -1.9791  1.4978
 3085TIP3    H230671   5.468   1.311  13.255 -1.3964  0.3124  0.0297
 3086TIP3   OH230672   1.132   1.313  16.074  0.0861 -0.4653 -0.4325
 3086TIP3    H130673   1.061   1.251  16.090 -1.2493  0.6635 -1.7887
 3086TIP3    H230674   1.120   1.341  15.984  1.4169  0.8265 -0.2362
 3087TIP3   OH230675   0.535   2.996  15.456 -0.1132  0.5955  0.6945
 3087TIP3    H130676   0.627   3.010  15.435  0.1682 -0.9517  0.8145
 3087TIP3    H230677   0.489   3.008  15.373  0.6412 -2.3954 -0.2185
 3088TIP3   OH230678   6.412   1.433   1.111  0.0603 -0.3812 -0.1168
 3088TIP3    H130679   6.480   1.387   1.062  1.3085  0.3274  0.9327
 3088TIP3    H230680   6.453   1.455   1.194 -0.6189  2.2698 -0.4273
 3089TIP3   OH230681   6.479   3.153   1.972 -0.1402 -0.1167  0.1043
 3089TIP3    H130682   6.441   3.066   1.959 -1.4757  0.5369 -0.5463
 3089TIP3    H230683   6.424   3.193   2.039  1.5024 -0.3709  1.6209
 3090TIP3   OH230684   2.478   2.451  11.234 -0.0130  0.4681 -0.5843
 3090TIP3    H130685   2.505   2.536  11.200 -1.4603  1.0485 -0.3407
 3090TIP3    H230686   2.384   2.461  11.252 -0.3244 -1.3156 -1.0230
 3091TIP3   OH230687   1.669   3.215   1.133 -0.6086 -0.0515 -0.4444
 3091TIP3    H130688   1.738   3.220   1.199 -1.1688 -0.9996  0.2109
 3091TIP3    H230689   1.703   3.268   1.060  0.0932  0.8454  0.5085
 3092TIP3   OH230690   2.952   6.186   2.795  0.6504  0.6917 -0.3416
 3092TIP3    H130691   2.963   6.143   2.880 -0.8291  1.1868  0.1093
 3092TIP3    H230692   2.920   6.117   2.737 -0.0501  0.7567 -0.0442
 3093TIP3   OH230693   3.543   1.685   4.927  0.1942  0.4888 -0.3544
 3093TIP3    H130694   3.584   1.743   4.863 -1.5418  0.0842 -1.8863
 3093TIP3    H230695   3.607   1.614   4.938  0.3086  0.2954 -2.0478
 3094TIP3   OH230696   6.098   4.612   0.187  0.0116  0.1229 -0.4561
 3094TIP3    H130697   6.031   4.576   0.129 -0.2831  1.0564 -0.7082
 3094TIP3    H230698   6.178   4.565   0.164 -0.6133 -1.1926  0.0340
 3095TIP3   OH230699   0.396   2.627   5.906 -0.2371  0.0044 -0.6256
 3095TIP3    H130700   0.365   2.580   5.983  0.7519 -0.1959 -0.3425
 3095TIP3    H230701   0.361   2.716   5.917  0.0620  0.0308  0.1567
 3096TIP3   OH230702   3.629   4.371  13.571  0.4614 -0.5082  0.2983
 3096TIP3    H130703   3.579   4.377  13.489 -0.3356 -2.2982  0.6401
 3096TIP3    H230704   3.691   4.444  13.566 -0.3203  0.0705 -1.3957
 3097TIP3   OH230705   0.042   2.645  12.037 -0.3587  0.0151 -0.1139
 3097TIP3    H130706   0.024   2.578  12.103  0.7501  0.6247  0.8228
 3097TIP3    H230707   0.010   2.726  12.076 -2.6347 -0.0972 -1.6663
 3098TIP3   OH230708   2.991   2.604  14.470  0.1403 -0.3222  0.8943
 3098TIP3    H130709   2.906   2.589  14.511 -0.1573 -1.4497 -0.1032
 3098TIP3    H230710   3.013   2.520  14.430  2.0461 -0.2509  1.7399
 3099TIP3   OH230711   0.220   6.619   3.089 -0.0465 -0.1760  0.6041
 3099TIP3    H130712   0.257   6.556   3.026  0.9866  1.6686 -0.6776
 3099TIP3    H230713   0.139   6.648   3.049  0.1275  0.2712  0.5741
 3100TIP3   OH230714   0.399   5.224  13.875  0.6780  0.6081  0.1369
 3100TIP3    H130715   0.353   5.251  13.955  1.3842  0.6574  0.5366
 3100TIP3    H230716   0.339   5.245  13.804  0.2086  0.9394  0.6270
 3101TIP3   OH230717   2.912   1.598   0.451  0.4221  0.3658  0.2505
 3101TIP3    H130718   2.945   1.514   0.419 -0.5688  0.8437 -2.1388
 3101TIP3    H230719   2.820   1.582   0.469  0.8840  0.2089  2.5745
 3102TIP3   OH230720   2.517   0.954  15.061  0.8254 -0.3383 -0.9559
 3102TIP3    H130721   2.448   0.950  15.128  3.1658 -0.8589  1.5075
 3102TIP3    H230722   2.552   1.043  15.069  1.3747 -0.5318 -1.2295
 3103TIP3   OH230723   3.501   4.984  12.870  0.2966  0.3144 -0.1120
 3103TIP3    H130724   3.583   4.952  12.833 -0.2974 -0.8585 -0.4245
 3103TIP3    H230725   3.529   5.041  12.943  1.3658 -1.3595  0.8363
 3104TIP3   OH230726   1.918   2.295   4.226  0.2644  0.1239 -0.5699
 3104TIP3    H130727   1.842   2.341   4.261  0.0303 -0.9165  0.3547
 3104TIP3    H230728   1.978   2.289   4.300  0.7176 -0.1357 -0.9568
 3105TIP3   OH230729   5.787   3.676  15.795 -0.2866  0.5324 -0.1709
 3105TIP3    H130730   5.819   3.728  15.868  0.2343 -1.0084  0.7334
 3105TIP3    H230731   5.859   3.677  15.731  1.6524 -2.8275  1.8045
 3106TIP3   OH230732   6.585   2.181  11.670 -0.1219 -0.2444  0.3041
 3106TIP3    H130733   6.511   2.170  11.730 -0.1286  0.0867  0.3558
 3106TIP3    H230734   6.652   2.122  11.705  0.4521  1.1076  1.5655
 3107TIP3   OH230735   0.643   2.954   0.566  0.8272 -0.5837 -0.4603
 3107TIP3    H130736   0.717   2.908   0.605  1.1894 -0.6197 -1.1981
 3107TIP3    H230737   0.566   2.910   0.603  1.1688 -0.2836  0.6108
 3108TIP3   OH230738   4.745   1.794  17.019 -0.2689  0.3782  0.4087
 3108TIP3    H130739   4.690   1.832  16.950  0.8559 -0.1196 -0.7760
 3108TIP3    H230740   4.724   1.700  17.016 -0.2526  0.3629  0.7849
 3109TIP3   OH230741   0.045   3.584   3.648 -0.3225 -0.1665  0.3079
 3109TIP3    H130742   0.048   3.500   3.603 -2.2444  0.1918 -0.5595
 3109TIP3    H230743  -0.024   3.574   3.714  1.9450 -0.4387  2.6930
 3110TIP3   OH230744   6.109   5.460  16.687  0.1760 -0.4570  0.0426
 3110TIP3    H130745   6.018   5.456  16.716  0.7357 -0.7004  1.8496
 3110TIP3    H230746   6.131   5.553  16.687  0.4888 -0.5143  1.5061
 3111TIP3   OH230747   3.318   1.811  16.630 -0.1023  0.4446 -0.6713
 3111TIP3    H130748   3.319   1.731  16.577  1.0236 -0.7775  1.1291
 3111TIP3    H230749   3.352   1.879  16.572  2.0543 -1.0595 -1.2368
 3112TIP3   OH230750   1.622   5.428   4.226  1.0631  0.2357  0.1498
 3112TIP3    H130751   1.704   5.444   4.179  1.3024 -0.8809  0.1758
 3112TIP3    H230752   1.565   5.386   4.161  1.0226 -0.3288  0.5464
 3113TIP3   OH230753   0.221   4.474  14.993 -0.0210 -0.2695  0.0221
 3113TIP3    H130754   0.262   4.518  14.919  1.4862 -0.8360  0.4961
 3113TIP3    H230755   0.157   4.416  14.954  1.4548 -1.2941 -0.9334
 3114TIP3   OH230756   0.250   3.429  15.337  0.1661  0.1888 -0.1830
 3114TIP3    H130757   0.293   3.467  15.260  0.2634 -0.9016 -0.6831
 3114TIP3    H230758   0.318   3.375  15.378 -0.4817 -0.9331 -0.5512
 3115TIP3   OH230759   4.297   4.083   2.476 -0.3602 -0.0675 -0.6072
 3115TIP3    H130760   4.308   3.992   2.449  1.4762  0.3946 -1.5277
 3115TIP3    H230761   4.327   4.084   2.567 -1.3052 -0.5697 -0.2908
 3116TIP3   OH230762   4.136   5.153  17.101 -0.1451 -0.0594 -0.3160
 3116TIP3    H130763   4.080   5.120  17.030 -0.5545 -1.2439  0.5468
 3116TIP3    H230764   4.084   5.140  17.180  0.2785  1.3517  0.1960
 3117TIP3   OH230765   3.472   4.055  11.967 -0.6032  0.6691  0.3036
 3117TIP3    H130766   3.567   4.069  11.973 -0.5768  1.9496 -2.1827
 3117TIP3    H230767   3.435   4.142  11.960 -2.1393  0.2471  2.6153
 3118TIP3   OH230768   4.738   4.452  11.534 -0.2174  0.0893 -0.3766
 3118TIP3    H130769   4.662   4.491  11.490 -0.9930 -0.0414  0.8043
 3118TIP3    H230770   4.811   4.508  11.510 -0.7455  0.3940 -1.3030
 3119TIP3   OH230771   0.310   4.106   3.129 -0.1251  0.7472  0.1498
 3119TIP3    H130772   0.293   4.027   3.078  0.0329  0.2313  0.8836
 3119TIP3    H230773   0.323   4.175   3.064  1.4595 -0.1894 -0.5366
 3120TIP3   OH230774   0.650   5.130  16.773 -0.0770 -0.2725  0.5373
 3120TIP3    H130775   0.701   5.206  16.745 -0.7086  0.4011  1.1996
 3120TIP3    H230776   0.702   5.054  16.743  1.7244  0.3839  1.8744
 3121TIP3   OH230777   1.700   3.263   0.569  0.2022  0.3549 -0.7749
 3121TIP3    H130778   1.642   3.196   0.606 -0.1695  1.6928  1.1241
 3121TIP3    H230779   1.670   3.274   0.479 -2.3184  0.8219  0.1028
 3122TIP3   OH230780   1.360   6.440  14.225  0.0946 -0.4223  0.1694
 3122TIP3    H130781   1.287   6.387  14.258 -0.1112 -0.7440 -0.7740
 3122TIP3    H230782   1.318   6.518  14.189  0.2131 -0.6143 -0.3851
 3123TIP3   OH230783   2.443   3.179  14.943 -0.0157  0.6249 -0.1401
 3123TIP3    H130784   2.515   3.221  14.990  0.4714  0.2380 -0.5329
 3123TIP3    H230785   2.434   3.230  14.862 -0.9082  1.3420  0.3914
 3124TIP3   OH230786   4.829   1.661  15.929  1.1017  0.3001  0.0645
 3124TIP3    H130787   4.791   1.748  15.944  0.8502  0.1080  0.5671
 3124TIP3    H230788   4.848   1.659  15.836  1.2132  0.9418  0.0676
 3125TIP3   OH230789   5.720   0.587  16.225  0.8211  0.2823  0.1335
 3125TIP3    H130790   5.711   0.677  16.257  0.3895  0.2164  0.2011
 3125TIP3    H230791   5.809   0.562  16.248  1.3331  1.1074 -0.9174
 3126TIP3   OH230792   6.213   1.289   2.790  0.1920 -0.0196  0.1525
 3126TIP3    H130793   6.254   1.352   2.730 -0.9653  0.6691  0.0645
 3126TIP3    H230794   6.286   1.239   2.826  0.9132 -0.3959 -1.7817
 3127TIP3   OH230795   3.156   5.765   1.234  0.2596 -0.1092  0.8034
 3127TIP3    H130796   3.178   5.678   1.269  2.3212  0.4197  0.9048
 3127TIP3    H230797   3.225   5.782   1.170  0.0541  1.6111  1.0389
 3128TIP3   OH230798   6.186   5.319   5.516 -0.0841 -0.0125 -0.6934
 3128TIP3    H130799   6.146   5.283   5.595  0.6535  1.1382  0.2156
 3128TIP3    H230800   6.113   5.330   5.455 -0.7413 -0.4088  0.0169
 3129TIP3   OH230801   1.964   3.794   5.536 -0.4423 -0.0183 -0.5983
 3129TIP3    H130802   1.995   3.728   5.474 -0.5118 -0.5844 -0.0394
 3129TIP3    H230803   2.002   3.767   5.620 -2.6224 -0.8934  0.1495
 3130TIP3   OH230804   6.181   2.453   5.577 -0.0008 -0.2248  0.1387
 3130TIP3    H130805   6.267   2.491   5.594 -0.1952  0.3014 -0.0702
 3130TIP3    H230806   6.132   2.521   5.532 -0.9895 -0.0091  1.4839
 3131TIP3   OH230807   6.333   1.538   5.389  0.0569  0.0180 -0.3454
 3131TIP3    H130808   6.249   1.527   5.345 -1.2975 -0.1223  2.1572
 3131TIP3    H230809   6.364   1.449   5.404  0.1687  0.0505 -0.3842
 3132TIP3   OH230810   4.081   1.933  13.350  0.4470  0.4242 -0.0981
 3132TIP3    H130811   4.140   2.000  13.315 -0.3298  2.3168  2.0608
 3132TIP3    H230812   3.996   1.977  13.356 -0.5391 -1.3830 -0.4955
 3133TIP3   OH230813   4.542   5.786   0.432 -0.6037 -0.1090 -0.3312
 3133TIP3    H130814   4.531   5.722   0.502  0.0176 -0.5731 -0.6418
 3133TIP3    H230815   4.520   5.870   0.471 -0.9789 -0.4586  0.2118
 3134TIP3   OH230816   3.426   3.879  11.755 -0.1118 -0.0115 -0.0130
 3134TIP3    H130817   3.519   3.858  11.742 -0.4653 -0.8403 -1.2581
 3134TIP3    H230818   3.422   3.915  11.844  1.3668 -0.1637  0.1271
 3135TIP3   OH230819   2.036   1.487  16.625 -0.2835 -0.2431 -0.1156
 3135TIP3    H130820   2.048   1.541  16.703 -0.0590  0.3446 -0.5503
 3135TIP3    H230821   2.063   1.399  16.652  0.8835  0.1945  0.1356
 3136TIP3   OH230822   1.225   4.418   2.782 -0.5472 -0.1931 -0.6107
 3136TIP3    H130823   1.308   4.411   2.735 -0.7518  0.2302 -1.0385
 3136TIP3    H230824   1.200   4.328   2.800  1.5421 -0.2829  2.2452
 3137TIP3   OH230825   5.435   2.072   5.464  0.0186  0.0059 -0.7738
 3137TIP3    H130826   5.448   2.167   5.465  1.3257 -0.1805  0.3775
 3137TIP3    H230827   5.382   2.056   5.386  0.0187  1.6535 -1.1190
 3138TIP3   OH230828   4.141   3.111   4.118  0.2242  0.2872  0.0279
 3138TIP3    H130829   4.087   3.035   4.140 -0.9978  1.1878  0.1591
 3138TIP3    H230830   4.219   3.073   4.076 -0.3084 -1.0387  0.2080
 3139TIP3   OH230831   0.067   0.193   3.366  0.0175 -0.3342  0.3642
 3139TIP3    H130832   0.058   0.236   3.451 -1.0823 -1.3209  0.7719
 3139TIP3    H230833   0.100   0.261   3.308 -3.0330  1.4837  0.6537
 3140TIP3   OH230834   4.691   5.036  15.451 -0.4328 -0.4087  0.1041
 3140TIP3    H130835   4.618   5.043  15.388  1.3215 -0.4166 -1.9864
 3140TIP3    H230836   4.716   4.943  15.447 -0.0148 -0.3119  0.4702
 3141TIP3   OH230837   6.725   2.966   2.236  0.0283 -0.2119 -0.1017
 3141TIP3    H130838   6.670   2.894   2.267 -0.6198  0.7240  0.9682
 3141TIP3    H230839   6.675   3.045   2.256  0.9102  0.5623 -0.8936
 3142TIP3   OH230840   4.596   2.235   2.382  0.7556 -0.4946 -0.0953
 3142TIP3    H130841   4.661   2.173   2.349  2.0707  1.0160 -0.3840
 3142TIP3    H230842   4.645   2.316   2.398 -0.2251 -0.5002  3.5132
 3143TIP3   OH230843   4.919   2.834   1.360 -0.3901  0.3235  0.3464
 3143TIP3    H130844   4.867   2.858   1.437 -2.8140 -2.5665 -0.2785
 3143TIP3    H230845   5.005   2.813   1.395 -1.8055 -2.2283  2.5409
 3144TIP3   OH230846   6.333   3.095   5.713  0.5098  0.2004 -0.4885
 3144TIP3    H130847   6.359   3.041   5.787 -1.5999 -0.5359 -0.2398
 3144TIP3    H230848   6.261   3.047   5.672 -0.4140  2.0815 -1.1621
 3145TIP3   OH230849   6.589   2.962   5.486  0.1735  0.1793 -0.9960
 3145TIP3    H130850   6.638   2.892   5.442 -0.7311 -1.2107  0.1591
 3145TIP3    H230851   6.500   2.953   5.453 -0.8383 -1.7575  2.0436
 3146TIP3   OH230852   2.383   0.813   4.460 -0.1411 -0.2937 -0.3478
 3146TIP3    H130853   2.374   0.894   4.410  0.4058 -2.1141 -3.5526
 3146TIP3    H230854   2.337   0.747   4.407  3.4147 -3.0045 -0.2275
 3147TIP3   OH230855   6.647   3.757   3.535  0.2377  0.1340 -0.8427
 3147TIP3    H130856   6.557   3.732   3.556 -0.0794  1.9852  0.0596
 3147TIP3    H230857   6.700   3.693   3.582 -0.5814  0.2629  0.2962
 3148TIP3   OH230858   1.625   2.471   1.505  0.0173 -0.6595 -0.4610
 3148TIP3    H130859   1.561   2.521   1.454 -0.2051 -1.6381 -1.1629
 3148TIP3    H230860   1.575   2.439   1.581  0.1940  0.2903  0.0560
 3149TIP3   OH230861   3.325   6.773   1.659  0.6518 -0.4144  0.0019
 3149TIP3    H130862   3.317   6.834   1.586  0.5712 -0.8916 -0.3928
 3149TIP3    H230863   3.310   6.687   1.620  1.0817 -0.7167  0.4919
 3150TIP3   OH230864   6.425   4.080  16.232 -0.0696  0.1566  0.6564
 3150TIP3    H130865   6.431   3.991  16.267 -1.2511 -0.3168 -0.2847
 3150TIP3    H230866   6.509   4.121  16.254 -0.1569 -0.6580  2.5281
 3151TIP3   OH230867   2.738   0.552   2.635  0.6832  0.3954 -0.0380
 3151TIP3    H130868   2.751   0.486   2.703  1.8724  1.0206  0.3529
 3151TIP3    H230869   2.729   0.502   2.554 -2.0641 -0.4462  0.7200
 3152TIP3   OH230870   4.428   5.243   3.285  0.2129  0.3822  0.6741
 3152TIP3    H130871   4.381   5.285   3.214  0.0990 -1.0748 -0.1425
 3152TIP3    H230872   4.432   5.308   3.355 -2.3123  0.7977  0.4525
 3153TIP3   OH230873   6.442   2.506   2.474 -0.1040  0.7519 -0.3149
 3153TIP3    H130874   6.368   2.485   2.418 -0.5245 -0.6481  0.7447
 3153TIP3    H230875   6.417   2.588   2.517 -0.4709  0.9702 -0.9350
 3154TIP3   OH230876   2.963   5.552   3.416 -0.0515 -0.4454 -0.2195
 3154TIP3    H130877   3.051   5.520   3.396  0.3587  0.0852  0.7075
 3154TIP3    H230878   2.931   5.493   3.485 -0.7098 -1.0766 -1.0455
 3155TIP3   OH230879   0.461   3.824   2.775  0.3286  0.8328 -0.0328
 3155TIP3    H130880   0.490   3.743   2.816  1.6990  1.3200 -0.0076
 3155TIP3    H230881   0.501   3.822   2.687  0.6670  1.6328  0.0982
 3156TIP3   OH230882   2.257   6.402   6.587  0.0573 -0.1985  0.2202
 3156TIP3    H130883   2.351   6.401   6.567 -0.0157  0.9620 -0.1705
 3156TIP3    H230884   2.237   6.493   6.606 -0.9945 -0.4482  0.3387
 3157TIP3   OH230885   4.777   4.381   3.082 -0.1318  0.2848 -0.0604
 3157TIP3    H130886   4.763   4.296   3.040 -1.5371  0.9678 -1.0247
 3157TIP3    H230887   4.724   4.377   3.162  0.9105 -0.2443  0.6229
 3158TIP3   OH230888   3.384   1.798   2.455 -0.2941 -0.4179 -0.0594
 3158TIP3    H130889   3.306   1.837   2.494  0.4412  1.5692 -0.4939
 3158TIP3    H230890   3.400   1.851   2.377  3.4808  1.4918  1.8812
 3159TIP3   OH230891   1.362   0.254   4.528  0.1737 -0.2567 -0.3404
 3159TIP3    H130892   1.340   0.284   4.616  0.4859 -0.7519 -0.0946
 3159TIP3    H230893   1.373   0.335   4.478  0.8662  0.0487  0.2869
 3160TIP3   OH230894   3.958   0.926   1.566 -0.2708  0.0224 -0.8716
 3160TIP3    H130895   4.039   0.910   1.517 -0.4690  0.3484 -1.3171
 3160TIP3    H230896   3.929   1.012   1.536 -0.5011  0.1407 -0.3144
 3161TIP3   OH230897   3.675   3.366   5.964 -0.1637  1.0524  0.0265
 3161TIP3    H130898   3.730   3.334   6.035  0.5554  2.6114  0.1911
 3161TIP3    H230899   3.587   3.336   5.987  0.2286  0.6555  1.0380
 3162TIP3   OH230900   4.381   5.753  13.736  0.0422  0.2288  0.4993
 3162TIP3    H130901   4.457   5.722  13.687 -0.3825  0.4266 -0.3024
 3162TIP3    H230902   4.313   5.687  13.718  0.2034 -0.2582  1.6878
 3163TIP3   OH230903   0.685   1.389   2.644 -0.2348 -0.0964 -0.2944
 3163TIP3    H130904   0.731   1.305   2.645 -1.1332 -0.5817 -0.1296
 3163TIP3    H230905   0.756   1.454   2.647  0.4634 -0.8387 -0.5017
 3164TIP3   OH230906   5.147   4.509   5.572  0.0564 -0.1165 -0.5133
 3164TIP3    H130907   5.117   4.521   5.482 -3.2502  0.2360  0.5586
 3164TIP3    H230908   5.137   4.415   5.588  1.2992 -0.2877 -0.7189
 3165TIP3   OH230909   2.620   1.464   3.568 -0.1278  0.0678  0.1765
 3165TIP3    H130910   2.545   1.518   3.544 -0.6055 -0.1849  1.1156
 3165TIP3    H230911   2.682   1.477   3.496 -0.8479  0.6904 -0.3394
 3166TIP3   OH230912   4.396   4.850  16.542  0.8224 -0.4916  0.0223
 3166TIP3    H130913   4.407   4.775  16.484 -0.7112 -0.8413  0.1523
 3166TIP3    H230914   4.411   4.815  16.630 -0.3499 -0.7706  0.1234
 3167TIP3   OH230915   5.179   6.600   2.701 -0.5591  0.9153  0.6023
 3167TIP3    H130916   5.133   6.660   2.641  0.9714  1.2887 -0.2235
 3167TIP3    H230917   5.260   6.646   2.723  0.7569 -0.9625 -0.2488
 3168TIP3   OH230918   1.594   2.841   2.018 -0.3803  0.0044  0.1862
 3168TIP3    H130919   1.560   2.821   2.105  0.2406 -0.9892  0.2142
 3168TIP3    H230920   1.687   2.817   2.023 -0.1427  0.7495 -0.4934
 3169TIP3   OH230921   4.113   3.154   1.085 -0.4747  0.5423  0.6521
 3169TIP3    H130922   4.155   3.069   1.089 -0.6758  0.4327  0.4410
 3169TIP3    H230923   4.184   3.216   1.068 -0.3368  0.4112  0.7544
 3170TIP3   OH230924   0.502   3.608   1.981 -0.6220 -0.1869  0.1319
 3170TIP3    H130925   0.575   3.549   2.001  0.3473  1.0040  0.1835
 3170TIP3    H230926   0.464   3.573   1.900 -1.5356 -2.2213  1.3905
 3171TIP3   OH230927   4.086   3.020   6.353 -0.0058 -0.5180 -0.6322
 3171TIP3    H130928   4.149   3.092   6.360 -0.4012 -0.3438  1.4012
 3171TIP3    H230929   4.117   2.968   6.278  0.3851  1.6514 -2.0019
 3172TIP3   OH230930   4.640   1.320  13.337 -0.2861  0.0872  0.0857
 3172TIP3    H130931   4.592   1.253  13.384  0.8581 -0.1489  0.9405
 3172TIP3    H230932   4.702   1.355  13.401 -1.3943  2.4994 -0.1076
 3173TIP3   OH230933   1.675   3.191  14.221  0.2727 -0.0386  0.2194
 3173TIP3    H130934   1.767   3.198  14.196 -0.5241  0.8774 -2.6629
 3173TIP3    H230935   1.634   3.146  14.147 -2.0063  1.6367  0.4337
 3174TIP3   OH230936   1.453   4.524  14.601 -0.1018 -0.0849 -0.3088
 3174TIP3    H130937   1.517   4.556  14.664  0.1638 -1.2305  0.0238
 3174TIP3    H230938   1.403   4.601  14.576 -0.6909  0.2628  1.8591
 3175TIP3   OH230939   4.350   6.546  16.580 -0.0243 -0.5865 -0.4372
 3175TIP3    H130940   4.437   6.570  16.548 -0.0563  2.2083  1.4560
 3175TIP3    H230941   4.301   6.628  16.584 -1.7486 -1.6554  1.5004
 3176TIP3   OH230942   5.032   2.124   2.741 -0.0124 -0.2073 -0.1189
 3176TIP3    H130943   4.953   2.072   2.755  1.3260 -1.6109  2.5074
 3176TIP3    H230944   5.015   2.206   2.788  0.1896 -0.5969  0.6296
 3177TIP3   OH230945   4.058   5.955  16.445  0.0597  0.1656  0.1962
 3177TIP3    H130946   3.979   6.001  16.471 -0.4542  1.1985 -2.9078
 3177TIP3    H230947   4.043   5.864  16.471 -1.5341  0.6216  0.9203
 3178TIP3   OH230948   5.658   1.533  11.387  0.3520  0.4621 -0.4857
 3178TIP3    H130949   5.738   1.491  11.355  1.2459  1.3282  0.5746
 3178TIP3    H230950   5.669   1.537  11.482 -1.7437 -0.9911 -0.1488
 3179TIP3   OH230951   6.179   2.827  12.242  0.6522 -0.2307 -0.0435
 3179TIP3    H130952   6.125   2.878  12.182  0.5639 -0.2204  0.0433
 3179TIP3    H230953   6.175   2.737  12.209  0.1161 -0.3317  0.2913
 3180TIP3   OH230954   4.442   4.640  14.493 -0.2427  0.6102  0.0830
 3180TIP3    H130955   4.398   4.555  14.496  2.8607 -1.0180  2.7923
 3180TIP3    H230956   4.464   4.652  14.401  2.4984 -3.3222  0.1163
 3181TIP3   OH230957   1.668   1.529  11.333 -0.2181  0.1646 -0.5698
 3181TIP3    H130958   1.712   1.492  11.257  0.0315  0.2987 -0.4934
 3181TIP3    H230959   1.647   1.453  11.388  0.9102  0.1803 -0.0890
 3182TIP3   OH230960   1.265   4.152  12.984 -0.2200 -0.0444 -0.5783
 3182TIP3    H130961   1.236   4.064  13.005 -1.7957  0.7606  0.8187
 3182TIP3    H230962   1.229   4.169  12.897 -0.9658 -0.3562 -0.3409
 3183TIP3   OH230963   5.207   6.769  13.186  0.1782 -0.5065  0.0502
 3183TIP3    H130964   5.191   6.675  13.176  1.0127 -0.5148 -1.3666
 3183TIP3    H230965   5.237   6.780  13.276 -1.1255 -1.4218  0.6029
 3184TIP3   OH230966   3.526   6.099   6.112  0.2225 -0.0346 -0.5941
 3184TIP3    H130967   3.595   6.055   6.063  0.3956  1.4686 -1.7436
 3184TIP3    H230968   3.553   6.190   6.115  0.5037 -0.1750  2.8476
 3185TIP3   OH230969   6.504   3.706  16.756 -0.0775 -0.6763 -0.1604
 3185TIP3    H130970   6.418   3.677  16.726 -0.1443  0.6115 -1.2981
 3185TIP3    H230971   6.560   3.699  16.678  0.1300  1.2532 -0.2281
 3186TIP3   OH230972   3.573   0.152   2.094 -0.2171  0.7885 -0.2798
 3186TIP3    H130973   3.608   0.215   2.032  0.5606  2.2490  1.6025
 3186TIP3    H230974   3.514   0.203   2.149 -1.4366 -0.6311 -0.2471
 3187TIP3   OH230975   5.437   6.203   1.428  0.4327  0.0299  0.0091
 3187TIP3    H130976   5.455   6.111   1.448  0.0928  0.1864  1.0690
 3187TIP3    H230977   5.523   6.244   1.424  0.6223 -0.4634 -1.1208
 3188TIP3   OH230978   5.441   2.685   4.292 -0.1044  0.0738 -0.5020
 3188TIP3    H130979   5.472   2.771   4.321  0.9011 -0.5322  0.2431
 3188TIP3    H230980   5.357   2.703   4.249 -0.3273  1.3132  0.4281
 3189TIP3   OH230981   2.221   3.248   0.006  0.3695 -0.3879 -0.2888
 3189TIP3    H130982   2.165   3.185   0.052  1.3385 -0.0831  1.3618
 3189TIP3    H230983   2.161   3.297  -0.049 -0.5882 -1.9027 -0.6408
 3190TIP3   OH230984   6.472   3.756  11.537  0.0861 -0.2658  0.6264
 3190TIP3    H130985   6.560   3.784  11.511  0.3537 -1.4922  0.1957
 3190TIP3    H230986   6.450   3.814  11.610  2.0279 -1.1605  1.9714
 3191TIP3   OH230987   3.909   2.147   3.041  0.3380  0.2460 -0.6442
 3191TIP3    H130988   3.945   2.082   3.101 -0.8827 -0.1414 -0.3017
 3191TIP3    H230989   3.982   2.206   3.022  0.9569 -0.1127  0.5578
 3192TIP3   OH230990   2.815   0.984  11.350 -0.7592  0.2296 -0.6607
 3192TIP3    H130991   2.774   0.955  11.269 -1.0609  0.8170 -0.7205
 3192TIP3    H230992   2.771   1.066  11.371 -0.0912  0.5103 -0.3550
 3193TIP3   OH230993   3.468   5.050   4.339  0.1753  0.3662  0.0713
 3193TIP3    H130994   3.467   5.068   4.245  2.4764 -1.1579 -0.2896
 3193TIP3    H230995   3.476   5.136   4.381  2.3147  0.8393 -1.2565
 3194TIP3   OH230996   0.693   1.716   3.824 -0.3882 -0.5811 -0.2131
 3194TIP3    H130997   0.635   1.641   3.811  0.3847 -1.0864 -0.7536
 3194TIP3    H230998   0.715   1.745   3.736 -2.2447  1.5192 -0.0376
 3195TIP3   OH230999   5.022   1.136  13.202 -0.2154  0.1343  0.0407
 3195TIP3    H131000   4.986   1.062  13.251  3.6184 -3.0343 -1.6511
 3195TIP3    H231001   4.981   1.130  13.116  0.2623 -0.1665 -0.1673
 3196TIP3   OH231002   3.450   6.544   3.472  0.3068  1.0560  0.3877
 3196TIP3    H131003   3.542   6.543   3.500 -0.1432 -0.6066  1.9152
 3196TIP3    H231004   3.444   6.475   3.407 -0.2420 -0.1080  1.6491
 3197TIP3   OH231005   5.079   1.709  12.905 -0.3104  0.3423  0.0545
 3197TIP3    H131006   5.074   1.614  12.914  0.6908  0.4692  2.3443
 3197TIP3    H231007   4.988   1.739  12.910 -0.8017 -0.5770 -2.4060
 3198TIP3   OH231008   1.305   5.343  11.477  0.4489  0.4666 -0.6340
 3198TIP3    H131009   1.242   5.350  11.405 -0.6735 -1.3964  0.1479
 3198TIP3    H231010   1.270   5.400  11.545  0.9510  1.3981 -1.1455
 3199TIP3   OH231011   4.108   3.240   2.147  0.4621  0.2658  0.1837
 3199TIP3    H131012   4.159   3.170   2.107  0.9684  0.7480 -0.0158
 3199TIP3    H231013   4.171   3.311   2.160 -0.1673  0.8692 -0.0849
 3200TIP3   OH231014   0.156   0.877  16.627  0.8347  0.0226 -0.5338
 3200TIP3    H131015   0.197   0.920  16.702  2.3648 -2.9425  0.4351
 3200TIP3    H231016   0.207   0.797  16.615 -1.6354 -1.3318 -2.4916
 3201TIP3   OH231017   4.080   0.311  12.109  0.2024 -0.4609 -0.5492
 3201TIP3    H131018   4.037   0.310  12.194  0.9059 -0.9082 -0.1900
 3201TIP3    H231019   4.170   0.282  12.127  0.9307  1.3817 -1.1349
 3202TIP3   OH231020   2.758   5.612  16.640  0.9488  0.8427  0.1558
 3202TIP3    H131021   2.826   5.592  16.576 -0.8848 -2.4855 -0.8687
 3202TIP3    H231022   2.773   5.551  16.712 -2.0790 -1.3247 -0.9733
 3203TIP3   OH231023   0.506   3.572   3.469  0.2911  0.2594 -0.3611
 3203TIP3    H131024   0.487   3.626   3.392  0.7705  1.4993  0.3721
 3203TIP3    H231025   0.524   3.635   3.539  0.7412 -0.8512  0.5465
 3204TIP3   OH231026   0.264   5.282  11.887  0.3760 -0.0141  0.1624
 3204TIP3    H131027   0.320   5.205  11.880  2.1468  1.2084  0.6688
 3204TIP3    H231028   0.218   5.272  11.971  2.2242  0.5379  1.2573
 3205TIP3   OH231029   5.482   6.702  15.649 -0.3547 -0.2820 -0.2361
 3205TIP3    H131030   5.443   6.765  15.589 -0.0229  0.6408  0.5009
 3205TIP3    H231031   5.415   6.688  15.717 -0.4998 -0.8651 -0.4962
 3206TIP3   OH231032   2.467   5.332  11.743 -0.1033  0.4217  0.0611
 3206TIP3    H131033   2.521   5.252  11.744 -1.5673 -0.5943  0.2881
 3206TIP3    H231034   2.470   5.361  11.652  2.9726  1.9075  0.5779
 3207TIP3   OH231035   4.252   3.617  14.280  0.1327 -0.4509  0.4407
 3207TIP3    H131036   4.328   3.668  14.249  0.0525  0.7310  2.1037
 3207TIP3    H231037   4.225   3.566  14.204  2.2609 -0.4688 -0.3475
 3208TIP3   OH231038   6.331   5.326  11.993  0.3470 -0.5715  0.6882
 3208TIP3    H131039   6.305   5.399  11.937  2.4763  0.5035  1.0855
 3208TIP3    H231040   6.347   5.254  11.932 -0.9334 -0.4853  0.2294
 3209TIP3   OH231041   1.357   2.732   5.211  0.4048 -0.1345  0.0086
 3209TIP3    H131042   1.290   2.717   5.144 -0.9845  0.4171  1.2437
 3209TIP3    H231043   1.440   2.734   5.163 -0.3742 -1.7090 -1.4370
 3210TIP3   OH231044   5.792   5.251  17.235 -0.2792  0.0468  0.4825
 3210TIP3    H131045   5.712   5.211  17.200 -0.7112 -1.0478  2.5808
 3210TIP3    H231046   5.766   5.283  17.321  1.1854  1.0085  0.5741
 3211TIP3   OH231047   4.650   2.488   0.315 -0.3284  0.2422 -0.1946
 3211TIP3    H131048   4.637   2.447   0.229 -1.2938 -0.2210  0.1640
 3211TIP3    H231049   4.573   2.462   0.366 -0.3396  1.4649  0.4425
 3212TIP3   OH231050   3.200   5.622   0.400  0.0449 -0.3081 -0.2600
 3212TIP3    H131051   3.117   5.577   0.385  0.6854 -1.1847 -1.1981
 3212TIP3    H231052   3.250   5.609   0.320  1.0687  0.2721  0.2728
 3213TIP3   OH231053   0.070   3.325   5.526  0.3450  0.0449  0.4269
 3213TIP3    H131054  -0.000   3.370   5.573  0.2626 -0.1950  0.5344
 3213TIP3    H231055   0.025   3.275   5.458  0.4791  0.5534 -0.0468
 3214TIP3   OH231056   3.983   0.017   0.442 -0.4793  0.7725  0.6740
 3214TIP3    H131057   4.028  -0.039   0.505  0.6813  2.4920  1.3909
 3214TIP3    H231058   3.919   0.065   0.494 -2.4383 -0.8669 -0.1651
 3215TIP3   OH231059   1.989   3.502  13.767 -0.0514  0.2009 -0.0458
 3215TIP3    H131060   2.037   3.525  13.687  0.7720 -0.2446  0.3093
 3215TIP3    H231061   1.951   3.585  13.797 -0.0009  0.4490 -0.6574
 3216TIP3   OH231062   2.338   0.385  17.065  0.1005  0.6270  0.1625
 3216TIP3    H131063   2.246   0.360  17.074 -0.4221  2.0318 -1.1036
 3216TIP3    H231064   2.358   0.433  17.146 -0.2027  0.1553  0.5224
 3217TIP3   OH231065   0.689   3.877   3.329  0.4429 -0.3374  0.3408
 3217TIP3    H131066   0.763   3.850   3.275  0.1511 -0.8368  0.1881
 3217TIP3    H231067   0.720   3.956   3.375  0.7636 -0.0404 -0.3837
 3218TIP3   OH231068   0.305   5.920   4.917 -0.4315  0.4082  0.1505
 3218TIP3    H131069   0.363   5.873   4.976  0.7961 -0.8117 -1.9795
 3218TIP3    H231070   0.218   5.910   4.955  0.6154  1.7403  3.0529
 3219TIP3   OH231071   6.737   5.436   0.274  0.5895  0.3129 -0.2183
 3219TIP3    H131072   6.664   5.408   0.219  0.8264  0.9516 -0.8571
 3219TIP3    H231073   6.711   5.522   0.306  1.1648  0.6399 -0.6302
 3220TIP3   OH231074   1.338   2.269   6.391 -0.2147  0.3725 -0.3664
 3220TIP3    H131075   1.328   2.205   6.462 -2.7429  0.1549 -0.8782
 3220TIP3    H231076   1.277   2.339   6.414  0.5464  1.3146 -1.2185
 3221TIP3   OH231077   4.860   0.301  13.490 -0.1327  0.5512  0.8451
 3221TIP3    H131078   4.831   0.324  13.402 -2.4447 -0.0798  1.3888
 3221TIP3    H231079   4.810   0.222  13.512  1.3452 -0.0212  2.2400
 3222TIP3   OH231080   6.673   3.839   1.067  0.0548  0.6676  0.5394
 3222TIP3    H131081   6.735   3.873   1.130 -0.1243 -2.0841  2.3180
 3222TIP3    H231082   6.726   3.792   1.003  0.1674  2.7006 -0.8893
 3223TIP3   OH231083   3.174   4.884   6.160  0.4372  0.2701 -0.1035
 3223TIP3    H131084   3.179   4.914   6.251 -2.4518 -0.0366  0.2119
 3223TIP3    H231085   3.151   4.962   6.110  1.4278  0.3139 -0.5054
 3224TIP3   OH231086   2.116   5.187  15.346  0.3487 -0.0109  0.2592
 3224TIP3    H131087   2.195   5.194  15.400 -0.3364  1.2435  1.1484
 3224TIP3    H231088   2.089   5.096  15.355  1.5378 -0.3800  0.1780
 3225TIP3   OH231089   0.974   5.925  14.488 -0.5285 -0.0775 -0.7438
 3225TIP3    H131090   0.995   5.835  14.464 -0.9097 -0.0534 -1.1621
 3225TIP3    H231091   1.030   5.943  14.564 -0.7701 -0.8041 -0.3929
 3226TIP3   OH231092   3.734   5.337   4.231 -0.3993  0.5991  0.2574
 3226TIP3    H131093   3.792   5.377   4.166  1.2070  0.0071  1.2977
 3226TIP3    H231094   3.646   5.357   4.200  0.3534  1.2908 -1.4965
 3227TIP3   OH231095   4.215   1.025   1.208 -0.4123 -0.0377  0.2525
 3227TIP3    H131096   4.175   1.102   1.168  0.3000 -0.4622 -1.3389
 3227TIP3    H231097   4.234   1.052   1.298 -2.2166  0.8855  0.3785
 3228TIP3   OH231098   0.766   5.254   1.845 -0.3451  0.2070  0.2494
 3228TIP3    H131099   0.816   5.281   1.768  0.1941 -0.6919  0.2831
 3228TIP3    H231100   0.785   5.161   1.856 -1.1230  0.1147  0.9434
 3229TIP3   OH231101   6.490   6.452  16.306  0.0220 -0.1168  0.5345
 3229TIP3    H131102   6.554   6.382  16.293  0.3755  0.5193 -1.1467
 3229TIP3    H231103   6.426   6.440  16.235 -1.1303 -0.0721  1.5377
 3230TIP3   OH231104   5.714   2.608   4.112 -0.2595 -0.1176  0.3572
 3230TIP3    H131105   5.742   2.586   4.201 -1.5398 -1.7090  0.3808
 3230TIP3    H231106   5.620   2.589   4.111  0.1030 -1.9999 -1.9082
 3231TIP3   OH231107   4.488   3.015   6.093 -0.6319 -0.1583 -0.1967
 3231TIP3    H131108   4.521   3.059   6.171  1.3990  1.7748 -2.0778
 3231TIP3    H231109   4.401   3.052   6.079 -1.6630 -1.6522  1.9809
 3232TIP3   OH231110   0.982   3.109  15.915  0.7135  0.4160 -0.4113
 3232TIP3    H131111   0.967   3.151  16.000 -1.3880  0.0578 -0.5679
 3232TIP3    H231112   1.032   3.173  15.865  0.7098  1.2298  0.6000
 3233TIP3   OH231113   4.374   4.551  17.109  0.0296  0.2615  0.4225
 3233TIP3    H131114   4.447   4.612  17.115 -3.1657  4.7561 -3.0748
 3233TIP3    H231115   4.395   4.495  17.035 -0.4660  2.2053 -1.2211
 3234TIP3   OH231116   1.667   2.410  16.751  0.5548  0.1084  0.2037
 3234TIP3    H131117   1.660   2.498  16.713 -1.9600 -0.8639 -1.7901
 3234TIP3    H231118   1.719   2.361  16.688  0.5949 -0.2402  0.5082
 3235TIP3   OH231119   0.642   0.326   0.268  0.1252 -0.3648  0.0433
 3235TIP3    H131120   0.599   0.360   0.347  1.9058 -0.8860  1.2804
 3235TIP3    H231121   0.607   0.237   0.259 -1.5801  0.3805 -0.9322
 3236TIP3   OH231122   1.547   6.698  14.917 -0.5113  0.5224  0.3323
 3236TIP3    H131123   1.564   6.631  14.983  1.5772  0.6172 -0.0692
 3236TIP3    H231124   1.481   6.755  14.957 -0.1238 -0.0764  1.8778
 3237TIP3   OH231125   1.953   2.654  16.235  0.3833  0.1987  0.0343
 3237TIP3    H131126   1.859   2.657  16.251  0.4096 -1.4110  0.5857
 3237TIP3    H231127   1.991   2.635  16.321  1.1416 -0.1313 -0.3748
 3238TIP3   OH231128   4.410   1.496  11.707 -0.3424 -0.3265 -0.1177
 3238TIP3    H131129   4.351   1.444  11.762 -0.9115  1.8685  1.4342
 3238TIP3    H231130   4.470   1.537  11.769 -1.2301  2.5017 -1.0244
 3239TIP3   OH231131   3.308   4.793   4.862 -0.3098  0.5650  0.2704
 3239TIP3    H131132   3.232   4.849   4.848 -0.9507 -0.2769  0.3063
 3239TIP3    H231133   3.383   4.851   4.855 -1.0404  1.7463  2.0336
 3240TIP3   OH231134   0.903   4.439  12.060 -0.0177 -1.2256  0.4729
 3240TIP3    H131135   0.831   4.465  12.117  1.5969  0.0479  1.9868
 3240TIP3    H231136   0.938   4.521  12.026  0.9455 -1.8171  0.0146
 3241TIP3   OH231137   4.279   4.071   3.350 -0.3266  0.2430 -0.0915
 3241TIP3    H131138   4.234   4.009   3.293 -2.8459  3.0064 -1.2426
 3241TIP3    H231139   4.314   4.137   3.290  1.5505  0.4503  1.1837
 3242TIP3   OH231140   6.092   4.159   1.534  0.2741 -0.0952  0.3441
 3242TIP3    H131141   6.044   4.239   1.512  0.4824 -0.3978 -1.2660
 3242TIP3    H231142   6.184   4.182   1.519  0.3793 -0.4903  0.3847
 3243TIP3   OH231143   4.168   4.718   3.776 -0.6191 -0.3910  0.0723
 3243TIP3    H131144   4.123   4.760   3.703 -0.9151 -1.4109 -0.3531
 3243TIP3    H231145   4.100   4.703   3.842 -0.8003 -1.3870 -0.3247
 3244TIP3   OH231146   2.725   2.966  15.441  0.3158  0.3318  0.1137
 3244TIP3    H131147   2.754   3.057  15.451 -0.5785  0.6495 -0.1065
 3244TIP3    H231148   2.673   2.949  15.520 -1.9790  0.9895 -1.1820
 3245TIP3   OH231149   0.058   4.732  16.490 -0.2837  0.3381 -0.8576
 3245TIP3    H131150  -0.033   4.706  16.476 -0.3513  0.5951 -0.8935
 3245TIP3    H231151   0.091   4.668  16.553 -0.9701  1.2132  0.4265
 3246TIP3   OH231152   3.349   3.495   0.411 -0.7320 -0.5872  0.4829
 3246TIP3    H131153   3.391   3.581   0.413 -0.0186 -0.8059 -2.6313
 3246TIP3    H231154   3.384   3.449   0.487 -0.3583  1.5213  1.6062
 3247TIP3   OH231155   2.991   3.778  13.592 -0.6881  0.6704  0.0670
 3247TIP3    H131156   3.042   3.843  13.542 -0.8690  0.5855 -0.2276
 3247TIP3    H231157   2.900   3.802  13.575 -0.7805 -0.5964 -1.2788
 3248TIP3   OH231158   6.385   5.012  10.904  0.1309 -0.0995  0.0776
 3248TIP3    H131159   6.380   4.916  10.907  0.2060 -0.1380 -0.8051
 3248TIP3    H231160   6.457   5.030  10.843 -0.1504  0.5211 -0.0732
 3249TIP3   OH231161   1.474   0.887  12.064 -0.4630  0.3586 -0.0079
 3249TIP3    H131162   1.490   0.960  12.124 -2.2831 -0.0514  1.0157
 3249TIP3    H231163   1.393   0.910  12.019 -1.1998 -1.1417  0.5172
 3250TIP3   OH231164   3.273   4.508  17.097  0.1195 -0.8637 -0.2609
 3250TIP3    H131165   3.285   4.584  17.153 -0.3198 -1.0391  0.0791
 3250TIP3    H231166   3.208   4.536  17.032 -0.0218 -0.9348 -0.1509
 3251TIP3   OH231167   4.857   1.297  15.651  0.0676 -0.0272  0.0923
 3251TIP3    H131168   4.850   1.362  15.581  0.2032  0.4153  0.4918
 3251TIP3    H231169   4.802   1.331  15.721 -1.4258 -1.2960 -0.4165
 3252TIP3   OH231170   6.604   3.399  11.404  0.0058  0.0095  0.4215
 3252TIP3    H131171   6.645   3.439  11.480 -2.0325 -1.2046  2.2231
 3252TIP3    H231172   6.593   3.307  11.428 -1.5839 -0.1864 -0.9134
 3253TIP3   OH231173   2.230   5.295  13.472 -0.3356  0.2928 -0.1913
 3253TIP3    H131174   2.235   5.307  13.377  0.6950 -0.7461 -0.2886
 3253TIP3    H231175   2.266   5.207  13.486 -1.0965  0.1805  1.0989
 3254TIP3   OH231176   4.582   4.675  13.231  0.4012 -0.2907  0.0351
 3254TIP3    H131177   4.658   4.618  13.220  2.2239  1.5616  2.6114
 3254TIP3    H231178   4.515   4.619  13.268  0.9160 -1.6188 -0.9835
 3255TIP3   OH231179   0.135   2.457  10.531  0.0045  0.1116  0.3085
 3255TIP3    H131180   0.225   2.425  10.524  0.0954  0.6207 -1.2674
 3255TIP3    H231181   0.138   2.544  10.490 -1.4034 -0.3016 -0.7237
 3256TIP3   OH231182   3.887   6.085   1.041 -0.2965  0.7958  0.4367
 3256TIP3    H131183   3.943   6.072   1.118  1.5011  1.3763 -0.7417
 3256TIP3    H231184   3.868   6.179   1.041  0.7972  1.0190 -0.5626
 3257TIP3   OH231185   0.825   1.962  12.202  0.7146  0.4070 -0.5990
 3257TIP3    H131186   0.890   2.030  12.221  2.3016 -1.0991 -0.4608
 3257TIP3    H231187   0.799   1.930  12.289  2.6000 -1.5452 -0.7246
 3258TIP3   OH231188   3.114   3.045   4.179 -0.0642  0.1809 -0.0698
 3258TIP3    H131189   3.046   3.043   4.246 -0.4119 -0.6880 -0.4415
 3258TIP3    H231190   3.104   3.131   4.138 -1.4552 -0.2193 -0.6270
 3259TIP3   OH231191   1.211   6.784   0.990  0.6773 -0.0017 -0.1905
 3259TIP3    H131192   1.185   6.794   1.082  1.1105 -0.2868 -0.0369
 3259TIP3    H231193   1.273   6.856   0.975 -0.4801  0.9196 -0.6687
 3260TIP3   OH231194   3.114   4.732   2.145  0.0905  0.1935  0.2003
 3260TIP3    H131195   3.049   4.739   2.214  0.1894 -0.6456  0.3862
 3260TIP3    H231196   3.088   4.654   2.095  1.6268 -0.8609  1.0120
 3261TIP3   OH231197   1.080   4.653   4.705 -0.1696  0.1631 -0.6245
 3261TIP3    H131198   1.028   4.573   4.712 -1.3561  0.9710  0.0539
 3261TIP3    H231199   1.162   4.626   4.664 -0.3186 -1.4983  0.1661
 3262TIP3   OH231200   4.900   1.175   3.807  0.5697  0.8921 -0.3603
 3262TIP3    H131201   4.855   1.259   3.792 -0.7509 -0.0414 -1.7841
 3262TIP3    H231202   4.946   1.158   3.725 -0.3978 -0.5068 -0.6208
 3263TIP3   OH231203   5.982   5.504   1.908 -0.2885  0.3553 -0.1126
 3263TIP3    H131204   5.990   5.409   1.907 -1.0231  0.2661 -4.0101
 3263TIP3    H231205   5.890   5.521   1.931 -0.6991  0.0501 -1.5116
 3264TIP3   OH231206   6.172   0.786   0.725  0.1104 -0.4918  0.0210
 3264TIP3    H131207   6.207   0.705   0.762  0.6680 -1.4610 -2.5211
 3264TIP3    H231208   6.246   0.847   0.727  0.4400 -0.8668 -0.3874
 3265TIP3   OH231209   2.848   0.120  16.430 -0.0791 -0.1537 -0.1339
 3265TIP3    H131210   2.809   0.073  16.503 -0.8560 -0.8145 -0.9685
 3265TIP3    H231211   2.807   0.083  16.352 -2.5544  3.5607 -0.7283
 3266TIP3   OH231212   4.802   5.736  12.800  0.1334  0.2418 -0.1392
 3266TIP3    H131213   4.750   5.660  12.775 -0.8623  0.5067  1.1221
 3266TIP3    H231214   4.828   5.775  12.716 -3.5580  1.3851 -0.8051
 3267TIP3   OH231215   1.267   6.377   4.472 -0.1582 -0.3863 -0.3845
 3267TIP3    H131216   1.248   6.302   4.416  0.8914 -0.6921 -0.3531
 3267TIP3    H231217   1.357   6.363   4.500 -0.7500 -0.3446  1.5660
 3268TIP3   OH231218   3.536   0.516   3.334 -0.5679  0.0120 -0.1047
 3268TIP3    H131219   3.565   0.434   3.375 -1.3368 -0.4838 -0.5313
 3268TIP3    H231220   3.497   0.566   3.406  0.3028  0.1988  0.2437
 3269TIP3   OH231221   5.225   5.495   2.157 -0.3778  0.3872 -0.5227
 3269TIP3    H131222   5.299   5.524   2.210  0.8899 -0.1013 -1.9810
 3269TIP3    H231223   5.163   5.458   2.220  0.5739  0.8974  0.7228
 3270TIP3   OH231224   4.912   5.017  14.786  0.1969  0.1646  0.2191
 3270TIP3    H131225   4.925   5.104  14.824  0.3246  0.1471  0.2160
 3270TIP3    H231226   4.821   4.996  14.806  0.3708 -0.0054  0.8484
 3271TIP3   OH231227   6.557   4.275  16.750  0.7731 -0.1299 -0.1971
 3271TIP3    H131228   6.479   4.321  16.717  1.5429  0.6064 -1.0152
 3271TIP3    H231229   6.603   4.341  16.801 -0.7202 -1.4317  2.9381
 3272TIP3   OH231230   0.827   0.843   4.291  0.3771  0.0597  0.6434
 3272TIP3    H131231   0.865   0.926   4.261  1.1037  0.0267  1.4808
 3272TIP3    H231232   0.839   0.844   4.386 -0.9022 -0.3584  0.8168
 3273TIP3   OH231233   4.278   6.234  16.270  0.2722  0.6031 -0.0034
 3273TIP3    H131234   4.199   6.179  16.272  0.6554 -0.0722 -2.6652
 3273TIP3    H231235   4.290   6.257  16.178  3.8224 -0.1784  0.1975
 3274TIP3   OH231236   2.217   3.664  12.812 -0.2228 -0.0045  0.3716
 3274TIP3    H131237   2.240   3.695  12.899  1.3544 -1.6314  0.5508
 3274TIP3    H231238   2.267   3.720  12.752 -2.3193  1.9961  0.4097
 3275TIP3   OH231239   5.347   6.146  12.839 -0.5399  0.2245  0.3667
 3275TIP3    H131240   5.396   6.184  12.766  2.0702 -4.0366 -0.3278
 3275TIP3    H231241   5.259   6.131  12.804 -0.6147  2.3683 -0.3990
 3276TIP3   OH231242   2.495   4.951   3.567 -0.0574  0.1863  0.0701
 3276TIP3    H131243   2.411   4.997   3.571  0.0290  0.1928  2.9971
 3276TIP3    H231244   2.533   4.978   3.483 -1.9047  2.0739 -0.2048
 3277TIP3   OH231245   1.357   6.466   5.749  0.4727  0.3493 -0.6389
 3277TIP3    H131246   1.354   6.557   5.778  2.3390  0.8760 -2.0150
 3277TIP3    H231247   1.285   6.458   5.687  0.0538  0.7857 -0.2135
 3278TIP3   OH231248   3.301   6.205  14.018 -0.1235 -0.2691 -0.2830
 3278TIP3    H131249   3.367   6.274  14.027  2.3052 -2.0329 -3.0857
 3278TIP3    H231250   3.265   6.218  13.931 -0.7698 -1.5522 -0.2193
 3279TIP3   OH231251   4.839   0.379   5.610 -0.3716 -0.5007 -0.1255
 3279TIP3    H131252   4.931   0.395   5.590 -0.5132  0.1154 -0.2825
 3279TIP3    H231253   4.838   0.357   5.703 -0.3392  1.8270  0.4589
 3280TIP3   OH231254   1.406   6.712  11.745 -0.6895  0.0665  0.2966
 3280TIP3    H131255   1.448   6.626  11.748 -1.0952 -0.1423  0.1885
 3280TIP3    H231256   1.463   6.765  11.690 -1.0405 -0.4877 -0.6217
 3281TIP3   OH231257   1.626   3.844  11.948 -0.3997 -1.0205 -0.4120
 3281TIP3    H131258   1.648   3.789  11.873  0.5648  1.1527 -1.7355
 3281TIP3    H231259   1.534   3.868  11.935 -0.2451 -0.6804 -0.8626
 3282TIP3   OH231260   4.239   3.614  16.023  0.1580  0.2743 -0.1640
 3282TIP3    H131261   4.157   3.658  16.045 -0.3068  0.0893 -1.4662
 3282TIP3    H231262   4.216   3.522  16.013  0.3996  0.3092 -1.1188
 3283TIP3   OH231263   6.255   2.059   1.004 -0.6078 -0.2270 -0.0618
 3283TIP3    H131264   6.315   1.990   1.032 -0.4522  0.2496  0.7749
 3283TIP3    H231265   6.194   2.070   1.076 -0.0471  1.1777  0.2215
 3284TIP3   OH231266   6.184   1.542   5.118  0.4352  0.1423  0.0883
 3284TIP3    H131267   6.117   1.571   5.180  0.7120  0.5657  0.1943
 3284TIP3    H231268   6.140   1.543   5.033  0.5040  1.0999  0.0622
 3285TIP3   OH231269   2.914   3.183  14.547 -0.1847  0.0568 -0.1750
 3285TIP3    H131270   2.867   3.257  14.510 -0.1756  0.5371  0.7517
 3285TIP3    H231271   2.876   3.171  14.634 -1.0753 -1.8435 -0.7891
 3286TIP3   OH231272   2.955   3.402   1.784  0.4308 -0.3259  0.2237
 3286TIP3    H131273   3.001   3.406   1.867 -0.1061 -0.5554  0.5379
 3286TIP3    H231274   2.952   3.492   1.753  1.5331 -0.3783 -0.0479
 3287TIP3   OH231275   1.059   0.051   5.753  0.6268 -0.2739  0.1440
 3287TIP3    H131276   1.033   0.018   5.667 -0.9330 -2.6660  1.4442
 3287TIP3    H231277   0.989   0.111   5.777  1.5881  1.1864 -0.6773
 3288TIP3   OH231278   2.561   5.039  13.525 -0.1013 -0.8359 -0.8858
 3288TIP3    H131279   2.607   5.122  13.517 -0.9325 -0.3519 -0.7484
 3288TIP3    H231280   2.473   5.057  13.490 -0.5845 -1.3959  0.0147
 3289TIP3   OH231281   2.264   5.872  11.428 -0.0947 -0.4761 -0.5082
 3289TIP3    H131282   2.244   5.911  11.513  0.1127  0.1098 -0.7281
 3289TIP3    H231283   2.273   5.946  11.369  0.9218 -0.8197 -0.7961
 3290TIP3   OH231284   2.567   0.129  13.068  0.4448  0.1071 -0.6299
 3290TIP3    H131285   2.587   0.184  13.143 -0.5660 -1.4874  0.8283
 3290TIP3    H231286   2.562   0.190  12.994 -1.6210  2.1125  1.1127
 3291TIP3   OH231287   2.347   1.324  16.960  0.0447 -0.3230  0.6306
 3291TIP3    H131288   2.310   1.378  17.030 -0.7714 -0.6953  0.4930
 3291TIP3    H231289   2.437   1.306  16.989 -0.1482 -0.1154  1.3721
 3292TIP3   OH231290   0.472   3.176  14.607  0.1136  0.2394 -0.2001
 3292TIP3    H131291   0.553   3.225  14.602  0.1270  0.4984  1.9525
 3292TIP3    H231292   0.404   3.242  14.618 -0.1137 -0.1104  0.5148
 3293TIP3   OH231293   6.710   3.877  15.571 -0.7294  0.6779  0.2748
 3293TIP3    H131294   6.706   3.898  15.478 -0.9836  0.4850  0.2400
 3293TIP3    H231295   6.788   3.921  15.602 -0.7604  0.9210  0.0121
 3294TIP3   OH231296   3.678   5.081  10.925 -0.1247 -0.6919 -0.1739
 3294TIP3    H131297   3.608   5.145  10.914  0.0907 -0.1327  1.5851
 3294TIP3    H231298   3.728   5.112  11.000 -0.9112 -3.6775  1.7095
 3295TIP3   OH231299   2.055   1.852   1.189  0.5562 -1.0933  0.0809
 3295TIP3    H131300   2.111   1.913   1.237  1.0277 -1.2903 -0.2193
 3295TIP3    H231301   2.056   1.772   1.242  1.7213 -1.5808 -0.6584
 3296TIP3   OH231302   1.641   5.394  14.134 -0.0947  0.0833  0.1303
 3296TIP3    H131303   1.630   5.479  14.092  1.3199  0.5348  0.6369
 3296TIP3    H231304   1.680   5.339  14.067 -0.9356 -0.1465 -0.1741
 3297TIP3   OH231305   3.662   2.037   4.347  0.2257 -0.5904 -0.1881
 3297TIP3    H131306   3.730   1.971   4.336  0.8117 -0.1072  0.4485
 3297TIP3    H231307   3.710   2.115   4.377 -0.8940 -0.9219  2.5802
 3298TIP3   OH231308   1.653   4.255   0.582 -0.4088  0.1922  0.3441
 3298TIP3    H131309   1.661   4.195   0.508  0.5613  1.4287 -0.5775
 3298TIP3    H231310   1.633   4.199   0.656 -3.2615 -0.8932 -1.1806
 3299TIP3   OH231311   3.464   2.425   0.094  0.2276  0.4807 -0.5028
 3299TIP3    H131312   3.511   2.506   0.073 -1.3929  1.5670 -0.0375
 3299TIP3    H231313   3.400   2.415   0.023  2.1721 -1.8465 -1.9985
 3300TIP3   OH231314   4.413   0.861  15.028  0.2604 -0.3639 -0.2271
 3300TIP3    H131315   4.477   0.921  15.065  2.7701 -2.7259 -0.5353
 3300TIP3    H231316   4.420   0.782  15.082 -1.5613 -1.0963 -1.0032
 3301TIP3   OH231317   0.889   4.037  13.158 -0.1705  0.4406 -0.2454
 3301TIP3    H131318   0.906   4.035  13.064 -1.1455 -0.4177 -0.4107
 3301TIP3    H231319   0.889   3.945  13.184  1.8532  0.7398  0.9243
 3302TIP3   OH231320   6.546   3.203   5.586 -0.2642 -0.0014  0.1247
 3302TIP3    H131321   6.588   3.144   5.523 -2.4673 -0.1252 -1.2683
 3302TIP3    H231322   6.472   3.154   5.620 -0.5862  1.0078  0.8928
 3303TIP3   OH231323   4.985   6.318  16.571 -0.3738  0.4628 -0.1638
 3303TIP3    H131324   4.913   6.360  16.524  0.2896  2.2543  0.3820
 3303TIP3    H231325   5.064   6.351  16.529  0.1480 -1.7400 -0.9585
 3304TIP3   OH231326   4.385   3.473  17.012 -0.2989  0.0731 -0.1951
 3304TIP3    H131327   4.437   3.475  16.931 -0.3866 -0.9190 -0.2868
 3304TIP3    H231328   4.333   3.554  17.009  2.6516  2.0956  0.8657
 3305TIP3   OH231329   5.147   4.121   3.570 -0.0035 -0.5227 -0.3786
 3305TIP3    H131330   5.175   4.158   3.486  2.4895 -0.6058  0.3788
 3305TIP3    H231331   5.145   4.196   3.630 -1.7718 -0.4646 -0.4662
 3306TIP3   OH231332   3.561   4.965   4.929  0.6137  0.2529 -0.8775
 3306TIP3    H131333   3.595   4.895   4.986  2.0850  1.5938 -0.0779
 3306TIP3    H231334   3.605   4.952   4.846 -0.7559 -1.0740 -1.4262
 3307TIP3   OH231335   0.231   2.719   0.357 -0.7692 -0.3527  0.1830
 3307TIP3    H131336   0.173   2.735   0.432 -1.4961 -1.6635 -0.0659
 3307TIP3    H231337   0.285   2.797   0.350 -1.1332  0.0439  1.6898
 3308TIP3   OH231338   2.132   3.780   1.045  0.3075  0.2515 -0.3199
 3308TIP3    H131339   2.080   3.846   1.091 -0.6563 -1.7079  1.4488
 3308TIP3    H231340   2.118   3.800   0.952 -0.7217  1.9463  0.1688
 3309TIP3   OH231341   0.542   3.675   4.754 -0.4500  0.2603 -0.1706
 3309TIP3    H131342   0.599   3.744   4.723 -1.1709  0.7977 -0.3099
 3309TIP3    H231343   0.575   3.595   4.711  0.4101  0.5029  0.0397
 3310TIP3   OH231344   4.187   5.814   2.269  0.2334 -0.3722  0.1574
 3310TIP3    H131345   4.170   5.903   2.299 -1.1999 -0.3266 -0.7218
 3310TIP3    H231346   4.274   5.818   2.229  0.0260  0.7180 -0.1946
 3311TIP3   OH231347   2.183   2.755  14.085 -0.2545  0.0328  0.7495
 3311TIP3    H131348   2.159   2.825  14.025  1.2535  0.2048  0.3243
 3311TIP3    H231349   2.120   2.763  14.157 -0.3632  1.5544  0.5048
 3312TIP3   OH231350   1.483   2.545   3.345 -0.2648  0.2794 -0.0099
 3312TIP3    H131351   1.451   2.455   3.339 -1.1511  0.6569 -1.0360
 3312TIP3    H231352   1.578   2.537   3.337 -0.3907 -0.5052 -0.8004
 3313TIP3   OH231353   0.128   5.561  11.832  0.2784  0.0665  0.2027
 3313TIP3    H131354   0.182   5.634  11.803  0.3741  0.1239  0.5229
 3313TIP3    H231355   0.150   5.550  11.925  1.4897 -1.4194 -0.2205
 3314TIP3   OH231356   6.712   5.783  10.979  0.1079 -0.1330 -0.3902
 3314TIP3    H131357   6.642   5.847  10.962  1.3611  0.6519 -2.7122
 3314TIP3    H231358   6.665   5.700  10.991 -1.4899  1.0470  2.0089
 3315TIP3   OH231359   4.755   5.794   2.045 -0.2286  0.3078  0.3865
 3315TIP3    H131360   4.841   5.753   2.034 -0.7813 -0.7578 -0.0871
 3315TIP3    H231361   4.772   5.888   2.041  0.7003  0.0872 -1.3389
 3316TIP3   OH231362   1.390   3.220   2.492  0.0779  0.1061  0.1864
 3316TIP3    H131363   1.458   3.154   2.503  0.0013  0.1478  0.9882
 3316TIP3    H231364   1.370   3.220   2.398  1.8253  0.7431 -0.2063
 3317TIP3   OH231365   5.946   0.034  11.515  0.6307 -0.3718  0.3822
 3317TIP3    H131366   5.918  -0.026  11.446  0.9885  0.0848 -0.1577
 3317TIP3    H231367   6.033   0.002  11.540  0.6104 -0.3793  0.4450
 3318TIP3   OH231368   0.086   2.756  11.511 -0.5655  0.0170  0.2015
 3318TIP3    H131369  -0.007   2.756  11.535  0.2415 -0.7431  3.6233
 3318TIP3    H231370   0.127   2.813  11.575  1.3891  0.2113 -1.1748
 3319TIP3   OH231371   2.598   4.194   3.095 -0.1976 -0.1650 -0.0311
 3319TIP3    H131372   2.665   4.257   3.121  2.0538 -2.2659 -0.5987
 3319TIP3    H231373   2.555   4.235   3.020 -0.5224  1.8285  1.2165
 3320TIP3   OH231374   4.121   6.778  17.099  0.1147  0.1267 -0.3356
 3320TIP3    H131375   4.179   6.853  17.112  0.2921  0.2985 -1.9962
 3320TIP3    H231376   4.035   6.808  17.127  0.3650  0.6658 -0.1437
 3321TIP3   OH231377   6.729   4.400   1.461 -1.3201 -0.9092 -0.6837
 3321TIP3    H131378   6.717   4.485   1.504 -1.8778 -1.3881  0.1129
 3321TIP3    H231379   6.747   4.422   1.370  4.8796  0.4096  0.5792
 3322TIP3   OH231380   3.186   2.580  13.920 -0.3261  0.1707  0.1917
 3322TIP3    H131381   3.275   2.564  13.890 -0.9952 -2.1266 -0.6062
 3322TIP3    H231382   3.184   2.543  14.008 -0.7495 -0.6008 -0.1411
 3323TIP3   OH231383   0.971   2.709  15.544  0.0824  0.0448  0.0898
 3323TIP3    H131384   0.947   2.732  15.454 -1.1479 -0.7640  0.2097
 3323TIP3    H231385   0.942   2.783  15.596 -2.1821 -0.8967  0.2301
 3324TIP3   OH231386   0.905   0.025  11.511 -0.0261  0.8298 -0.1151
 3324TIP3    H131387   0.982   0.027  11.567 -0.0516  2.0987 -0.0942
 3324TIP3    H231388   0.876  -0.066  11.511 -0.2832  0.8950  2.2752
 3325TIP3   OH231389   1.395   4.462   0.895 -0.3946  0.3851  0.3483
 3325TIP3    H131390   1.359   4.530   0.952 -2.0134  1.3161 -1.7085
 3325TIP3    H231391   1.465   4.505   0.846 -1.5184  0.6677 -1.0618
 3326TIP3   OH231392   6.495   4.059  15.577  0.0052 -0.1519  0.0168
 3326TIP3    H131393   6.562   3.991  15.589 -0.1081 -0.2139  0.3140
 3326TIP3    H231394   6.454   4.067  15.663 -1.5746 -1.3758 -0.6059
 3327TIP3   OH231395   5.432   5.915   3.515  0.4452 -0.2500 -0.6723
 3327TIP3    H131396   5.494   5.842   3.508 -0.6507 -1.2841  0.1512
 3327TIP3    H231397   5.417   5.924   3.609 -1.9341 -1.1343 -0.9340
 3328TIP3   OH231398   6.338   3.551   3.824  0.0904 -0.3114 -0.7157
 3328TIP3    H131399   6.328   3.612   3.897  1.9469 -1.7151  0.7648
 3328TIP3    H231400   6.267   3.489   3.835  0.8058 -0.9545  0.3602
 3329TIP3   OH231401   2.907   2.300  14.747 -0.4719  0.2134  0.2599
 3329TIP3    H131402   2.919   2.393  14.728 -1.1824  0.0654 -1.0140
 3329TIP3    H231403   2.833   2.274  14.691 -1.6700 -0.6261  2.1805
 3330TIP3   OH231404   3.804   3.152   4.312 -0.3603 -0.1137  0.2362
 3330TIP3    H131405   3.786   3.097   4.235 -2.3549  0.3265  0.3403
 3330TIP3    H231406   3.838   3.233   4.276 -2.1333  0.4290 -0.2747
 3331TIP3   OH231407   1.777   4.383  16.686  0.1028 -0.4589  0.3805
 3331TIP3    H131408   1.817   4.335  16.614  1.5627 -0.3846  1.1104
 3331TIP3    H231409   1.684   4.362  16.681  0.2449 -0.7589 -1.2745
 3332TIP3   OH231410   5.953   3.262   4.741 -0.1480  0.5717 -0.1437
 3332TIP3    H131411   5.968   3.309   4.823  1.6933 -1.3488  0.6623
 3332TIP3    H231412   6.039   3.255   4.700 -1.0517  1.5225 -2.2956
 3333TIP3   OH231413   0.957   2.501  15.997 -0.3101  0.2587 -0.0664
 3333TIP3    H131414   1.033   2.534  16.044 -0.5826  0.2048  0.4184
 3333TIP3    H231415   0.882   2.528  16.051 -0.6778  0.9196 -0.8949
 3334TIP3   OH231416   1.646   0.875   0.640 -0.2085 -0.4909  0.8609
 3334TIP3    H131417   1.709   0.869   0.568 -1.1716 -0.7425  0.0187
 3334TIP3    H231418   1.671   0.954   0.688  2.6779 -2.2959  2.4227
 3335TIP3   OH231419   3.023   3.651   1.692 -0.0564 -0.1683  0.2304
 3335TIP3    H131420   2.987   3.723   1.744  0.4521  0.8953 -0.8625
 3335TIP3    H231421   3.108   3.683   1.662  0.3473 -1.3743  0.0448
 3336TIP3   OH231422   5.690   4.122   2.891 -0.3534 -0.3202 -0.3416
 3336TIP3    H131423   5.779   4.152   2.873 -0.2019 -0.8426 -0.4855
 3336TIP3    H231424   5.645   4.130   2.807 -0.0741 -1.2919 -0.5985
 3337TIP3   OH231425   3.895   0.511  11.401 -0.4452 -0.4543 -0.5003
 3337TIP3    H131426   3.926   0.421  11.400  1.1448  0.0642 -0.5401
 3337TIP3    H231427   3.803   0.506  11.377 -0.8472 -2.2336  1.3505
 3338TIP3   OH231428   2.301   2.368  12.715  0.2143 -0.4441 -0.0473
 3338TIP3    H131429   2.285   2.404  12.802 -0.1434  0.0142 -0.2973
 3338TIP3    H231430   2.354   2.434  12.671 -0.5076 -0.1855 -0.5363
 3339TIP3   OH231431   6.131   0.491  15.111  0.1648  0.1387 -0.1769
 3339TIP3    H131432   6.127   0.430  15.184 -0.7946  0.3976 -0.0064
 3339TIP3    H231433   6.069   0.457  15.047  0.6338  0.1856 -0.6590
 3340TIP3   OH231434   1.796   3.245   0.033  0.6231  0.2121 -0.1390
 3340TIP3    H131435   1.875   3.200   0.063 -0.9017 -1.0722  2.0974
 3340TIP3    H231436   1.790   3.223  -0.060  2.5336 -0.2022 -0.1910
 3341TIP3   OH231437   2.117   0.451  14.718 -0.0399  0.4316 -0.0032
 3341TIP3    H131438   2.072   0.367  14.729  0.9336  0.2653  3.1416
 3341TIP3    H231439   2.199   0.429  14.676  0.0679 -0.1696  0.5116
 3342TIP3   OH231440   3.881   6.711   5.949 -0.2943  0.3078 -0.2789
 3342TIP3    H131441   3.941   6.776   5.985 -1.7521  1.9122 -0.6995
 3342TIP3    H231442   3.869   6.738   5.858 -1.4448 -0.1557 -0.2664
 3343TIP3   OH231443   3.964   5.339  14.425 -0.0186 -0.0751  0.3019
 3343TIP3    H131444   4.020   5.297  14.360  0.4196  0.5809  0.2558
 3343TIP3    H231445   3.881   5.291  14.419  0.1287 -0.2421 -0.4997
 3344TIP3   OH231446   2.565   1.880  14.604  0.4337  0.1918 -0.0191
 3344TIP3    H131447   2.523   1.923  14.679 -1.2000  0.5013 -1.0854
 3344TIP3    H231448   2.584   1.791  14.636 -1.6471 -0.1702  0.2971
 3345TIP3   OH231449   4.510   0.254  16.399  0.5997  0.3123 -0.1098
 3345TIP3    H131450   4.534   0.171  16.441  3.6998  1.0987 -0.2407
 3345TIP3    H231451   4.451   0.296  16.462 -1.7521 -2.3252 -0.4174
 3346TIP3   OH231452   1.390   4.223  16.162  0.0888 -0.4171  0.6691
 3346TIP3    H131453   1.326   4.289  16.138  0.7530  0.7530  2.0234
 3346TIP3    H231454   1.475   4.263  16.143  0.4993 -0.9002  1.4179
 3347TIP3   OH231455   5.640   5.267  15.911 -0.5461 -0.4542 -0.1730
 3347TIP3    H131456   5.716   5.297  15.862  0.3329 -0.4570  1.1614
 3347TIP3    H231457   5.615   5.342  15.965 -0.6558 -0.8992  0.3972
 3348TIP3   OH231458   1.336   1.119  13.726  0.3260 -0.1211  0.0388
 3348TIP3    H131459   1.411   1.061  13.739  0.9642  0.6479 -0.2246
 3348TIP3    H231460   1.284   1.108  13.806  0.7880 -0.5413  0.2879
 3349TIP3   OH231461   6.449   2.230   1.350 -0.0162 -0.2805 -0.3473
 3349TIP3    H131462   6.376   2.282   1.382 -0.2790 -1.7148  1.4755
 3349TIP3    H231463   6.493   2.286   1.286 -2.3986  0.7949 -1.0908
 3350TIP3   OH231464   6.764   4.724  15.490 -0.2518  0.4119 -0.2488
 3350TIP3    H131465   6.720   4.737  15.405  0.6914 -2.3191 -1.1959
 3350TIP3    H231466   6.699   4.678  15.543  0.0866 -0.1857 -0.3535
 3351TIP3   OH231467   0.447   2.300   3.672  0.0482  0.2095  0.1132
 3351TIP3    H131468   0.511   2.275   3.606  0.5728  1.2176  0.2261
 3351TIP3    H231469   0.378   2.346   3.623 -0.2956 -0.3549  0.0687
 3352TIP3   OH231470   1.937   5.930   4.938  0.0966  0.2313 -0.4891
 3352TIP3    H131471   1.850   5.902   4.966  0.7304 -2.2885 -0.9213
 3352TIP3    H231472   1.962   5.867   4.870  1.0390  2.7141 -2.5151
 3353TIP3   OH231473   2.289   4.653  11.878 -0.8789 -0.5582  0.2133
 3353TIP3    H131474   2.333   4.736  11.893 -0.8234 -0.6449  0.5260
 3353TIP3    H231475   2.203   4.677  11.842  0.2100 -0.4244 -2.4601
 3354TIP3   OH231476   2.502   4.917  13.761 -0.7244 -0.4080 -0.0728
 3354TIP3    H131477   2.494   4.949  13.671  4.1045 -1.6540 -1.0456
 3354TIP3    H231478   2.538   4.990  13.809  0.8223 -1.1301 -0.1186
 3355TIP3   OH231479   1.616   0.503   5.266 -0.0800 -0.3843  0.1034
 3355TIP3    H131480   1.531   0.546   5.257 -0.3556 -0.4421  2.2009
 3355TIP3    H231481   1.641   0.479   5.176 -2.3135 -0.4703 -0.5122
 3356TIP3   OH231482   2.954   1.097  16.094 -0.1940 -0.1620  0.6145
 3356TIP3    H131483   2.897   1.071  16.167 -1.1131  0.9469  0.2975
 3356TIP3    H231484   2.931   1.187  16.076  2.6465  0.7921  1.4041
 3357TIP3   OH231485   0.990   6.102  16.798 -0.0856 -0.4767  0.6731
 3357TIP3    H131486   0.911   6.112  16.853  1.5972 -0.2431  3.1300
 3357TIP3    H231487   1.052   6.057  16.855  2.6657  2.2054 -0.1143
 3358TIP3   OH231488   5.352   0.052  15.441  0.5593  0.7122  0.3546
 3358TIP3    H131489   5.331  -0.032  15.402  0.7034  1.0553 -0.4953
 3358TIP3    H231490   5.268   0.090  15.465  0.3825  0.9723 -0.6548
 3359TIP3   OH231491   4.913   1.576   3.379  0.0835  0.4164 -0.0415
 3359TIP3    H131492   4.929   1.482   3.378 -1.7272  0.1015 -0.4587
 3359TIP3    H231493   4.820   1.585   3.401 -0.2311  2.0229 -1.8328
 3360TIP3   OH231494   5.032   1.249  14.353  0.0260 -0.8545  0.4615
 3360TIP3    H131495   5.029   1.297  14.436 -1.4227 -0.5909  0.2652
 3360TIP3    H231496   4.971   1.177  14.365  1.0578 -1.7887  0.2051
 3361TIP3   OH231497   5.243   6.499   0.305 -0.2738  0.1349 -0.3273
 3361TIP3    H131498   5.238   6.569   0.370 -1.1679 -0.9694  0.8144
 3361TIP3    H231499   5.318   6.523   0.250  0.3723  1.1979  0.9730
 3362TIP3   OH231500   1.305   4.116  15.288  0.0516 -0.3690  0.2753
 3362TIP3    H131501   1.255   4.142  15.210  0.3631 -0.8293 -0.0794
 3362TIP3    H231502   1.391   4.154  15.275 -0.6243  1.6340  1.5735
 3363TIP3   OH231503   6.553   0.051  11.468  0.2327 -0.3435 -0.1960
 3363TIP3    H131504   6.530   0.077  11.557 -2.1311 -0.0123 -0.8747
 3363TIP3    H231505   6.641   0.087  11.455  0.8244 -0.8215  2.1538
 3364TIP3   OH231506   6.440   2.961   5.915 -0.2912  0.6704 -0.6832
 3364TIP3    H131507   6.470   2.881   5.873 -0.9493  0.4472 -0.7351
 3364TIP3    H231508   6.519   3.015   5.924  0.2465 -0.2148 -0.1262
 3365TIP3   OH231509   5.447   0.573   2.140  0.2681  0.0662  0.3853
 3365TIP3    H131510   5.530   0.577   2.092  0.3170 -1.2656  0.3445
 3365TIP3    H231511   5.381   0.558   2.073  0.3915 -2.2811  0.7707
 3366TIP3   OH231512   4.129   5.349   4.353  0.8878 -0.3589 -0.6723
 3366TIP3    H131513   4.184   5.408   4.406  0.4025 -0.2704 -0.2571
 3366TIP3    H231514   4.058   5.324   4.413 -0.9083  1.4999 -1.9457
 3367TIP3   OH231515   1.870   6.401  13.520 -0.3545 -0.0255  0.4867
 3367TIP3    H131516   1.929   6.326  13.514  1.7860  1.5950  0.8546
 3367TIP3    H231517   1.783   6.362  13.532  0.7961 -2.4257  1.2833
 3368TIP3   OH231518   5.666   0.214  12.110  0.6332  0.4337 -0.2619
 3368TIP3    H131519   5.745   0.237  12.159  1.4807 -2.3984 -0.1643
 3368TIP3    H231520   5.643   0.127  12.143 -1.4715  0.4663 -1.6008
 3369TIP3   OH231521   5.145   1.212  14.114 -0.2601 -0.2773 -0.1714
 3369TIP3    H131522   5.131   1.235  14.205  0.6604  2.7797 -0.7640
 3369TIP3    H231523   5.179   1.292  14.073  0.1465 -1.8230 -3.0043
 3370TIP3   OH231524   3.618   3.366  11.710 -0.0084 -0.5849 -0.6954
 3370TIP3    H131525   3.695   3.418  11.735  0.4621 -0.9539 -1.3698
 3370TIP3    H231526   3.638   3.333  11.623 -0.6101 -1.3124 -0.5696
 3371TIP3   OH231527   4.271   3.319  12.335 -0.2110  0.4744 -0.6786
 3371TIP3    H131528   4.185   3.308  12.375 -0.3032 -3.2537 -1.7559
 3371TIP3    H231529   4.333   3.288  12.400  0.0630 -0.0521 -1.1829
 3372TIP3   OH231530   1.249   3.064  13.411  0.3032 -0.2500  0.1024
 3372TIP3    H131531   1.249   3.013  13.492 -0.9014 -0.6439 -0.1281
 3372TIP3    H231532   1.300   3.011  13.349  0.0056 -0.6394  0.1881
 3373TIP3   OH231533   5.466   0.831   3.897 -0.2982 -0.1101 -0.4981
 3373TIP3    H131534   5.503   0.763   3.840 -1.3988 -0.9621 -0.2140
 3373TIP3    H231535   5.541   0.861   3.948 -0.0849 -2.3778  0.6235
 3374TIP3   OH231536   5.478   4.112  15.784 -0.3213 -0.0088  0.2676
 3374TIP3    H131537   5.473   4.036  15.841 -1.0096  1.2365  1.8987
 3374TIP3    H231538   5.387   4.134  15.764 -0.0996 -2.0513 -3.5997
 3375TIP3   OH231539   0.559   5.291   2.212  0.5783  0.3518  0.5913
 3375TIP3    H131540   0.637   5.242   2.238  1.0763 -0.1247 -1.6482
 3375TIP3    H231541   0.591   5.355   2.149 -0.7227  0.7047  0.2819
 3376TIP3   OH231542   2.807   1.771   4.653 -0.0481  0.1400  0.0272
 3376TIP3    H131543   2.729   1.811   4.690 -1.4428  0.0311 -2.6293
 3376TIP3    H231544   2.854   1.843   4.612 -0.3199 -0.2398 -0.9707
 3377TIP3   OH231545   3.332   2.503   4.110 -0.3547 -0.0453 -0.1246
 3377TIP3    H131546   3.260   2.442   4.128 -0.4228 -0.0826 -0.4999
 3377TIP3    H231547   3.325   2.569   4.178  0.5935 -1.2067  1.1286
 3378TIP3   OH231548   1.559   4.743   4.623  0.1267 -0.2164 -0.0028
 3378TIP3    H131549   1.611   4.664   4.605 -0.5765 -0.6189 -0.3038
 3378TIP3    H231550   1.480   4.710   4.667 -1.2164  0.0531 -2.1163
 3379TIP3   OH231551   1.538   0.922  12.383 -0.5293 -0.4178  0.0187
 3379TIP3    H131552   1.540   0.980  12.459 -0.7348  0.0321 -0.3154
 3379TIP3    H231553   1.469   0.959  12.327 -0.6600 -0.9842 -0.1960
 3380TIP3   OH231554   4.552   5.196  14.026 -0.1654 -0.4715 -0.2094
 3380TIP3    H131555   4.628   5.152  13.988  0.1493  2.0499 -2.7253
 3380TIP3    H231556   4.557   5.285  13.992 -2.0852  0.8633  2.7809
 3381TIP3   OH231557   3.897   6.735  11.087  0.0025  0.0148  0.2901
 3381TIP3    H131558   3.882   6.645  11.058 -0.5534 -0.0101  0.6508
 3381TIP3    H231559   3.918   6.783  11.007 -0.9258 -0.1801 -0.0692
 3382TIP3   OH231560   5.713   2.583  14.032  0.4427  0.3930  0.0850
 3382TIP3    H131561   5.662   2.654  14.071 -2.0422 -1.6157  0.6063
 3382TIP3    H231562   5.654   2.544  13.968  2.2825 -0.3187 -1.2009
 3383TIP3   OH231563   1.998   0.475  16.024 -0.0516  0.2933  0.3593
 3383TIP3    H131564   2.055   0.506  16.094 -0.6897 -0.1635  1.0932
 3383TIP3    H231565   2.052   0.479  15.945  0.7701  0.5134  0.9280
 3384TIP3   OH231566   4.173   6.709   4.797  0.1795 -0.0801  0.3763
 3384TIP3    H131567   4.179   6.679   4.887 -2.2149 -1.1487  0.2251
 3384TIP3    H231568   4.173   6.804   4.803  0.5994 -0.1480  1.4639
 3385TIP3   OH231569   0.948   1.023   5.953  0.3289  0.1256 -0.3718
 3385TIP3    H131570   0.880   0.956   5.941  0.3260  0.0085  0.2826
 3385TIP3    H231571   0.949   1.071   5.870 -0.5230  0.1017 -0.3997
 3386TIP3   OH231572   2.738   0.709  13.994 -1.2104  0.2417 -0.6169
 3386TIP3    H131573   2.740   0.760  13.913  1.1721 -1.1976 -1.5398
 3386TIP3    H231574   2.759   0.772  14.063  1.4067  0.6115 -1.7046
 3387TIP3   OH231575   6.218   6.130   6.742  0.1044  0.3470 -0.2456
 3387TIP3    H131576   6.137   6.107   6.697  0.6817  1.1664 -1.7650
 3387TIP3    H231577   6.229   6.224   6.725  1.6343  0.1386 -0.5234
 3388TIP3   OH231578   5.578   4.073  12.712  0.7425 -0.0138 -0.6261
 3388TIP3    H131579   5.616   4.138  12.771  0.4528  0.1350 -0.6020
 3388TIP3    H231580   5.644   4.005  12.705  0.0339 -0.9459  1.3374
 3389TIP3   OH231581   0.612   2.407  12.093  0.4425 -0.0508  0.0333
 3389TIP3    H131582   0.607   2.312  12.106 -0.3823 -0.0750 -0.4202
 3389TIP3    H231583   0.664   2.439  12.166 -0.3601 -0.7039  0.8946
 3390TIP3   OH231584   6.229   3.346   1.087 -0.2107 -0.3658 -0.7710
 3390TIP3    H131585   6.254   3.342   1.180 -0.2238 -0.6667 -0.7787
 3390TIP3    H231586   6.135   3.328   1.087  0.1180 -2.2347 -0.9952
 3391TIP3   OH231587   2.327   3.825  15.246  0.4849 -0.2179 -0.0537
 3391TIP3    H131588   2.335   3.732  15.222  2.6882 -0.6116  1.9882
 3391TIP3    H231589   2.234   3.845  15.237  0.0168 -2.5588 -0.7333
 3392TIP3   OH231590   3.267   4.353  16.333  0.0609 -0.4862  0.1647
 3392TIP3    H131591   3.250   4.325  16.423 -1.0390 -1.1445 -0.2241
 3392TIP3    H231592   3.236   4.279  16.279  1.3823 -0.4037 -0.7197
 3393TIP3   OH231593   4.531   5.134  10.906 -0.6106  0.3435  0.0991
 3393TIP3    H131594   4.441   5.166  10.895 -0.3611  1.0492  0.0735
 3393TIP3    H231595   4.529   5.087  10.990 -0.7404  1.3388  0.6649
 3394TIP3   OH231596   1.617   1.372   2.427 -0.4755 -0.0622  0.0380
 3394TIP3    H131597   1.646   1.308   2.491  1.3994  0.4154 -0.3157
 3394TIP3    H231598   1.673   1.358   2.351  0.3300  2.3406  0.1513
 3395TIP3   OH231599   5.840   0.829   1.981  0.7545  0.1551  0.1720
 3395TIP3    H131600   5.891   0.832   1.900  1.3403 -1.4724  0.4606
 3395TIP3    H231601   5.885   0.764   2.035 -0.4383  0.2085  1.2521
 3396TIP3   OH231602   4.173   2.438  11.836 -0.1701  0.3998 -0.5613
 3396TIP3    H131603   4.187   2.415  11.928 -0.8224 -0.9717 -0.7960
 3396TIP3    H231604   4.252   2.487  11.811  0.4857 -0.1325  0.4364
 3397TIP3   OH231605   0.170   4.922   2.161  0.1283  0.3561 -0.0613
 3397TIP3    H131606   0.213   4.900   2.078 -1.4110  2.5547 -1.5029
 3397TIP3    H231607   0.218   4.998   2.193 -0.3118  0.5059  0.2348
 3398TIP3   OH231608   1.653   2.367  13.679  0.0535 -0.6199 -0.0340
 3398TIP3    H131609   1.735   2.406  13.651 -0.5656  0.9025  0.2372
 3398TIP3    H231610   1.650   2.382  13.774 -2.3721  2.9566 -0.5755
 3399TIP3   OH231611   1.534   5.655   3.577  0.4774  0.5467 -0.7934
 3399TIP3    H131612   1.460   5.716   3.577  0.3712  0.6155  4.3316
 3399TIP3    H231613   1.611   5.711   3.566  0.2180  1.3869  1.4855
 3400TIP3   OH231614   4.024   5.610   5.415 -0.0693  0.0234 -0.4515
 3400TIP3    H131615   4.089   5.672   5.381  0.2910 -0.9111 -1.4910
 3400TIP3    H231616   3.939   5.651   5.394  0.1741  0.6558 -0.2066
 3401TIP3   OH231617   5.413   4.936  12.991 -0.5978  0.1342 -0.2224
 3401TIP3    H131618   5.463   4.891  12.923  0.7348 -1.8106  1.9883
 3401TIP3    H231619   5.447   5.026  12.991  1.7864 -0.7561  0.1995
 3402TIP3   OH231620   2.183   0.955   0.521 -0.2839  0.8016 -0.0016
 3402TIP3    H131621   2.200   0.892   0.591 -1.2463  1.1445  0.5436
 3402TIP3    H231622   2.144   1.030   0.565 -1.3970  0.8010 -0.9819
 3403TIP3   OH231623   2.380   0.206   5.154  0.7453  0.4748 -0.3740
 3403TIP3    H131624   2.373   0.285   5.101 -0.5162 -0.4784 -1.6396
 3403TIP3    H231625   2.467   0.172   5.135  1.5974  1.9492  0.7639
 3404TIP3   OH231626   1.215   3.043   0.901  0.5158 -0.6724 -0.9945
 3404TIP3    H131627   1.254   3.126   0.873 -0.3466 -0.1082 -0.5384
 3404TIP3    H231628   1.263   3.020   0.980  0.6051 -0.4982 -0.9967
 3405TIP3   OH231629   1.064   0.678  12.209 -0.2808 -0.2205 -0.3590
 3405TIP3    H131630   1.050   0.662  12.302  2.1920  0.6281  0.1995
 3405TIP3    H231631   1.121   0.607  12.181  0.0599  0.2494 -0.8844
 3406TIP3   OH231632   0.330   0.557  14.786 -0.3107 -0.4797 -0.5491
 3406TIP3    H131633   0.315   0.462  14.788 -1.7563 -0.2422  1.5200
 3406TIP3    H231634   0.420   0.567  14.755 -0.7884 -2.4401 -2.7277
 3407TIP3   OH231635   5.356   2.647  16.710 -0.0135 -0.6164 -0.1305
 3407TIP3    H131636   5.377   2.691  16.628 -0.0420 -0.0337  0.1735
 3407TIP3    H231637   5.275   2.689  16.740  0.1520 -0.6347  0.3409
 3408TIP3   OH231638   2.601   6.366   1.173 -0.3639  0.1365  0.0294
 3408TIP3    H131639   2.550   6.446   1.156 -0.2797 -0.2723 -2.3201
 3408TIP3    H231640   2.575   6.306   1.103  1.4918 -0.9818  0.2791
 3409TIP3   OH231641   4.190   4.767   5.263  0.0817  0.1307 -0.1821
 3409TIP3    H131642   4.183   4.798   5.354  0.8035  0.2672 -0.1713
 3409TIP3    H231643   4.143   4.833   5.212  0.7459  0.7095 -0.0486
 3410TIP3   OH231644   5.031   6.587  12.327  0.1171 -1.1525  1.0093
 3410TIP3    H131645   5.125   6.569  12.328  0.1323 -1.0773  0.8088
 3410TIP3    H231646   5.017   6.644  12.403  0.6992  1.2633 -0.6484
 3411TIP3   OH231647   5.088   1.902   1.178  0.5481 -0.3064  0.0193
 3411TIP3    H131648   4.999   1.933   1.163  0.6587  1.5058  2.7387
 3411TIP3    H231649   5.083   1.808   1.164 -1.6173 -0.1489 -0.5147
 3412TIP3   OH231650   3.626   1.576  14.861  0.3673  0.2204 -0.3918
 3412TIP3    H131651   3.601   1.560  14.769 -1.1394 -0.3532  0.0937
 3412TIP3    H231652   3.634   1.489  14.899 -3.6298  0.4111  1.1806
 3413TIP3   OH231653   6.112   6.744  16.937  0.0927 -0.4094 -0.7077
 3413TIP3    H131654   6.107   6.668  16.880  0.6605  0.2380 -1.6296
 3413TIP3    H231655   6.024   6.751  16.976 -0.0661 -1.3063 -0.8981
 3414TIP3   OH231656   3.567   2.298  11.691  0.0850 -0.1343 -0.7088
 3414TIP3    H131657   3.596   2.387  11.709  0.4626 -0.4326  0.1835
 3414TIP3    H231658   3.647   2.246  11.694 -0.0604 -0.4303 -1.7568
 3415TIP3   OH231659   6.737   0.766  16.071 -0.6126 -0.1906  0.3403
 3415TIP3    H131660   6.679   0.717  16.012  0.7999 -0.0284 -1.2207
 3415TIP3    H231661   6.815   0.711  16.080  1.0879  1.7894 -1.6154
 3416TIP3   OH231662   4.026   3.564  12.291 -0.0803 -0.1622 -0.0540
 3416TIP3    H131663   3.982   3.606  12.365 -1.5380 -1.2201 -0.2957
 3416TIP3    H231664   3.956   3.546  12.228  1.1494  0.7488 -1.7217
 3417TIP3   OH231665   1.866   2.669  13.630  0.7720 -0.3606 -0.5423
 3417TIP3    H131666   1.904   2.745  13.675 -0.3452  0.1320 -0.4243
 3417TIP3    H231667   1.907   2.593  13.673  1.5209  0.1578 -0.3252
 3418TIP3   OH231668   4.351   4.466  15.531  0.1879  0.2733  0.2078
 3418TIP3    H131669   4.445   4.469  15.547  0.3793 -1.9286 -0.4498
 3418TIP3    H231670   4.315   4.422  15.608 -0.0669 -0.6763 -0.4453
 3419TIP3   OH231671   1.422   5.154  14.367  0.5462 -0.1086 -0.2180
 3419TIP3    H131672   1.385   5.176  14.281  0.4256 -0.9993 -0.4027
 3419TIP3    H231673   1.362   5.193  14.430  0.2928  0.0180 -0.5325
 3420TIP3   OH231674   5.543   5.171  17.146  0.4742  0.2454 -0.0558
 3420TIP3    H131675   5.505   5.237  17.088 -1.7870  0.4334  1.6213
 3420TIP3    H231676   5.484   5.096  17.139  0.1097  0.3172  2.0847
 3421TIP3   OH231677   5.969   3.396   6.324 -0.1461 -0.3921  0.4768
 3421TIP3    H131678   6.009   3.356   6.401  1.6113  0.7599  0.2103
 3421TIP3    H231679   6.019   3.361   6.250 -0.4791  0.0753  0.0241
 3422TIP3   OH231680   4.541   6.643   2.824  0.5504 -0.4637  0.8998
 3422TIP3    H131681   4.576   6.584   2.891 -0.4520 -0.7360  1.1955
 3422TIP3    H231682   4.571   6.730   2.852 -0.0746 -0.5462  1.8473
 3423TIP3   OH231683   5.767   5.328  11.479  0.1546 -0.2818 -0.2368
 3423TIP3    H131684   5.744   5.407  11.430  0.7226  0.4374  0.6341
 3423TIP3    H231685   5.796   5.266  11.412 -1.5081 -0.2010 -1.0560
 3424TIP3   OH231686   4.635   2.472   1.394 -0.4716  0.3261  0.4435
 3424TIP3    H131687   4.662   2.466   1.486  0.0107 -2.5592  0.1444
 3424TIP3    H231688   4.548   2.434   1.391 -1.2133  1.9943 -0.0405
 3425TIP3   OH231689   6.254   0.310   3.545  0.0383  0.5825  0.3034
 3425TIP3    H131690   6.235   0.218   3.562  0.6983  0.0449 -1.7435
 3425TIP3    H231691   6.272   0.347   3.632  0.7036 -1.4316  1.0546
 3426TIP3   OH231692   0.674   2.298  11.422  0.0391 -0.2854 -0.1364
 3426TIP3    H131693   0.662   2.383  11.379 -1.6093 -0.7332 -0.6071
 3426TIP3    H231694   0.595   2.249  11.400 -0.2504 -1.0011  2.3269
 3427TIP3   OH231695   3.671   6.443  15.207  0.1425 -0.2441  0.7239
 3427TIP3    H131696   3.743   6.396  15.248  2.0412  0.6477 -1.4451
 3427TIP3    H231697   3.609   6.374  15.181  1.5276 -1.3177  0.1612
 3428TIP3   OH231698   0.795   3.104   5.577 -0.2277 -0.0286  0.2303
 3428TIP3    H131699   0.856   3.088   5.649  0.0417  2.4500  0.6176
 3428TIP3    H231700   0.711   3.117   5.620  0.0552  2.1102  0.1982
 3429TIP3   OH231701   0.622   4.473   2.482 -0.2336  0.2955 -0.3277
 3429TIP3    H131702   0.620   4.412   2.557  0.5348  1.5123  0.6975
 3429TIP3    H231703   0.542   4.453   2.434 -0.7622 -0.4838  0.8355
 3430TIP3   OH231704   5.587   2.086  12.220  0.3355 -0.2943  0.2787
 3430TIP3    H131705   5.524   2.019  12.247 -2.0637  1.7406  0.0255
 3430TIP3    H231706   5.587   2.149  12.293  0.9847  0.4370 -0.3494
 3431TIP3   OH231707   3.419   6.518  11.296  0.2230 -0.4414  1.0119
 3431TIP3    H131708   3.445   6.426  11.301 -0.6650 -0.8004 -0.5489
 3431TIP3    H231709   3.341   6.517  11.240 -1.2255  0.9776  2.9543
 3432TIP3   OH231710   2.282   0.543   3.893 -0.4590 -0.2208 -0.0255
 3432TIP3    H131711   2.217   0.489   3.848  0.4111 -0.6992 -0.7349
 3432TIP3    H231712   2.363   0.491   3.890 -0.1561  0.1295  1.2981
 3433TIP3   OH231713   0.279   0.994   1.439  0.6153 -0.3131 -0.3826
 3433TIP3    H131714   0.267   1.051   1.363 -1.8096  1.2835  1.1167
 3433TIP3    H231715   0.206   0.933   1.436  1.0563 -0.8711  0.1287
 3434TIP3   OH231716   5.650   2.325  12.361  0.1681  0.4089  0.0157
 3434TIP3    H131717   5.570   2.375  12.348  0.8185  1.4205 -0.2242
 3434TIP3    H231718   5.662   2.323  12.456  0.0142  0.5114  0.0367
 3435TIP3   OH231719   1.649   4.358  13.992 -0.5314  0.4254 -0.0317
 3435TIP3    H131720   1.604   4.442  13.986  0.2712  0.7808 -1.6773
 3435TIP3    H231721   1.586   4.298  14.032 -1.7620  1.3660 -0.5490
 3436TIP3   OH231722   3.284   1.392   5.479  0.0727 -0.1209  0.5549
 3436TIP3    H131723   3.293   1.487   5.483 -3.0829  0.1672  3.1375
 3436TIP3    H231724   3.340   1.360   5.550 -0.1342 -0.0813  0.7351
 3437TIP3   OH231725   1.573   6.149   4.969  0.1462 -0.1454 -0.0102
 3437TIP3    H131726   1.654   6.135   4.920  0.0840 -2.4766  0.5021
 3437TIP3    H231727   1.584   6.097   5.048 -2.1005 -0.9676 -0.2176
 3438TIP3   OH231728   5.863   3.441  14.956  0.5491 -0.4519 -0.8128
 3438TIP3    H131729   5.889   3.444  14.864  1.6608 -0.1787 -0.5004
 3438TIP3    H231730   5.780   3.393  14.956 -0.0136  0.5008 -2.0646
 3439TIP3   OH231731   6.333   0.162   0.814  0.0723 -0.1181 -0.5672
 3439TIP3    H131732   6.415   0.175   0.861 -1.1193 -0.7627  1.7585
 3439TIP3    H231733   6.347   0.204   0.729  1.5260  2.9568  1.1290
 3440TIP3   OH231734   3.518   6.189  16.735 -0.4954  0.1133 -0.1626
 3440TIP3    H131735   3.499   6.146  16.652 -0.0901 -2.5706  1.0777
 3440TIP3    H231736   3.484   6.129  16.801  0.4682  1.5104  1.6392
 3441TIP3   OH231737   2.629   4.311   6.854  0.4089  0.4113 -0.6690
 3441TIP3    H131738   2.544   4.342   6.822  0.2270 -0.9270 -1.5539
 3441TIP3    H231739   2.613   4.219   6.875  0.5730  1.2064  3.1866
 3442TIP3   OH231740   4.664   0.036   2.983  0.2589  0.3790  0.6821
 3442TIP3    H131741   4.659  -0.048   3.029 -0.6457 -0.3700 -0.7618
 3442TIP3    H231742   4.653   0.102   3.052 -0.3253 -0.7213  1.6432
 3443TIP3   OH231743   4.877   1.381  13.208  1.0003  0.1121  0.3757
 3443TIP3    H131744   4.910   1.298  13.242  1.7643  0.3731  0.2817
 3443TIP3    H231745   4.790   1.391  13.248  0.6796 -0.9856 -0.0248
 3444TIP3   OH231746   5.845   2.777   0.732 -0.5089  0.1584 -0.3979
 3444TIP3    H131747   5.805   2.693   0.753 -0.7562  0.4053  0.1453
 3444TIP3    H231748   5.939   2.761   0.732 -0.4612  0.3470  1.7932
 3445TIP3   OH231749   0.052   2.881   3.600  0.0020  0.4546  0.0344
 3445TIP3    H131750   0.071   2.803   3.653 -1.6892 -1.3425 -1.8807
 3445TIP3    H231751  -0.034   2.863   3.561 -0.6130  3.5018 -0.1175
 3446TIP3   OH231752   1.575   5.842  12.229  0.0620  0.1826 -0.0715
 3446TIP3    H131753   1.505   5.907  12.238  0.8361  0.8948  0.8933
 3446TIP3    H231754   1.541   5.764  12.274  0.2638  0.8372  1.2360
 3447TIP3   OH231755   4.198   1.637  12.919  0.4774 -0.1059 -0.3748
 3447TIP3    H131756   4.233   1.556  12.882  2.1365  0.6375 -0.4681
 3447TIP3    H231757   4.135   1.607  12.985  0.3113 -1.4578 -1.1174
 3448TIP3   OH231758   4.173   2.305  11.148  0.5223  0.2933  0.2979
 3448TIP3    H131759   4.087   2.265  11.163  1.4685 -1.9734 -0.2616
 3448TIP3    H231760   4.204   2.266  11.066  1.3680  2.3614 -0.4034
 3449TIP3   OH231761   4.784   4.316  11.890 -0.3837 -0.2641 -0.3329
 3449TIP3    H131762   4.862   4.345  11.843  0.5124 -0.3837  1.0381
 3449TIP3    H231763   4.716   4.380  11.868  0.3728  0.3794 -0.7883
 3450TIP3   OH231764   3.157   4.389   0.930  0.7497  0.3942  0.8574
 3450TIP3    H131765   3.242   4.431   0.917  1.7825 -0.9073  3.1260
 3450TIP3    H231766   3.098   4.462   0.952  1.1055  1.3827 -1.3691
 3451TIP3   OH231767   4.035   2.626  13.438 -0.6112  0.6842  0.2163
 3451TIP3    H131768   4.036   2.553  13.377  0.3419 -0.4309  1.5411
 3451TIP3    H231769   4.061   2.702  13.386 -0.9102 -0.0506 -1.0054
 3452TIP3   OH231770   6.137   2.946  14.745  0.0369 -0.0530  0.0976
 3452TIP3    H131771   6.101   3.031  14.720  0.2583 -0.5088 -1.8955
 3452TIP3    H231772   6.216   2.938  14.692  1.0845 -0.6665  1.7155
 3453TIP3   OH231773   1.994   6.174   0.549 -0.5662 -0.6094 -0.1307
 3453TIP3    H131774   2.064   6.163   0.485 -0.3064  1.6419 -0.2468
 3453TIP3    H231775   1.914   6.170   0.498 -0.3565  1.3019 -0.6447
 3454TIP3   OH231776   3.120   0.218  14.646 -0.4503  0.3604  0.3242
 3454TIP3    H131777   3.036   0.261  14.630  0.7202  2.0383 -1.5525
 3454TIP3    H231778   3.167   0.276  14.705 -0.4936 -0.4661  1.1905
 3455TIP3   OH231779   3.622   3.769  14.450 -0.1954  0.4370 -0.1113
 3455TIP3    H131780   3.671   3.705  14.397 -0.2586  0.8464 -0.6631
 3455TIP3    H231781   3.545   3.720  14.481  0.7999 -0.3548  1.1679
 3456TIP3   OH231782   1.668   5.863   4.915 -0.1370 -0.4661  0.0926
 3456TIP3    H131783   1.676   5.769   4.932 -0.7261 -0.4290  0.5559
 3456TIP3    H231784   1.636   5.900   4.997  0.1547  0.1538 -0.0684
 3457TIP3   OH231785   1.825   1.838  14.965  1.0782 -0.5249 -0.0939
 3457TIP3    H131786   1.918   1.817  14.965  0.9360 -1.1642  0.3189
 3457TIP3    H231787   1.792   1.801  15.047  0.3108 -0.9723 -0.5921
 3458TIP3   OH231788   4.973   2.441   5.511  0.1046 -0.1238 -0.8603
 3458TIP3    H131789   4.970   2.533   5.537 -2.3455 -0.1039 -1.1414
 3458TIP3    H231790   4.936   2.440   5.423 -0.5289 -1.4589 -0.5917
 3459TIP3   OH231791   3.123   6.482  13.345  0.2176  0.2486 -0.0466
 3459TIP3    H131792   3.081   6.568  13.340 -0.2544 -0.1071 -3.6978
 3459TIP3    H231793   3.055   6.423  13.378 -0.3449  0.7830 -0.2418
 3460TIP3   OH231794   2.700   0.425   5.564 -0.8281 -0.0295 -0.6051
 3460TIP3    H131795   2.705   0.421   5.659 -0.6010 -2.0429 -0.6854
 3460TIP3    H231796   2.622   0.479   5.546 -0.7006  0.6030  0.6945
 3461TIP3   OH231797   4.597   6.508  14.199  0.1975 -0.7581 -0.2175
 3461TIP3    H131798   4.691   6.500  14.214  0.4025  0.5819 -0.7190
 3461TIP3    H231799   4.590   6.561  14.120 -1.0455  2.8950  2.2462
 3462TIP3   OH231800   3.986   5.686  16.598  0.1485 -0.1580 -0.4888
 3462TIP3    H131801   3.930   5.659  16.671 -0.4561  0.0559 -0.8645
 3462TIP3    H231802   3.935   5.665  16.520  1.2441 -1.3827 -0.8909
 3463TIP3   OH231803   3.297   2.141  13.732  0.2370  0.2905  0.2300
 3463TIP3    H131804   3.225   2.097  13.777  0.6826  0.0512  0.7081
 3463TIP3    H231805   3.336   2.198  13.798  1.2285 -0.4613  0.3173
 3464TIP3   OH231806   1.699   5.520   5.671 -0.7537  0.9319  0.1794
 3464TIP3    H131807   1.786   5.559   5.682  0.8980 -2.7153  0.5549
 3464TIP3    H231808   1.665   5.511   5.760 -0.8504  0.8409  0.1331
 3465TIP3   OH231809   5.431   3.749  16.164  0.5187  0.8334 -0.6712
 3465TIP3    H131810   5.408   3.788  16.080 -0.4959  0.6187 -0.5017
 3465TIP3    H231811   5.351   3.755  16.216  1.2326  1.2792  0.3995
 3466TIP3   OH231812   0.680   2.795   3.121 -0.9061 -0.4923 -0.6862
 3466TIP3    H131813   0.626   2.727   3.080  0.2251 -1.0850 -1.2060
 3466TIP3    H231814   0.745   2.746   3.172  0.8637  0.1571 -2.2583
 3467TIP3   OH231815   6.331   5.406   3.420 -0.2485 -0.2067  0.4602
 3467TIP3    H131816   6.388   5.344   3.376 -0.1230  1.2795 -1.5396
 3467TIP3    H231817   6.387   5.482   3.438 -1.1012  0.4987  0.1975
 3468TIP3   OH231818   5.914   1.661  14.804  0.5118 -0.1208  0.3186
 3468TIP3    H131819   5.854   1.648  14.877 -0.1965  0.6196 -0.1272
 3468TIP3    H231820   5.873   1.615  14.731 -0.9769  2.7059 -0.7319
 3469TIP3   OH231821   3.015   3.935   3.135 -0.9366  0.3194  0.2135
 3469TIP3    H131822   2.984   3.990   3.206 -2.2897 -0.7062  0.4261
 3469TIP3    H231823   2.988   3.846   3.159 -0.2829 -0.2085 -0.9478
 3470TIP3   OH231824   1.535   5.507  17.064 -0.3331  0.3435  0.6142
 3470TIP3    H131825   1.467   5.500  16.997  0.9973 -1.2367 -0.6136
 3470TIP3    H231826   1.525   5.428  17.117  0.4980  0.1455  0.4750
 3471TIP3   OH231827   1.513   0.267   2.016  0.0479  0.0669  0.0287
 3471TIP3    H131828   1.596   0.268   1.969  0.6299 -0.0212  1.0541
 3471TIP3    H231829   1.534   0.300   2.103 -0.3392 -3.0574  1.3519
 3472TIP3   OH231830   2.911   1.170   1.353 -0.2152 -0.1305 -0.3618
 3472TIP3    H131831   2.818   1.158   1.371 -0.4058  0.2721 -1.0210
 3472TIP3    H231832   2.956   1.141   1.432 -0.9613  0.6862  0.3763
 3473TIP3   OH231833   3.312   3.920  15.967 -0.6009 -0.7800 -0.0129
 3473TIP3    H131834   3.250   3.901  16.038 -1.4178 -1.0975 -0.7940
 3473TIP3    H231835   3.381   3.854  15.977 -1.7939 -2.2029 -0.7736
 3474TIP3   OH231836   2.949   1.750  15.466 -0.6709 -0.3132 -0.7484
 3474TIP3    H131837   2.934   1.705  15.383 -0.2744 -2.7056  0.4263
 3474TIP3    H231838   2.868   1.735  15.516 -0.6255  0.4942 -0.4330
 3475TIP3   OH231839   0.139   6.521  12.485 -0.3074 -0.3225  0.1783
 3475TIP3    H131840   0.066   6.568  12.444  0.9521  0.7200 -0.9273
 3475TIP3    H231841   0.188   6.484  12.412 -0.3821 -2.0404  0.9732
 3476TIP3   OH231842   4.939   5.369  11.901 -0.2734  0.2705 -0.0254
 3476TIP3    H131843   4.980   5.283  11.904  1.4131  1.0657  0.5000
 3476TIP3    H231844   4.880   5.370  11.977 -0.4326 -0.4805 -0.1322
 3477TIP3   OH231845   3.585   1.570  13.178  0.6107  0.2392  0.0360
 3477TIP3    H131846   3.562   1.645  13.124 -0.0287 -0.1908 -0.2990
 3477TIP3    H231847   3.677   1.553  13.158 -0.4125 -1.8263 -3.2576
 3478TIP3   OH231848   4.971   3.319  14.826  0.2920  0.4339 -0.5585
 3478TIP3    H131849   5.057   3.311  14.867  0.2114  0.7914 -0.3240
 3478TIP3    H231850   4.966   3.409  14.796 -0.4372  0.7178  0.3998
 3479TIP3   OH231851   2.940   2.660   5.111  0.6735  0.0934 -0.2014
 3479TIP3    H131852   2.931   2.631   5.201  1.2569  1.6850  0.3773
 3479TIP3    H231853   3.022   2.710   5.109  0.7890 -0.1124 -1.6569
 3480TIP3   OH231854   3.547   2.839  16.154  0.5583 -0.3072 -0.1994
 3480TIP3    H131855   3.589   2.781  16.218  0.6319 -1.6967 -1.4979
 3480TIP3    H231856   3.620   2.883  16.111  0.5377 -0.0477  0.0279
 3481TIP3   OH231857   4.088   2.392   2.413 -0.5778  0.1081  0.1547
 3481TIP3    H131858   4.097   2.303   2.448  1.0733  0.1927 -0.0149
 3481TIP3    H231859   4.051   2.443   2.486  1.1400 -0.1190  1.2157
 3482TIP3   OH231860   3.550   0.341   0.475  0.0578  0.4019 -0.2304
 3482TIP3    H131861   3.623   0.377   0.425 -0.3686  0.2941 -0.9463
 3482TIP3    H231862   3.472   0.369   0.426 -0.3699  0.4006  0.4482
 3483TIP3   OH231863   3.928   2.040  15.122 -0.7106  0.0333  0.0773
 3483TIP3    H131864   3.890   2.117  15.079 -0.6502  0.4808  0.8308
 3483TIP3    H231865   3.858   1.975  15.118 -1.0982  0.4329  0.2907
 3484TIP3   OH231866   1.913   6.357   2.726  0.3631 -0.3735  0.3160
 3484TIP3    H131867   1.829   6.357   2.770  1.0578 -0.4506  1.6639
 3484TIP3    H231868   1.902   6.417   2.652 -0.1829  1.3561  1.7933
 3485TIP3   OH231869   1.056   6.777  14.583  0.1932 -0.3024 -0.4706
 3485TIP3    H131870   1.100   6.824  14.655 -0.5892  1.2283 -0.9555
 3485TIP3    H231871   1.117   6.708  14.559  1.3234  0.3650  0.3854
 3486TIP3   OH231872   0.245   4.365  11.993  0.7344 -0.3254  0.5102
 3486TIP3    H131873   0.166   4.404  12.029  0.2796  0.7363 -1.5613
 3486TIP3    H231874   0.307   4.438  11.988 -0.1264  0.2247 -3.4021
 3487TIP3   OH231875   2.297   3.502   0.346  0.0016 -0.1161 -0.0828
 3487TIP3    H131876   2.225   3.455   0.387 -2.0481  2.3078 -0.7621
 3487TIP3    H231877   2.300   3.586   0.390  0.9387  0.6804 -1.5975
 3488TIP3   OH231878   2.100   1.994   2.923 -0.7431  0.2424 -0.0748
 3488TIP3    H131879   2.010   1.968   2.943 -0.1206 -1.7661  0.2398
 3488TIP3    H231880   2.152   1.916   2.943  1.0693  1.3874 -0.2432
 3489TIP3   OH231881   2.411   6.301  17.235 -0.1096  0.0752  0.9859
 3489TIP3    H131882   2.421   6.284  17.141  0.8576 -0.3522  1.1624
 3489TIP3    H231883   2.493   6.271  17.274  0.3573  2.2215  1.7125
 3490TIP3   OH231884   5.935   2.453  12.819 -0.3910 -0.2053 -0.1238
 3490TIP3    H131885   5.966   2.542  12.801 -0.6103 -0.3545 -1.3179
 3490TIP3    H231886   5.877   2.462  12.894  1.3296  0.3136  1.1931
 3491TIP3   OH231887   5.914   3.437  16.804 -0.5023 -0.1720  0.0749
 3491TIP3    H131888   5.964   3.510  16.839  0.9211 -2.4130  2.9863
 3491TIP3    H231889   5.822   3.462  16.816 -0.0378  1.1860  0.8651
 3492TIP3   OH231890   6.583   6.011   3.320  0.5673  0.4527  0.2373
 3492TIP3    H131891   6.678   6.022   3.330  0.3099  1.3175  1.8033
 3492TIP3    H231892   6.560   6.071   3.248  1.0337  1.1421  0.6500
 3493TIP3   OH231893   2.959   1.367   5.865  0.1208 -0.6960 -0.1016
 3493TIP3    H131894   3.022   1.305   5.900  0.0713 -1.7956 -1.8738
 3493TIP3    H231895   2.890   1.313   5.826 -2.1971  0.4744  2.2011
 3494TIP3   OH231896   0.579   4.488  14.210  0.1242  0.0071 -0.0979
 3494TIP3    H131897   0.589   4.492  14.305  1.3244 -1.8895 -0.1129
 3494TIP3    H231898   0.522   4.561  14.189 -1.8495 -0.7649  2.3138
 3495TIP3   OH231899   3.259   5.092   1.346 -0.5495 -0.0115 -0.4892
 3495TIP3    H131900   3.317   5.168   1.353  1.3641 -1.4099 -0.8008
 3495TIP3    H231901   3.250   5.077   1.252 -1.3100  0.0987 -0.4399
 3496TIP3   OH231902   5.896   1.752   0.992  0.2624 -0.3790 -0.5430
 3496TIP3    H131903   5.816   1.713   1.027  0.6389 -0.7275 -0.0638
 3496TIP3    H231904   5.938   1.681   0.944  1.3015 -0.7527  0.9204
 3497TIP3   OH231905   3.983   6.483   5.674  0.1789 -0.3364 -0.5115
 3497TIP3    H131906   4.069   6.457   5.641 -0.3065 -2.2207 -0.3319
 3497TIP3    H231907   3.941   6.526   5.599  1.5199  1.2494 -0.3908
 3498TIP3   OH231908   1.971   2.624   3.792 -0.3995 -0.5052  0.2399
 3498TIP3    H131909   1.952   2.588   3.705  1.1459  0.8499 -0.6773
 3498TIP3    H231910   1.894   2.599   3.845 -1.0499 -1.9194 -1.3121
 3499TIP3   OH231911   2.692   3.869  11.618  0.3981 -0.2412  0.1598
 3499TIP3    H131912   2.700   3.940  11.554 -2.2234 -0.2470 -0.2157
 3499TIP3    H231913   2.741   3.900  11.694  1.1222  1.0066 -0.7919
 3500TIP3   OH231914   3.060   0.730  14.232 -0.0210  0.0260  0.1355
 3500TIP3    H131915   3.128   0.688  14.285  0.6292 -0.6678 -1.2132
 3500TIP3    H231916   3.045   0.814  14.275 -0.0021 -0.7982  1.7977
 3501TIP3   OH231917   3.894   5.350  12.765 -0.0320 -0.2408  0.8019
 3501TIP3    H131918   3.932   5.382  12.847  1.8612 -0.2210 -0.0589
 3501TIP3    H231919   3.921   5.258  12.761  0.2528 -0.1245 -0.0079
 3502TIP3   OH231920   3.499   1.539  10.279  0.3520  0.3089  0.3800
 3502TIP3    H131921   3.526   1.463  10.330  0.8028 -0.8730 -1.5285
 3502TIP3    H231922   3.468   1.602  10.343 -0.3322 -1.6129  2.0024
 3503TIP3   OH231923   5.289   4.385   3.908 -0.1960  0.1958 -0.2992
 3503TIP3    H131924   5.282   4.468   3.955  1.1195  0.3825 -0.4037
 3503TIP3    H231925   5.200   4.365   3.880 -0.4652  1.7606 -0.5918
 3504TIP3   OH231926   4.513   5.816  14.782  0.5683 -0.5561 -0.3696
 3504TIP3    H131927   4.478   5.905  14.788  1.1226 -0.4313  1.5173
 3504TIP3    H231928   4.591   5.825  14.727 -0.0315 -0.0963 -1.1552
 3505TIP3   OH231929   3.559   6.635   0.309 -0.4785 -0.1274  0.3118
 3505TIP3    H131930   3.538   6.602   0.222  3.1347  0.6610 -0.9672
 3505TIP3    H231931   3.576   6.729   0.296  1.7831 -0.3273  1.4669
 3506TIP3   OH231932   6.350   1.902   1.796  0.0089  0.7560 -0.2629
 3506TIP3    H131933   6.367   1.870   1.884 -1.3621  1.0895  0.1478
 3506TIP3    H231934   6.274   1.852   1.767  1.1487 -0.1659 -1.7129
 3507TIP3   OH231935   2.730   1.518   5.835  0.0589 -0.2307 -0.1254
 3507TIP3    H131936   2.784   1.450   5.877 -2.0040 -1.6341  0.3354
 3507TIP3    H231937   2.730   1.590   5.898  0.7542 -0.5393  0.2367
 3508TIP3   OH231938   5.577   0.775  15.514 -0.0663  0.5475 -0.0444
 3508TIP3    H131939   5.634   0.805  15.443 -0.9103  1.2520 -0.4270
 3508TIP3    H231940   5.611   0.688  15.536  0.3672  0.4364 -1.1212
 3509TIP3   OH231941   4.956   0.355  12.899 -0.4931  0.6273 -0.2767
 3509TIP3    H131942   4.871   0.389  12.925 -0.9196 -0.0766 -0.7084
 3509TIP3    H231943   4.989   0.310  12.977 -0.9905  0.0136 -0.4091
 3510TIP3   OH231944   1.825   1.235   5.178  0.5357 -0.2007  0.3636
 3510TIP3    H131945   1.853   1.304   5.118 -2.2793  0.5025 -0.2032
 3510TIP3    H231946   1.761   1.278   5.235 -1.1367 -2.2857  0.1089
 3511TIP3   OH231947   2.426   3.055   1.708  0.0682  0.1518 -0.8002
 3511TIP3    H131948   2.487   3.113   1.755 -0.2763  0.5742 -0.8646
 3511TIP3    H231949   2.382   3.006   1.777  1.8995 -1.6163 -0.8414
 3512TIP3   OH231950   3.814   2.826   4.723  0.0117 -0.4432  0.3612
 3512TIP3    H131951   3.865   2.882   4.664 -0.7664 -0.4383 -0.3167
 3512TIP3    H231952   3.790   2.883   4.796 -0.0744 -0.1160  0.0779
 3513TIP3   OH231953   4.985   3.959   1.439 -0.6023 -0.1374 -0.4859
 3513TIP3    H131954   5.015   3.878   1.480  0.2785  0.3064 -0.2294
 3513TIP3    H231955   4.892   3.944   1.421 -0.3205 -1.4082 -0.9575
 3514TIP3   OH231956   6.209   0.080   2.892  0.3519 -0.3358  0.3374
 3514TIP3    H131957   6.297   0.049   2.871 -0.1946 -1.3413 -0.4735
 3514TIP3    H231958   6.174   0.016   2.953 -0.3308 -0.6694 -0.4037
 3515TIP3   OH231959   0.356   0.566   2.375  0.0504  0.3564 -0.3202
 3515TIP3    H131960   0.298   0.593   2.304 -0.7235  0.1520  0.2260
 3515TIP3    H231961   0.319   0.606   2.453  1.2197  1.0353 -0.1006
 3516TIP3   OH231962   4.989   4.984   0.424 -0.3768 -0.0664 -0.4284
 3516TIP3    H131963   5.074   5.029   0.421 -0.1921 -0.4348 -0.8043
 3516TIP3    H231964   4.926   5.055   0.436  0.0792  0.0943  1.0725
 3517TIP3   OH231965   2.858   6.784  17.224  0.7649 -0.1764  0.2074
 3517TIP3    H131966   2.767   6.777  17.193  0.7282 -1.4355  0.5432
 3517TIP3    H231967   2.849   6.803  17.318  0.8220 -1.7015  0.5349
 3518TIP3   OH231968   3.643   5.241  16.996 -0.1747 -0.1657 -0.4437
 3518TIP3    H131969   3.675   5.162  16.952  0.4482 -0.1777  0.0293
 3518TIP3    H231970   3.720   5.277  17.040 -1.4332 -1.9481  3.3891
 3519TIP3   OH231971   1.682   0.253  14.235 -0.0020 -0.5211  0.0539
 3519TIP3    H131972   1.759   0.237  14.180  0.1360  1.1694 -0.2728
 3519TIP3    H231973   1.619   0.294  14.176 -0.6555 -0.6704  0.6434
 3520TIP3   OH231974   2.797   4.748  11.362 -0.5365 -0.2840  0.0073
 3520TIP3    H131975   2.866   4.775  11.423 -0.7136 -0.8348  0.4554
 3520TIP3    H231976   2.723   4.724  11.418 -1.1895  0.5598 -0.4777
 3521TIP3   OH231977   5.936   4.138   6.301  0.3359 -0.1051 -0.0791
 3521TIP3    H131978   5.901   4.095   6.379  1.5006 -0.6428  0.1476
 3521TIP3    H231979   6.029   4.117   6.301  0.3330 -0.1595 -1.6601
 3522TIP3   OH231980   3.513   3.880  15.395  0.2440 -0.2338 -0.3497
 3522TIP3    H131981   3.512   3.835  15.480 -2.0722  0.3088 -0.0363
 3522TIP3    H231982   3.446   3.948  15.404  0.2481  0.0736 -2.4873
 3523TIP3   OH231983   1.966   3.248   6.080  0.0528 -0.0174  0.3484
 3523TIP3    H131984   1.886   3.280   6.123  0.6456  0.4794  1.0889
 3523TIP3    H231985   2.002   3.185   6.142  0.6602  0.3476  0.3647
 3524TIP3   OH231986   1.394   3.727  10.623 -0.4737 -0.3155 -0.2306
 3524TIP3    H131987   1.340   3.805  10.619 -1.0456 -0.7278 -0.7837
 3524TIP3    H231988   1.463   3.742  10.559 -1.1048 -0.6361 -1.0017
 3525TIP3   OH231989   3.709   6.059   3.247  0.5706 -0.3871  0.0658
 3525TIP3    H131990   3.741   5.977   3.210 -0.1049 -0.3738 -0.5611
 3525TIP3    H231991   3.713   6.122   3.175 -1.0327 -0.4309 -0.0790
 3526TIP3   OH231992   3.131   4.255  17.143 -0.3374  0.3991  0.4847
 3526TIP3    H131993   3.051   4.267  17.092  1.5056 -1.0260 -2.8816
 3526TIP3    H231994   3.171   4.342  17.146 -0.1099  0.3531 -1.1021
 3527TIP3   OH231995   3.609   3.381   0.777  0.0334  0.2549 -0.0499
 3527TIP3    H131996   3.593   3.343   0.864  0.9458  2.1186  0.9753
 3527TIP3    H231997   3.701   3.362   0.760 -0.1198 -0.0209 -0.5519
 3528TIP3   OH231998   0.558   2.620  16.963 -0.3869  0.0350 -0.0145
 3528TIP3    H131999   0.572   2.614  17.058  0.0534  1.0629 -0.0007
 3528TIP3    H232000   0.464   2.636  16.953 -0.1065  2.1834  0.3889
 3529TIP3   OH232001   3.121   4.713  13.063 -0.1026 -0.7481  0.4160
 3529TIP3    H132002   3.080   4.633  13.030 -1.1436 -0.2999  0.6055
 3529TIP3    H232003   3.212   4.688  13.080  0.3823 -1.0979 -2.4233
 3530TIP3   OH232004   4.777   2.229  11.818  0.0227  0.2129  0.0727
 3530TIP3    H132005   4.695   2.211  11.864 -1.0090  1.9656 -1.0072
 3530TIP3    H232006   4.808   2.311  11.856  0.4909  0.3358 -0.5647
 3531TIP3   OH232007   4.394   1.866  11.670 -0.2405  0.0556  0.0060
 3531TIP3    H132008   4.392   1.776  11.639  1.2327 -0.3499  1.0237
 3531TIP3    H232009   4.317   1.907  11.631 -1.9188 -2.1073  0.9492
 3532TIP3   OH232010   5.406   5.544  10.916 -0.2667  0.6079 -0.2164
 3532TIP3    H132011   5.487   5.518  10.873 -0.2959  0.2433 -0.0497
 3532TIP3    H232012   5.359   5.594  10.849 -0.1991  0.2600 -0.5235
 3533TIP3   OH232013   5.650   3.269  11.184 -0.6771 -0.1384  0.3699
 3533TIP3    H132014   5.730   3.232  11.221 -1.0573 -0.2687  1.0783
 3533TIP3    H232015   5.583   3.204  11.203 -1.4660  1.1495  2.1636
 3534TIP3   OH232016   2.549   0.225  15.090 -0.1218  0.6112  0.5137
 3534TIP3    H132017   2.527   0.259  15.004 -0.3105  0.2402  0.4149
 3534TIP3    H232018   2.564   0.131  15.076  1.7233  0.8903  0.5455
 3535TIP3   OH232019   0.564   5.740  16.689 -0.8097  0.2283  0.0979
 3535TIP3    H132020   0.544   5.688  16.766  1.0764  0.7695  0.9831
 3535TIP3    H232021   0.485   5.791  16.673 -1.5013 -0.4943  1.1641
 3536TIP3   OH232022   2.028   5.339  11.895  0.2536 -0.2833 -0.0086
 3536TIP3    H132023   1.946   5.300  11.866  0.3285  0.1860 -0.8648
 3536TIP3    H232024   2.071   5.270  11.946 -0.1082 -0.9529 -0.5991
 3537TIP3   OH232025   1.861   2.135  15.966  0.1798  0.4153  0.3426
 3537TIP3    H132026   1.843   2.044  15.988 -0.4945  0.4838  0.1153
 3537TIP3    H232027   1.859   2.181  16.050  0.6190  0.2025  0.4666
 3538TIP3   OH232028   1.093   5.226  11.767 -0.5518  0.4767  0.0540
 3538TIP3    H132029   1.036   5.212  11.692 -1.7548  1.0993  0.8485
 3538TIP3    H232030   1.163   5.283  11.734 -0.4920 -0.1126 -0.8543
 3539TIP3   OH232031   2.523   6.214  13.893 -0.1528  0.2322  0.3377
 3539TIP3    H132032   2.554   6.197  13.982 -2.0514 -0.0362  0.9770
 3539TIP3    H232033   2.485   6.131  13.864 -0.3703  0.5678 -0.3656
 3540TIP3   OH232034   0.881   0.317   0.504  0.2517 -0.0468 -0.2127
 3540TIP3    H132035   0.868   0.225   0.482  1.4545 -0.4125  0.5763
 3540TIP3    H232036   0.855   0.324   0.596  1.9328  0.0006  0.2760
 3541TIP3   OH232037   1.484   5.419  12.455 -0.0177 -0.4535 -0.1387
 3541TIP3    H132038   1.507   5.384  12.542 -0.9679 -1.3534 -0.2431
 3541TIP3    H232039   1.425   5.491  12.474  0.6513  0.0677  0.0022
 3542TIP3   OH232040   5.349   5.016  10.949 -0.2432  0.1149 -0.2714
 3542TIP3    H132041   5.369   5.085  10.887 -1.0733  1.2559  0.7214
 3542TIP3    H232042   5.334   4.938  10.895 -0.2974  0.9371 -1.4395
 3543TIP3   OH232043   5.898   6.498  17.058  0.2013 -0.2678  0.5605
 3543TIP3    H132044   5.836   6.533  17.121 -1.9616  1.4603 -2.3631
 3543TIP3    H232045   5.889   6.403  17.064 -2.2112 -0.0517  0.7223
 3544TIP3   OH232046   6.155   3.943   2.394 -0.5342  0.7826 -0.2735
 3544TIP3    H132047   6.237   3.986   2.369  0.4229 -0.5502  0.5237
 3544TIP3    H232048   6.165   3.853   2.361 -0.7373 -0.0081  1.7726
 3545TIP3   OH232049   5.712   4.461  11.477 -0.2829  0.2980 -0.3290
 3545TIP3    H132050   5.675   4.532  11.529 -0.0844  0.1758 -0.0182
 3545TIP3    H232051   5.680   4.477  11.388 -0.9868  0.2583 -0.0873
 3546TIP3   OH232052   2.811   6.632  14.318 -0.1302 -0.6512  0.0952
 3546TIP3    H132053   2.851   6.558  14.363  0.0982  0.7556  2.2355
 3546TIP3    H232054   2.786   6.596  14.232  0.8851 -2.9256  0.7041
 3547TIP3   OH232055   4.624   4.451  15.251  0.1939  0.6587 -0.7838
 3547TIP3    H132056   4.545   4.397  15.245  0.7972 -0.3782  0.3605
 3547TIP3    H232057   4.628   4.478  15.342  1.5600  0.0700 -0.6539
 3548TIP3   OH232058   1.144   5.979  14.690 -0.3408  0.3811  0.0412
 3548TIP3    H132059   1.223   5.987  14.745  0.2765  0.2208 -0.8115
 3548TIP3    H232060   1.126   6.069  14.662  0.2585  0.2574 -0.7552
 3549TIP3   OH232061   4.087   1.381  13.301  0.4006  0.6432 -0.1285
 3549TIP3    H132062   4.085   1.286  13.298  2.0499  0.6276 -1.7503
 3549TIP3    H232063   4.120   1.402  13.388 -1.9524 -0.1804  1.0293
 3550TIP3   OH232064   5.074   5.346   2.683 -0.1079 -0.1624 -0.2078
 3550TIP3    H132065   5.076   5.274   2.620  0.5221 -0.0353 -0.3386
 3550TIP3    H232066   5.160   5.388   2.674  0.3098 -0.6498  1.3117
 3551TIP3   OH232067   2.791   4.666  10.584  0.1509  0.0347 -0.1508
 3551TIP3    H132068   2.759   4.712  10.506 -0.5464 -0.0324  0.0928
 3551TIP3    H232069   2.873   4.711  10.606  0.2459  0.1880 -0.7952
 3552TIP3   OH232070   5.186   1.876   2.777 -0.4284 -0.8043 -0.1374
 3552TIP3    H132071   5.091   1.863   2.774 -0.6102 -0.2210  2.0512
 3552TIP3    H232072   5.205   1.889   2.870  1.8616 -1.3092 -0.5133
 3553TIP3   OH232073   4.565   1.253   6.011  0.1879 -0.3996  0.1217
 3553TIP3    H132074   4.580   1.308   6.088  0.3062 -0.0257 -0.1657
 3553TIP3    H232075   4.474   1.225   6.018 -0.2495  0.8915 -0.4104
 3554TIP3   OH232076   1.997   2.703  12.235  0.2552  0.3832 -0.1994
 3554TIP3    H132077   1.955   2.775  12.282 -0.2325 -0.2835  0.3997
 3554TIP3    H232078   1.955   2.701  12.149  0.8277  1.3175 -0.5066
 3555TIP3   OH232079   6.185   2.434   1.166  0.2279  0.0484  0.1753
 3555TIP3    H132080   6.196   2.362   1.228 -0.2990  0.1710  0.4073
 3555TIP3    H232081   6.257   2.422   1.103  1.5116  0.6179  1.4852
 3556TIP3   OH232082   4.115   5.594   3.169 -0.5263 -0.4464 -0.4925
 3556TIP3    H132083   4.178   5.567   3.236 -0.5577 -1.0440 -0.6980
 3556TIP3    H232084   4.099   5.687   3.186 -2.6143 -1.2407  1.9977
 3557TIP3   OH232085   0.104   4.625   5.188 -0.2107  0.5313  0.2858
 3557TIP3    H132086   0.024   4.593   5.146  0.4341 -0.2584 -0.3487
 3557TIP3    H232087   0.095   4.599   5.279 -0.4900  0.0582  0.1272
 3558TIP3   OH232088   2.336   2.417  11.574  0.6064 -0.3357 -0.0929
 3558TIP3    H132089   2.353   2.510  11.585 -0.7765 -0.0556 -0.2417
 3558TIP3    H232090   2.407   2.374  11.621  0.1026  0.7918  1.7523
 3559TIP3   OH232091   3.800   3.182  15.541 -0.2073 -0.4442 -0.5756
 3559TIP3    H132092   3.758   3.266  15.521  1.5142  0.4309 -0.5675
 3559TIP3    H232093   3.735   3.134  15.593 -1.2707  0.7998 -0.7474
 3560TIP3   OH232094   4.751   2.464  15.097 -0.2108 -0.3181 -0.1861
 3560TIP3    H132095   4.711   2.385  15.060 -1.1958  0.1188 -0.0640
 3560TIP3    H232096   4.679   2.525  15.107  0.1346 -0.2142  1.9289
 3561TIP3   OH232097   6.736   5.303  14.035 -0.4403  0.4659 -0.4816
 3561TIP3    H132098   6.776   5.216  14.044 -1.0844  0.2086 -0.0810
 3561TIP3    H232099   6.750   5.325  13.943 -1.8349 -0.8508 -1.0339
 3562TIP3   OH232100   3.029   3.203  17.157 -0.6577  0.1238  0.2567
 3562TIP3    H132101   2.999   3.123  17.200 -0.5943  0.3950  0.8088
 3562TIP3    H232102   3.062   3.258  17.228  0.3728  0.1752 -0.2480
 3563TIP3   OH232103   0.260   3.508  11.668  0.4589 -0.3758  0.6676
 3563TIP3    H132104   0.254   3.550  11.582  1.3934  0.4742  1.0112
 3563TIP3    H232105   0.294   3.576  11.726 -1.2691 -0.5923  1.9746
 3564TIP3   OH232106   0.620   1.576  13.574  0.8458  0.3770  0.0945
 3564TIP3    H132107   0.644   1.510  13.509  3.2570  1.1963  0.1015
 3564TIP3    H232108   0.693   1.637  13.574 -0.7688  2.3704  1.0036
 3565TIP3   OH232109   5.799   2.740  10.519 -0.3942  0.2015 -0.1383
 3565TIP3    H132110   5.803   2.827  10.480 -0.7147  0.2934  0.0309
 3565TIP3    H232111   5.851   2.747  10.599 -1.5573  0.6161  0.5904
 3566TIP3   OH232112   0.429   0.668   4.737 -0.2972  0.1898 -0.2588
 3566TIP3    H132113   0.480   0.620   4.672  1.3759  1.5638 -0.0096
 3566TIP3    H232114   0.355   0.703   4.688 -0.0470 -0.3373 -1.0287
 3567TIP3   OH232115   1.597   4.892   3.543  0.6184  0.0607  0.4903
 3567TIP3    H132116   1.612   4.974   3.589  0.4443  0.3244  0.0788
 3567TIP3    H232117   1.589   4.826   3.613 -1.1560  0.6951  0.8950
 3568TIP3   OH232118   4.848   5.207   0.484  0.9362 -0.5565  0.4598
 3568TIP3    H132119   4.871   5.214   0.577 -2.4123 -0.4110  1.3380
 3568TIP3    H232120   4.857   5.296   0.450  0.1607 -0.1842  1.1873
 3569TIP3   OH232121   5.851   1.758  16.568 -0.7586 -0.0776 -0.1090
 3569TIP3    H132122   5.841   1.770  16.663  0.3343  2.8508 -0.2851
 3569TIP3    H232123   5.841   1.664  16.554  0.1300 -0.7096  3.0551
 3570TIP3   OH232124   4.271   3.833   0.084  0.0780  0.4252  0.1837
 3570TIP3    H132125   4.240   3.820  -0.005  0.1111 -1.0993  0.3841
 3570TIP3    H232126   4.277   3.928   0.094  2.5740  0.5737 -2.2901
 3571TIP3   OH232127   6.428   1.583  11.887  0.2372  0.5650 -0.0911
 3571TIP3    H132128   6.390   1.667  11.912 -2.5181 -0.4954 -0.4351
 3571TIP3    H232129   6.486   1.560  11.959  1.2004  2.8441 -0.1059
 3572TIP3   OH232130   1.216   2.060  11.380 -0.3100  0.4232  0.2841
 3572TIP3    H132131   1.137   2.009  11.361  0.4027 -0.6682  0.2023
 3572TIP3    H232132   1.195   2.149  11.350 -0.6845 -0.3674 -1.8709
 3573TIP3   OH232133   1.404   5.851   5.342 -0.0553 -0.5979  0.1467
 3573TIP3    H132134   1.383   5.860   5.434 -0.1637  0.0894  0.0519
 3573TIP3    H232135   1.403   5.756   5.327 -1.6999 -0.6407  0.4581
 3574TIP3   OH232136   5.902   0.955   3.896 -0.0557  0.0358  0.0433
 3574TIP3    H132137   5.974   0.892   3.889  0.8171  1.1376 -1.3424
 3574TIP3    H232138   5.945   1.041   3.887 -1.1649  0.8589  2.2810
 3575TIP3   OH232139   6.000   2.526   4.142  0.1662  0.4129 -0.3853
 3575TIP3    H132140   6.061   2.592   4.174 -0.5557 -0.7046  3.5574
 3575TIP3    H232141   5.915   2.553   4.178 -0.9420 -0.3548 -2.3156
 3576TIP3   OH232142   3.633   2.981   5.506 -0.2483  0.0001  0.0315
 3576TIP3    H132143   3.615   2.972   5.599  0.0824 -0.8276  0.0198
 3576TIP3    H232144   3.592   2.904   5.466  1.8744 -1.0622 -0.1789
 3577TIP3   OH232145   2.513   0.175   4.791  0.3698 -0.3289  0.1331
 3577TIP3    H132146   2.573   0.168   4.865 -0.8645 -3.1640  0.9226
 3577TIP3    H232147   2.442   0.115   4.812  0.2328 -1.6096 -3.5783
 3578TIP3   OH232148   3.398   5.639  14.673 -0.1614 -0.0987 -0.4054
 3578TIP3    H132149   3.450   5.558  14.673 -0.6619 -0.4369 -1.8302
 3578TIP3    H232150   3.308   5.609  14.672 -0.3854  0.4924  1.3936
 3579TIP3   OH232151   0.913   4.655  15.717  0.1838 -0.0382 -0.0575
 3579TIP3    H132152   0.978   4.724  15.709 -0.1897  0.2868 -0.3628
 3579TIP3    H232153   0.956   4.586  15.767  0.1313  0.9454  1.3614
 3580TIP3   OH232154   3.104   5.958   4.376 -0.4822 -0.4717  0.5999
 3580TIP3    H132155   3.040   6.005   4.323 -1.1802 -1.1733  0.8157
 3580TIP3    H232156   3.084   5.985   4.466  1.8937  2.1837  0.4075
 3581TIP3   OH232157   1.172   0.453   3.900  0.1396 -0.0606  1.0561
 3581TIP3    H132158   1.091   0.493   3.932 -1.6700 -1.9063 -1.0089
 3581TIP3    H232159   1.170   0.468   3.805  1.8636 -0.7778  0.8845
 3582TIP3   OH232160   6.320   3.278   2.919  0.4020  0.1531  0.0730
 3582TIP3    H132161   6.340   3.339   2.848  2.0063 -1.6702 -1.0888
 3582TIP3    H232162   6.403   3.233   2.935 -0.9985 -2.4485  0.1691
 3583TIP3   OH232163   3.393   2.016  15.670  0.3171 -0.0594 -0.4145
 3583TIP3    H132164   3.394   2.055  15.583  0.3396  0.7742 -0.0486
 3583TIP3    H232165   3.366   1.925  15.656  1.4515 -0.2472 -1.4109
 3584TIP3   OH232166   5.938   4.695   3.085  0.3778 -0.5381 -0.1880
 3584TIP3    H132167   5.957   4.602   3.087  0.8405 -0.4392  2.7372
 3584TIP3    H232168   6.010   4.734   3.035  2.0129 -1.4050  1.4416
 3585TIP3   OH232169   2.114   5.716   2.943 -0.3451  0.2732 -0.0789
 3585TIP3    H132170   2.095   5.652   2.874  0.1988 -0.3492  0.3448
 3585TIP3    H232171   2.134   5.797   2.896  2.0933 -0.6676 -0.7651
 3586TIP3   OH232172   6.086   1.629   3.199 -0.4181 -0.3116  0.3939
 3586TIP3    H132173   6.155   1.694   3.208 -0.1807 -0.4843 -0.1870
 3586TIP3    H232174   6.096   1.595   3.110 -1.6201  0.0946  0.0948
 3587TIP3   OH232175   0.855   1.371  15.857  0.6839 -0.2108  0.4602
 3587TIP3    H132176   0.790   1.306  15.830  0.1683 -0.4624  2.2258
 3587TIP3    H232177   0.825   1.400  15.943  1.0629  2.1816 -0.1977
 3588TIP3   OH232178   5.313   1.081  11.349 -0.1344  0.1051  0.1758
 3588TIP3    H132179   5.282   1.171  11.358  1.0187  0.5577 -0.3190
 3588TIP3    H232180   5.357   1.079  11.264  2.8130 -0.0058  1.6457
 3589TIP3   OH232181   2.531   2.144  12.815 -0.0417 -0.0239 -0.3655
 3589TIP3    H132182   2.590   2.194  12.871 -0.2887  0.8894 -0.9093
 3589TIP3    H232183   2.452   2.197  12.809 -1.3614 -1.7542  1.2450
 3590TIP3   OH232184   6.061   4.972  13.376  0.0762  0.3318 -0.0594
 3590TIP3    H132185   6.118   4.953  13.451  0.4365  0.6587 -0.2458
 3590TIP3    H232186   6.011   5.049  13.403  0.7155  0.8789 -0.4249
 3591TIP3   OH232187   1.178   1.077  14.855 -0.0555 -0.3541 -0.2406
 3591TIP3    H132188   1.185   1.111  14.945  0.3674  2.2861 -1.2381
 3591TIP3    H232189   1.253   1.116  14.809 -1.4345 -0.0383 -2.2455
 3592TIP3   OH232190   4.422   3.757   3.063 -0.6975  0.7475  0.3527
 3592TIP3    H132191   4.459   3.825   3.008 -0.2905 -1.0297 -1.6379
 3592TIP3    H232192   4.496   3.727   3.117  0.1541 -0.8927 -1.6652
 3593TIP3   OH232193   2.380   1.405   2.704  0.2510  0.3281  0.0841
 3593TIP3    H132194   2.342   1.490   2.682 -0.1648  0.1010 -0.0812
 3593TIP3    H232195   2.328   1.342   2.655 -0.2692 -0.1283  1.2140
 3594TIP3   OH232196   4.657   4.784  15.236 -0.5044 -0.0897 -0.1290
 3594TIP3    H132197   4.747   4.785  15.204 -0.9283 -0.0069 -1.3180
 3594TIP3    H232198   4.649   4.701  15.282  0.5246  0.4018  0.9822
 3595TIP3   OH232199   5.069   5.191  14.201 -0.1905 -0.1882 -0.5481
 3595TIP3    H132200   5.129   5.120  14.224  0.8750  0.9984  0.3826
 3595TIP3    H232201   4.990   5.175  14.253  0.0456 -0.6799 -0.3406
 3596TIP3   OH232202   6.231   4.538   3.745 -0.2001  0.0297  0.0803
 3596TIP3    H132203   6.154   4.546   3.689 -0.1700  1.1464  0.1999
 3596TIP3    H232204   6.198   4.502   3.827 -0.4082 -0.5745 -0.2609
 3597TIP3   OH232205   3.606   6.285  13.237 -0.3068 -0.1081 -0.2325
 3597TIP3    H132206   3.513   6.291  13.261 -0.2112 -1.0990  0.4358
 3597TIP3    H232207   3.650   6.346  13.296 -0.2703 -1.3282  1.0287
 3598TIP3   OH232208   6.672   1.082   1.627 -0.0327  0.2807 -0.3702
 3598TIP3    H132209   6.679   1.107   1.534  1.0773 -0.6068 -0.5462
 3598TIP3    H232210   6.723   1.001   1.633  0.7758  0.8954  1.2340
 3599TIP3   OH232211   0.398   3.636  12.508 -0.0128 -0.1137  0.3742
 3599TIP3    H132212   0.331   3.595  12.455 -0.6433  0.2952  0.8393
 3599TIP3    H232213   0.480   3.594  12.481 -0.4813 -0.7670 -0.0386
 3600TIP3   OH232214   6.138   6.103   2.612 -0.3118 -0.0764 -0.0914
 3600TIP3    H132215   6.102   6.020   2.582 -0.5253 -0.8828  2.3042
 3600TIP3    H232216   6.233   6.090   2.612 -0.2444  0.3856 -1.6957
 3601TIP3   OH232217   1.821   2.023   1.692 -0.4553 -0.0950 -0.0609
 3601TIP3    H132218   1.749   1.989   1.744  0.2670 -0.8471  0.4471
 3601TIP3    H232219   1.826   2.116   1.717 -0.5389 -0.2963  0.7051
 3602TIP3   OH232220   4.328   4.335  13.554  0.4358  0.4606  1.1078
 3602TIP3    H132221   4.315   4.296  13.640  0.6754 -0.2002  0.8487
 3602TIP3    H232222   4.395   4.281  13.513  0.0362  0.5283  0.3532
 3603TIP3   OH232223   2.692   5.805  14.373 -0.1200  0.0419 -0.5677
 3603TIP3    H132224   2.683   5.874  14.308  0.6705 -0.4030 -1.1611
 3603TIP3    H232225   2.786   5.795  14.385 -0.2686  0.1672  0.6970
 3604TIP3   OH232226   5.388   5.253  15.809  0.0894  0.5878  0.3583
 3604TIP3    H132227   5.330   5.279  15.881  0.7714 -2.4003  2.1160
 3604TIP3    H232228   5.476   5.263  15.845  0.4230 -1.3375  0.1589
 3605TIP3   OH232229   0.035   0.046  15.908  0.3510  0.1118 -0.4262
 3605TIP3    H132230   0.054   0.088  15.992  1.3689  0.7639 -0.9674
 3605TIP3    H232231  -0.026   0.105  15.864  0.7367  0.3528 -0.6341
 3606TIP3   OH232232   1.983   1.604  13.339  0.0438 -0.7104 -0.4042
 3606TIP3    H132233   1.915   1.654  13.383 -1.1593 -1.0608 -1.8286
 3606TIP3    H232234   1.982   1.518  13.382  0.5991 -0.2424  0.5551
 3607TIP3   OH232235   0.486   0.204   1.220 -0.3412  0.2589  0.7257
 3607TIP3    H132236   0.508   0.281   1.272  1.8161  0.8695 -1.0426
 3607TIP3    H232237   0.466   0.239   1.133  0.2955 -1.1384  0.0104
 3608TIP3   OH232238   2.111   5.957   1.408  0.0631  0.0216 -0.0445
 3608TIP3    H132239   2.046   5.929   1.344 -1.4816 -0.3946  1.6607
 3608TIP3    H232240   2.186   5.900   1.392 -0.6500 -0.7080 -0.8713
 3609TIP3   OH232241   6.074   1.977  16.634  0.2578 -0.2663 -0.4002
 3609TIP3    H132242   6.147   2.030  16.601  0.7838 -0.5645  0.2730
 3609TIP3    H232243   6.114   1.894  16.660 -0.0475  0.1492  1.4776
 3610TIP3   OH232244   2.043   4.336   0.420  0.5370  1.0159  0.1683
 3610TIP3    H132245   2.050   4.419   0.374  1.3578  0.2838 -1.0593
 3610TIP3    H232246   2.088   4.273   0.363 -0.6716 -0.3968  0.7433
 3611TIP3   OH232247   2.673   2.467  11.436  0.0434 -0.5968  0.1662
 3611TIP3    H132248   2.609   2.430  11.375  0.2730  0.1334 -0.5157
 3611TIP3    H232249   2.748   2.490  11.381  0.8930 -1.4304  0.9568
 3612TIP3   OH232250   6.602   2.865  13.819 -0.4156 -0.7129  0.5084
 3612TIP3    H132251   6.644   2.837  13.901 -0.5549 -2.0565  0.1400
 3612TIP3    H232252   6.554   2.787  13.789 -2.9158  0.6933  0.7422
 3613TIP3   OH232253   2.785   4.768   5.118 -0.6871 -0.2198 -0.4495
 3613TIP3    H132254   2.805   4.850   5.163  1.4457 -0.8017 -0.2711
 3613TIP3    H232255   2.732   4.718   5.180 -0.4159  0.2787  0.1901
 3614TIP3   OH232256   6.048   3.395   0.787  0.5807  0.6970  0.3797
 3614TIP3    H132257   6.033   3.342   0.865 -0.4384  0.4893  0.0506
 3614TIP3    H232258   6.072   3.333   0.719  0.8388  0.8091  0.3692
 3615TIP3   OH232259   4.825   3.460  15.071  0.0855 -0.0166 -0.2671
 3615TIP3    H132260   4.851   3.437  14.982  0.5412 -1.1127  0.1358
 3615TIP3    H232261   4.764   3.533  15.060 -2.3728 -2.1583 -1.7295
 3616TIP3   OH232262   0.524   2.888  16.795 -0.0697 -0.6019 -0.2592
 3616TIP3    H132263   0.499   2.963  16.849 -0.5931 -1.1450  0.2571
 3616TIP3    H232264   0.547   2.820  16.858  1.8950 -0.3976 -0.7230
 3617TIP3   OH232265   5.344   2.241  14.392  0.0122  0.1419  0.2832
 3617TIP3    H132266   5.367   2.306  14.459 -2.3196  0.3524  0.9231
 3617TIP3    H232267   5.353   2.288  14.309 -1.3167  1.1968  0.7243
 3618TIP3   OH232268   0.661   5.653   1.410  0.5332 -0.2111  0.0576
 3618TIP3    H132269   0.631   5.579   1.462  1.8369 -0.0466  1.0524
 3618TIP3    H232270   0.581   5.687   1.369 -0.1235 -1.9390 -0.1474
 3619TIP3   OH232271   1.854   1.857   0.816  0.0122 -0.1649  0.1475
 3619TIP3    H132272   1.829   1.909   0.892  0.0058 -2.0898  1.4790
 3619TIP3    H232273   1.949   1.860   0.814 -0.0259  0.8004 -0.4265
 3620TIP3   OH232274   3.086   5.602  14.629 -0.0191 -0.4263  0.1184
 3620TIP3    H132275   3.037   5.520  14.626 -2.3033  0.9495 -1.3482
 3620TIP3    H232276   3.022   5.667  14.659  1.5679  0.9656  0.5377
 3621TIP3   OH232277   4.869   0.447   4.669 -0.2251  0.0930  0.0146
 3621TIP3    H132278   4.946   0.420   4.721 -0.1234 -0.7024 -0.5381
 3621TIP3    H232279   4.814   0.368   4.666 -0.8104  0.5039 -0.0476
 3622TIP3   OH232280   2.228   1.691  13.493  0.0799  0.1040 -0.2925
 3622TIP3    H132281   2.220   1.637  13.571 -0.3756  0.4280 -0.1146
 3622TIP3    H232282   2.140   1.693  13.456  0.2047  0.2955 -0.5849
 3623TIP3   OH232283   2.520   1.264   2.422 -0.7912  0.0520  0.5129
 3623TIP3    H132284   2.527   1.359   2.431  2.5449 -0.1809  0.6657
 3623TIP3    H232285   2.442   1.251   2.368 -0.2040  2.9549 -1.1247
 3624TIP3   OH232286   2.199   4.209   2.587 -0.6849 -0.1322  0.2787
 3624TIP3    H132287   2.175   4.272   2.519  0.2663  1.2019  1.1823
 3624TIP3    H232288   2.271   4.159   2.548  0.8513  1.6106  0.8491
 3625TIP3   OH232289   0.859   2.385   2.156  0.0669 -0.1699 -0.7713
 3625TIP3    H132290   0.822   2.459   2.108 -0.5637  0.4756  0.7040
 3625TIP3    H232291   0.921   2.424   2.218 -0.1394 -0.8818 -0.1056
 3626TIP3   OH232292   5.759   6.643  10.969 -0.2273  0.6480  0.6237
 3626TIP3    H132293   5.854   6.643  10.981 -0.1548  2.6749  0.2743
 3626TIP3    H232294   5.742   6.571  10.907  1.1339  0.6428  0.2499
 3627TIP3   OH232295   5.925   3.114   0.394 -0.5501 -0.3991  0.2589
 3627TIP3    H132296   5.971   3.035   0.364 -0.3259  0.3527 -1.4365
 3627TIP3    H232297   5.872   3.084   0.467  2.7314 -1.2926  2.4041
 3628TIP3   OH232298   3.931   1.036  16.552 -0.0660 -0.0815 -0.5080
 3628TIP3    H132299   4.009   1.021  16.499 -0.5215  2.2026 -1.9232
 3628TIP3    H232300   3.866   0.975  16.517  0.3244 -0.2042 -1.0179
 3629TIP3   OH232301   5.825   4.272   1.866  0.0138 -0.2400 -0.2541
 3629TIP3    H132302   5.913   4.304   1.846 -0.8117  1.9634 -0.5064
 3629TIP3    H232303   5.836   4.224   1.948  1.5277 -0.4032 -0.5288
 3630TIP3   OH232304   6.552   1.457   4.786  0.3090  0.1744  0.5294
 3630TIP3    H132305   6.532   1.364   4.795  1.5016 -0.2577 -1.1140
 3630TIP3    H232306   6.495   1.500   4.850 -2.8917 -1.3774 -1.1466
 3631TIP3   OH232307   0.147   0.345  14.771 -0.1484  0.0965 -0.4843
 3631TIP3    H132308   0.065   0.370  14.729 -0.1537 -0.8804 -1.0870
 3631TIP3    H232309   0.125   0.268  14.823  0.3145  0.0227 -0.3952
 3632TIP3   OH232310   0.070   6.503  11.556  0.4849  0.4259 -0.2807
 3632TIP3    H132311   0.074   6.554  11.475 -1.4590 -0.5268 -0.9981
 3632TIP3    H232312   0.134   6.433  11.544 -0.2543 -0.0937 -1.2937
 3633TIP3   OH232313   1.677   5.257  15.034 -0.2032  0.4010  0.2117
 3633TIP3    H132314   1.730   5.253  14.954 -1.4392 -1.2634 -0.5555
 3633TIP3    H232315   1.586   5.255  15.003 -0.6962 -1.7293  1.6777
 3634TIP3   OH232316   2.213   5.617  11.170  0.1402  0.1238 -0.0529
 3634TIP3    H132317   2.275   5.643  11.102  1.9322 -0.8176  1.1774
 3634TIP3    H232318   2.254   5.542  11.213  0.2883  2.1872  3.7111
 3635TIP3   OH232319   6.261   6.550  10.335  0.3483 -0.2366 -0.0258
 3635TIP3    H132320   6.329   6.595  10.384 -0.3200 -0.9349  1.5513
 3635TIP3    H232321   6.301   6.531  10.250  1.4784  1.0316  0.2123
 3636TIP3   OH232322   5.892   5.224  12.337 -0.0407 -0.0570  0.2301
 3636TIP3    H132323   5.891   5.294  12.401 -0.0836  1.1817 -1.1034
 3636TIP3    H232324   5.976   5.180  12.350 -0.5277 -0.5232  1.8687
 3637TIP3   OH232325   1.250   1.042   5.737 -0.4713  0.4243  0.3460
 3637TIP3    H132326   1.234   0.998   5.821 -1.6010 -0.0798 -0.1233
 3637TIP3    H232327   1.312   0.986   5.692  0.9112  1.2045  1.2404
 3638TIP3   OH232328   0.006   5.902   4.405 -0.0511 -0.0596  0.4958
 3638TIP3    H132329  -0.018   5.863   4.489 -1.1936  0.5960  0.4835
 3638TIP3    H232330   0.037   5.990   4.426  1.2060 -0.4591  0.3811
 3639TIP3   OH232331   1.028   3.492  16.992 -0.3049 -0.2834  0.5995
 3639TIP3    H132332   0.937   3.505  17.020  0.0335  0.6220  1.3098
 3639TIP3    H232333   1.076   3.475  17.073  0.4483  0.9883  0.4372
 3640TIP3   OH232334   0.647   0.675   0.964  0.1658  0.1441 -0.0241
 3640TIP3    H132335   0.712   0.745   0.973 -1.4503  1.5351  1.0550
 3640TIP3    H232336   0.565   0.715   0.992 -0.8257 -2.1258  0.3797
 3641TIP3   OH232337   1.711   4.827   2.468 -0.0570 -0.1593 -0.4757
 3641TIP3    H132338   1.794   4.866   2.495 -1.2435  0.9475  1.6354
 3641TIP3    H232339   1.653   4.901   2.455 -1.2433 -1.0281 -0.1636
 3642TIP3   OH232340   5.851   4.777  15.897 -0.2898 -0.0413 -0.0274
 3642TIP3    H132341   5.918   4.721  15.938 -0.2363  0.2806  0.3293
 3642TIP3    H232342   5.843   4.851  15.957  1.8198  1.8484 -1.9976
 3643TIP3   OH232343   1.806   1.015  12.829  0.5658  0.4338 -0.1250
 3643TIP3    H132344   1.790   0.935  12.880 -0.8857 -0.6202 -2.1461
 3643TIP3    H232345   1.725   1.066  12.840  0.7446  0.7632 -0.3375
 3644TIP3   OH232346   0.905   4.160   3.878  0.0832 -0.5925  0.2805
 3644TIP3    H132347   0.917   4.080   3.827 -2.2194  0.4063 -1.9789
 3644TIP3    H232348   0.966   4.223   3.839 -2.4077  0.4812 -2.0973
 3645TIP3   OH232349   5.680   1.298  10.503  0.1498 -0.8064 -0.7821
 3645TIP3    H132350   5.609   1.234  10.507 -1.4287  0.9219 -0.2432
 3645TIP3    H232351   5.760   1.246  10.511 -1.1343 -2.5246  1.5352
 3646TIP3   OH232352   3.673   5.548  12.622  0.1631 -0.6883  0.2011
 3646TIP3    H132353   3.674   5.491  12.699 -1.5538  2.3653  2.6005
 3646TIP3    H232354   3.582   5.543  12.591  0.3956 -0.4523 -0.5077
 3647TIP3   OH232355   5.258   6.374  16.455 -0.6235 -0.1314 -0.2485
 3647TIP3    H132356   5.296   6.293  16.420 -0.4715  0.6042 -1.8491
 3647TIP3    H232357   5.300   6.444  16.404  0.2242  1.0503  2.0273
 3648TIP3   OH232358   0.466   6.565   6.348 -0.7582 -0.2162 -0.0119
 3648TIP3    H132359   0.465   6.612   6.431  0.2025 -0.6589  0.2588
 3648TIP3    H232360   0.450   6.474   6.372 -1.5517 -0.1877 -0.4227
 3649TIP3   OH232361   2.093   6.014  17.152  0.2686 -0.5563  0.1394
 3649TIP3    H132362   2.016   5.958  17.144 -0.1866  0.1051 -0.1751
 3649TIP3    H232363   2.125   6.024  17.063  0.0505  0.0847  0.1257
 3650TIP3   OH232364   2.797   3.249  12.684  0.1651 -0.3469 -0.1319
 3650TIP3    H132365   2.858   3.268  12.755  0.3368  0.7227 -0.5577
 3650TIP3    H232366   2.712   3.280  12.717 -0.1886 -1.9887  0.5296
 3651TIP3   OH232367   4.636   6.177  12.653  0.2258  0.7005  0.0546
 3651TIP3    H132368   4.579   6.204  12.724 -1.7691  0.1637 -1.3114
 3651TIP3    H232369   4.581   6.125  12.595  1.6563  1.5195 -2.1434
 3652TIP3   OH232370   3.429   3.246   2.680  0.4778 -0.3128  0.3444
 3652TIP3    H132371   3.459   3.187   2.610  0.1548 -1.6272  1.2882
 3652TIP3    H232372   3.346   3.282   2.647  1.5621  0.9999 -0.9915
 3653TIP3   OH232373   2.187   2.872  11.085 -0.0627  0.4993  0.3077
 3653TIP3    H132374   2.271   2.915  11.102 -0.6294  2.3568 -1.3632
 3653TIP3    H232375   2.136   2.888  11.164  0.7576  0.3913  0.8597
 3654TIP3   OH232376   1.240   3.456  12.503 -0.2182 -0.4616  0.3065
 3654TIP3    H132377   1.324   3.420  12.532  0.4948  0.7879 -0.1516
 3654TIP3    H232378   1.209   3.394  12.437  1.0101 -0.2399 -0.4937
 3655TIP3   OH232379   6.651   3.986  14.827 -0.0014 -0.4500  0.4292
 3655TIP3    H132380   6.574   4.037  14.852  0.5428  0.1908  0.8253
 3655TIP3    H232381   6.620   3.929  14.756 -0.1006  2.0039 -1.5644
 3656TIP3   OH232382   0.932   3.899   2.052  0.1943  0.6010  0.1658
 3656TIP3    H132383   0.936   3.864   2.141  1.5835  0.0677 -0.1008
 3656TIP3    H232384   0.847   3.869   2.019  0.1453 -0.1146  0.9307
 3657TIP3   OH232385   3.404   5.017   3.855 -0.2324 -0.4532  0.4782
 3657TIP3    H132386   3.446   4.938   3.821 -1.3312 -0.8660  0.0559
 3657TIP3    H232387   3.445   5.031   3.940  1.8799  0.0572 -0.6085
 3658TIP3   OH232388   0.955   0.192  16.566 -0.3128  0.7115 -0.2366
 3658TIP3    H132389   1.009   0.261  16.528 -1.3803  1.0650 -1.1350
 3658TIP3    H232390   0.871   0.233  16.583 -0.6985 -0.1494 -0.0073
 3659TIP3   OH232391   1.862   5.108  12.103 -0.6079 -0.4098 -0.1108
 3659TIP3    H132392   1.913   5.064  12.034 -0.2252  0.0447 -0.1174
 3659TIP3    H232393   1.843   5.038  12.166 -2.1923 -1.1559 -1.3615
 3660TIP3   OH232394   1.284   6.241  14.043  0.1077  0.0581  0.4883
 3660TIP3    H132395   1.309   6.308  14.107  1.3239 -0.4126  0.5184
 3660TIP3    H232396   1.233   6.178  14.093 -1.3387  1.1400  0.3861
 3661TIP3   OH232397   3.554   2.232   1.662 -0.2203 -0.3135  0.5053
 3661TIP3    H132398   3.553   2.169   1.590 -0.7344  0.5899 -0.2991
 3661TIP3    H232399   3.463   2.261   1.668 -0.1735 -0.3778  1.5197
 3662TIP3   OH232400   4.827   2.460   2.157  0.2732 -0.0287  0.4376
 3662TIP3    H132401   4.803   2.461   2.250 -0.6539 -0.0704  0.1975
 3662TIP3    H232402   4.749   2.489   2.111 -0.3981 -3.2381 -0.5918
 3663TIP3   OH232403   0.485   1.874  11.310 -0.4255  0.3400  0.0317
 3663TIP3    H132404   0.403   1.844  11.270  0.3162  0.0719 -1.2957
 3663TIP3    H232405   0.548   1.876  11.238  0.9781 -0.3512  1.2107
 3664TIP3   OH232406   0.723   6.516  17.075 -0.0352 -0.4696 -0.0209
 3664TIP3    H132407   0.670   6.523  16.996  2.0561  1.5593 -1.2963
 3664TIP3    H232408   0.771   6.598  17.080  2.0354 -1.7255  1.7876
 3665TIP3   OH232409   0.533   0.079  12.500 -0.3449  0.2583  0.1720
 3665TIP3    H132410   0.592   0.115  12.434 -1.1699  0.9573 -0.2067
 3665TIP3    H232411   0.588   0.024  12.556  0.3994 -0.1759 -0.9775
 3666TIP3   OH232412   1.299   2.250   4.946 -0.9263  0.4407 -0.0334
 3666TIP3    H132413   1.235   2.232   5.015 -0.3884  1.5314  0.7609
 3666TIP3    H232414   1.265   2.327   4.901 -1.6773 -0.7351 -1.4920
 3667TIP3   OH232415   1.081   1.445   3.126 -0.1573  0.7632  0.2700
 3667TIP3    H132416   1.033   1.413   3.050  0.5205 -1.6263  0.7872
 3667TIP3    H232417   1.033   1.411   3.201  0.5976  0.9610  0.8496
 3668TIP3   OH232418   5.597   1.105   2.225 -0.0965 -0.1418 -0.8167
 3668TIP3    H132419   5.613   1.156   2.304 -0.8703  3.0579 -2.6659
 3668TIP3    H232420   5.506   1.074   2.234 -0.1208  0.0524 -0.3875
 3669TIP3   OH232421   2.605   2.213   0.456 -0.4747 -0.3818  0.4129
 3669TIP3    H132422   2.673   2.268   0.496 -0.3619  1.7675 -2.5610
 3669TIP3    H232423   2.538   2.204   0.524  1.3061  0.1415  2.2955
 3670TIP3   OH232424   2.921   2.804  14.976  0.1502 -0.1336 -0.1990
 3670TIP3    H132425   2.844   2.848  14.939  1.0107  2.1818  0.6278
 3670TIP3    H232426   2.891   2.770  15.060  0.2085  1.4702  0.4905
 3671TIP3   OH232427   2.451   2.278   1.108 -0.2916  0.1331 -0.7085
 3671TIP3    H132428   2.460   2.250   1.199  1.1102  0.6968 -0.6631
 3671TIP3    H232429   2.382   2.222   1.073 -0.5962 -0.3378  0.5992
 3672TIP3   OH232430   1.202   3.922   2.394  0.1191  0.3670 -0.3456
 3672TIP3    H132431   1.152   4.003   2.381 -1.0800 -0.4100 -0.6930
 3672TIP3    H232432   1.183   3.869   2.316  0.5406 -0.4205  0.0797
 3673TIP3   OH232433   0.617   3.461  15.733 -0.4853  0.6152 -0.0068
 3673TIP3    H132434   0.664   3.397  15.787 -1.8940  0.4833  1.0768
 3673TIP3    H232435   0.653   3.545  15.760  0.5632  0.3812 -0.6284
 3674TIP3   OH232436   6.551   5.555  11.328 -0.2926 -0.2174  0.3828
 3674TIP3    H132437   6.552   5.544  11.232 -0.1438  0.9095  0.2452
 3674TIP3    H232438   6.597   5.478  11.361  0.1799 -0.3212 -0.4914
 3675TIP3   OH232439   0.895   1.286  16.720  0.6464  0.1486 -0.2479
 3675TIP3    H132440   0.990   1.290  16.725  0.8841 -0.9105 -3.2529
 3675TIP3    H232441   0.866   1.377  16.724  1.8553  0.5476 -0.6297
 3676TIP3   OH232442   1.555   5.341   0.316  0.4692 -0.5255  0.3769
 3676TIP3    H132443   1.534   5.249   0.297 -0.1044 -0.0464 -1.4582
 3676TIP3    H232444   1.470   5.384   0.325  0.7371 -0.2265  1.6142
 3677TIP3   OH232445   2.272   0.622   0.400 -0.1627 -0.3118  0.0657
 3677TIP3    H132446   2.260   0.691   0.335  2.7750  0.4548  0.3012
 3677TIP3    H232447   2.209   0.643   0.469 -1.0617  0.6713 -1.0322
 3678TIP3   OH232448   0.847   1.852  13.335 -0.0561 -0.0820  0.1031
 3678TIP3    H132449   0.837   1.817  13.423  0.2009  1.3026  0.6983
 3678TIP3    H232450   0.894   1.784  13.286  0.2969 -0.6161  1.1830
 3679TIP3   OH232451   2.003   1.117   1.046 -0.2486 -0.2018 -0.1297
 3679TIP3    H132452   2.030   1.158   0.964  2.3925 -1.9554 -0.1976
 3679TIP3    H232453   1.909   1.103   1.036 -0.5148  2.3470 -1.5975
 3680TIP3   OH232454   0.776   5.821   1.173 -0.1258  0.0979  0.1492
 3680TIP3    H132455   0.694   5.849   1.213  0.2114  3.0494 -1.1326
 3680TIP3    H232456   0.763   5.833   1.079  1.6742  0.3511 -0.1007
 3681TIP3   OH232457   2.463   0.831   2.794 -0.0376 -0.3215 -0.4026
 3681TIP3    H132458   2.493   0.746   2.826  0.4651 -0.9809 -2.5843
 3681TIP3    H232459   2.464   0.823   2.699 -2.1216  1.4082 -0.5921
 3682TIP3   OH232460   1.550   4.946  10.875 -0.2780  0.2613  0.1430
 3682TIP3    H132461   1.500   5.025  10.898 -2.1977 -1.8922  3.9511
 3682TIP3    H232462   1.489   4.895  10.821  0.6979  1.0115 -1.7045
 3683TIP3   OH232463   0.030   2.549  14.175 -0.6540  0.3508  0.3099
 3683TIP3    H132464  -0.009   2.634  14.156 -1.5215 -0.3799 -1.3430
 3683TIP3    H232465   0.015   2.498  14.095 -0.8574 -1.6042  1.5694
 3684TIP3   OH232466   4.915   2.686   6.704  0.1883 -0.1838  0.3797
 3684TIP3    H132467   4.986   2.705   6.765 -0.4605  0.9090  0.8046
 3684TIP3    H232468   4.932   2.597   6.675  1.5442 -0.0549  0.7386
 3685TIP3   OH232469   1.545   6.418   5.936 -1.2590  0.2065 -0.2561
 3685TIP3    H132470   1.500   6.338   5.962 -0.4619 -0.1115  0.1485
 3685TIP3    H232471   1.480   6.465   5.882 -1.5467 -0.9581 -0.9559
 3686TIP3   OH232472   5.250   5.861  14.151 -0.3782  0.3344 -0.0608
 3686TIP3    H132473   5.207   5.906  14.078 -2.3110 -1.6805 -0.2161
 3686TIP3    H232474   5.186   5.864  14.222  1.0418  1.2668  1.2241
 3687TIP3   OH232475   4.989   3.317   0.156  0.6258  0.2280 -0.8454
 3687TIP3    H132476   5.066   3.353   0.200 -0.4360  0.7219  0.6622
 3687TIP3    H232477   4.947   3.392   0.114  1.1126 -0.0831 -1.8828
 3688TIP3   OH232478   1.860   6.634   2.822  0.4051  0.2026 -0.4499
 3688TIP3    H132479   1.917   6.629   2.898  1.6385 -1.2319 -1.4376
 3688TIP3    H232480   1.919   6.660   2.750 -0.8082  1.9386 -0.8534
 3689TIP3   OH232481   1.586   4.353   1.958  0.0801 -0.0074 -0.5893
 3689TIP3    H132482   1.577   4.264   1.925  1.8829 -0.8062  0.9632
 3689TIP3    H232483   1.642   4.344   2.035 -1.5394  2.1806  0.8908
 3690TIP3   OH232484   4.506   0.597   3.496  0.2919 -0.1582 -0.0704
 3690TIP3    H132485   4.461   0.596   3.411 -0.4224  0.2187  0.2973
 3690TIP3    H232486   4.576   0.661   3.485 -0.3848  0.5945 -0.0944
 3691TIP3   OH232487   5.762   5.636   4.967 -0.0290 -0.6483 -0.3167
 3691TIP3    H132488   5.748   5.556   5.018 -0.9335 -0.8209 -0.8199
 3691TIP3    H232489   5.857   5.648   4.966  0.0288 -0.9830  0.8761
 3692TIP3   OH232490   3.951   0.327  16.502  0.0125 -0.0596  0.0915
 3692TIP3    H132491   3.961   0.235  16.524 -1.6086 -0.4495 -0.7498
 3692TIP3    H232492   3.873   0.331  16.446  0.2948  1.7570 -0.2262
 3693TIP3   OH232493   6.581   4.841  12.596 -0.1305 -0.6186 -0.4228
 3693TIP3    H132494   6.602   4.747  12.596  1.3739 -0.2988 -1.0939
 3693TIP3    H232495   6.593   4.868  12.505 -0.8550  0.1710 -0.2848
 3694TIP3   OH232496   4.687   4.264   1.448 -0.0312 -0.2521 -0.2873
 3694TIP3    H132497   4.636   4.335   1.486  0.4809  0.4486 -0.8962
 3694TIP3    H232498   4.754   4.308   1.395 -0.4363 -1.1854 -1.5966
 3695TIP3   OH232499   5.588   6.058   5.546  0.6291  0.4491  0.4276
 3695TIP3    H132500   5.605   6.152   5.557  1.5040  0.3679 -0.1027
 3695TIP3    H232501   5.500   6.045   5.581 -0.0059  1.7040 -0.6122
 3696TIP3   OH232502   3.243   3.328   3.216 -0.1389 -0.1487 -0.0325
 3696TIP3    H132503   3.308   3.398   3.213 -0.2366  0.0245  1.3859
 3696TIP3    H232504   3.294   3.248   3.227 -0.1626  0.0484  1.7189
 3697TIP3   OH232505   1.114   3.716  14.419  0.6133  0.3515 -0.2074
 3697TIP3    H132506   1.041   3.777  14.403  0.3735  0.1277  0.0312
 3697TIP3    H232507   1.084   3.633  14.383  0.9480  0.3755 -0.5449
 3698TIP3   OH232508   0.295   0.581   0.194 -0.0083  0.5821 -0.8734
 3698TIP3    H132509   0.318   0.579   0.101 -2.1732  0.4182 -1.4225
 3698TIP3    H232510   0.210   0.538   0.199  0.0659  0.6357  1.1882
 3699TIP3   OH232511   1.957   5.468  11.306 -0.4547 -0.4579  0.2346
 3699TIP3    H132512   2.035   5.428  11.343 -1.5294 -0.8462  2.0964
 3699TIP3    H232513   1.959   5.558  11.338 -0.6925 -0.4195  0.1415
 3700TIP3   OH232514   0.373   0.351  14.240  0.2385  0.2660 -0.2796
 3700TIP3    H132515   0.348   0.286  14.306 -0.2659  0.8533  0.1072
 3700TIP3    H232516   0.378   0.301  14.158  0.7412 -0.4369  0.1753
 3701TIP3   OH232517   2.492   4.587  12.955  0.6692 -0.2112  0.6687
 3701TIP3    H132518   2.560   4.646  12.986  1.7353 -0.5926 -0.8969
 3701TIP3    H232519   2.518   4.564  12.866 -0.6382 -1.6819  0.6360
 3702TIP3   OH232520   3.749   4.273   5.559  0.2063 -0.6039  0.5874
 3702TIP3    H132521   3.829   4.296   5.605 -1.1218  0.2868  2.5499
 3702TIP3    H232522   3.703   4.213   5.619 -0.3813 -1.4861 -0.7075
 3703TIP3   OH232523   3.377   5.736  14.378 -0.5947 -0.2911  0.2734
 3703TIP3    H132524   3.434   5.668  14.344 -0.5311 -0.4472  0.7000
 3703TIP3    H232525   3.360   5.711  14.469 -1.5258 -0.3722  0.0821
 3704TIP3   OH232526   6.085   2.244  16.247 -0.8371 -0.5813  0.2361
 3704TIP3    H132527   6.025   2.284  16.185  0.5215  0.1721 -0.6084
 3704TIP3    H232528   6.099   2.311  16.315  0.7105  0.0650 -0.6937
 3705TIP3   OH232529   3.065   4.258   2.102 -0.9380 -0.0081  0.7428
 3705TIP3    H132530   3.075   4.343   2.146 -0.3808  0.5754 -0.5024
 3705TIP3    H232531   2.985   4.267   2.050 -0.8171 -0.2114  0.5215
 3706TIP3   OH232532   3.719   6.622   5.200  0.0286 -0.2972 -0.0529
 3706TIP3    H132533   3.648   6.568   5.165  0.2859 -0.2210 -0.7043
 3706TIP3    H232534   3.709   6.707   5.156 -1.5721  0.8535  2.4284
 3707TIP3   OH232535   2.228   5.092  15.923 -0.2158  0.4929 -0.0084
 3707TIP3    H132536   2.184   5.098  15.838 -1.2215  2.4067  0.6149
 3707TIP3    H232537   2.313   5.052  15.903 -0.8138  0.0659 -1.7755
 3708TIP3   OH232538   0.559   4.037   0.083  0.0202 -0.0591 -0.0116
 3708TIP3    H132539   0.534   4.087   0.006 -1.3130  0.6369  0.8444
 3708TIP3    H232540   0.476   4.005   0.119  0.4628  0.8646  1.9393
 3709TIP3   OH232541   5.034   5.702   2.015 -0.1781 -0.1794  0.6411
 3709TIP3    H132542   5.046   5.693   2.109  0.4464 -0.1136  0.5695
 3709TIP3    H232543   5.092   5.637   1.977 -1.1370 -0.8656  0.3206
 3710TIP3   OH232544   0.867   3.097  12.460 -0.4142  0.1417 -0.0749
 3710TIP3    H132545   0.783   3.051  12.457 -0.2209 -0.2010 -0.3147
 3710TIP3    H232546   0.902   3.079  12.547 -0.6246  0.3440  0.0487
 3711TIP3   OH232547   3.590   0.466   2.573 -0.3151 -0.0757  0.0109
 3711TIP3    H132548   3.685   0.460   2.558 -0.2056  0.3292  0.5320
 3711TIP3    H232549   3.581   0.529   2.644 -0.8350 -1.7268  1.4506
 3712TIP3   OH232550   1.430   1.855  17.071 -0.3797 -0.7366 -0.2368
 3712TIP3    H132551   1.491   1.801  17.020  1.7601 -1.1763  2.6469
 3712TIP3    H232552   1.485   1.924  17.108 -2.0480  0.1016  0.7315
 3713TIP3   OH232553   0.006   6.777   1.652  0.3521  0.3288  0.1722
 3713TIP3    H132554   0.067   6.740   1.717  1.5218  0.3870 -0.8661
 3713TIP3    H232555  -0.017   6.863   1.686  1.4774  0.6251  0.1942
 3714TIP3   OH232556   1.592   4.566   5.483 -0.7456  0.5066 -0.5849
 3714TIP3    H132557   1.610   4.601   5.396 -1.0165  0.2131 -0.7632
 3714TIP3    H232558   1.623   4.475   5.479  0.9439  1.0285  0.2108
 3715TIP3   OH232559   4.223   3.007   2.010  0.0573 -0.2504  0.5504
 3715TIP3    H132560   4.209   2.983   1.918 -2.4056 -0.2963  0.9055
 3715TIP3    H232561   4.314   3.035   2.013 -0.3121  1.4900 -2.3060
 3716TIP3   OH232562   1.091   4.126   3.368 -0.0107 -0.5259  0.2215
 3716TIP3    H132563   1.012   4.179   3.356  0.4745 -0.0397 -0.8883
 3716TIP3    H232564   1.061   4.036   3.357 -0.5803 -0.4054  0.7306
 3717TIP3   OH232565   4.655   1.397   4.677 -0.1223 -0.4396  0.2883
 3717TIP3    H132566   4.635   1.342   4.601 -1.1311 -1.9874  1.6674
 3717TIP3    H232567   4.694   1.338   4.741  1.5875  1.0445  0.6487
 3718TIP3   OH232568   0.346   0.684  14.014 -0.4570 -0.0965 -0.3129
 3718TIP3    H132569   0.339   0.779  14.015 -0.4532 -0.0563  2.7371
 3718TIP3    H232570   0.281   0.654  13.951 -3.2035  1.7656  1.5727
 3719TIP3   OH232571   3.981   0.432   0.434  0.0369 -0.3001 -0.6584
 3719TIP3    H132572   3.920   0.472   0.496  0.1910  0.9140 -1.2740
 3719TIP3    H232573   4.051   0.397   0.488 -1.1188 -1.5743  0.0509
 3720TIP3   OH232574   3.176   4.601  16.182 -0.5426 -0.0566  0.1424
 3720TIP3    H132575   3.233   4.675  16.165  0.1215 -0.6891 -0.3731
 3720TIP3    H232576   3.235   4.528  16.202 -1.1248 -0.9904 -1.4765
 3721TIP3   OH232577   0.590   5.300   2.774 -0.4908 -0.3905  0.1982
 3721TIP3    H132578   0.551   5.387   2.780  4.0804  1.6613  2.3435
 3721TIP3    H232579   0.639   5.302   2.692 -0.0101 -0.7873  0.4759
 3722TIP3   OH232580   2.580   1.382   2.932  0.1588  0.4750  0.0133
 3722TIP3    H132581   2.509   1.408   2.873 -1.1242  0.2318  1.4299
 3722TIP3    H232582   2.607   1.296   2.900  0.5423  1.0301 -1.1764
 3723TIP3   OH232583   4.785   0.061   5.300  0.1434  0.6816  0.1528
 3723TIP3    H132584   4.759  -0.029   5.281 -0.0808  1.2136 -2.1657
 3723TIP3    H232585   4.866   0.052   5.351 -2.5052 -0.8952  4.3837
 3724TIP3   OH232586   4.345   5.204   5.490 -0.3463 -0.3247  0.0045
 3724TIP3    H132587   4.372   5.162   5.408 -1.1449  0.1759 -0.5241
 3724TIP3    H232588   4.284   5.273   5.462  0.4223  0.7255  0.9186
 3725TIP3   OH232589   5.666   6.573   3.822 -0.3254 -0.0031 -0.0120
 3725TIP3    H132590   5.747   6.580   3.773 -0.4812 -2.2297 -0.6507
 3725TIP3    H232591   5.674   6.637   3.893  0.2887  2.6012 -2.3605
 3726TIP3   OH232592   6.449   1.076  11.263 -0.6570 -0.7984  0.1667
 3726TIP3    H132593   6.403   1.145  11.216  0.1554  0.0600  0.6104
 3726TIP3    H232594   6.536   1.073  11.223 -0.7516 -1.7180  0.0025
 3727TIP3   OH232595   6.507   1.978  14.699 -0.1843 -0.3751 -0.5103
 3727TIP3    H132596   6.501   2.022  14.614  0.8831  0.3522 -0.2291
 3727TIP3    H232597   6.542   1.891  14.679 -0.9866 -0.6061 -0.9274
 3728TIP3   OH232598   0.282   6.045  12.177 -0.3234  0.2750 -0.2049
 3728TIP3    H132599   0.367   6.042  12.222  0.7334  2.3829 -1.9314
 3728TIP3    H232600   0.277   6.135  12.143 -4.0474  0.7631  1.3368
 3729TIP3   OH232601   3.980   4.557   2.458 -0.0465 -0.6929 -0.5450
 3729TIP3    H132602   4.013   4.482   2.408 -1.2944 -1.5495 -0.1253
 3729TIP3    H232603   3.916   4.597   2.399 -0.5089 -0.8804 -0.1669
 3730TIP3   OH232604   1.982   0.517  13.318 -0.0478 -0.3070  0.0776
 3730TIP3    H132605   1.976   0.501  13.412 -1.0229 -0.1476  0.0484
 3730TIP3    H232606   1.932   0.445  13.278  1.8457 -1.3844 -0.4035
 3731TIP3   OH232607   0.417   4.553   3.886  0.3880 -0.3769  0.0164
 3731TIP3    H132608   0.400   4.462   3.909 -1.5574  0.2866  1.3736
 3731TIP3    H232609   0.369   4.567   3.805  0.1064 -0.3641  0.1860
 3732TIP3   OH232610   4.012   5.932  12.853  0.5466 -0.6016  0.1314
 3732TIP3    H132611   3.961   5.930  12.772  0.5775 -0.2932  0.1018
 3732TIP3    H232612   4.102   5.914  12.825  0.2063 -2.7859  0.3974
 3733TIP3   OH232613   3.148   4.189  15.215  0.0931  0.1561  0.2741
 3733TIP3    H132614   3.138   4.097  15.189  1.1010  0.4068 -1.0657
 3733TIP3    H232615   3.202   4.228  15.146  0.0646  1.6516  1.0671
 3734TIP3   OH232616   3.821   0.905   2.627  0.2088 -0.3276  0.7619
 3734TIP3    H132617   3.916   0.910   2.636 -0.0474  1.7068  2.8701
 3734TIP3    H232618   3.790   0.994   2.647 -2.0473 -0.6253 -1.2123
 3735TIP3   OH232619   5.047   5.396  12.699  0.3525 -0.1387  0.0195
 3735TIP3    H132620   4.952   5.404  12.693  0.3144 -0.1635  0.5828
 3735TIP3    H232621   5.080   5.453  12.630 -0.0869 -0.6445 -0.6207
 3736TIP3   OH232622   1.838   2.219  16.555 -0.1259 -0.6142  0.4693
 3736TIP3    H132623   1.838   2.302  16.509 -0.9702 -0.7369  0.2430
 3736TIP3    H232624   1.832   2.153  16.485 -2.4501 -0.7711  0.7894
 3737TIP3   OH232625   5.567   6.471   0.440 -0.0614  0.0076  0.2697
 3737TIP3    H132626   5.506   6.540   0.468  0.5237  1.2023 -1.2818
 3737TIP3    H232627   5.515   6.391   0.443 -1.0039  0.6370  1.3062
 3738TIP3   OH232628   6.541   3.725   0.515  0.2889  0.0889  0.1732
 3738TIP3    H132629   6.523   3.696   0.604  1.5972 -2.5990 -0.3796
 3738TIP3    H232630   6.517   3.650   0.460  1.0795  1.1035 -1.6010
 3739TIP3   OH232631   1.441   4.248  14.178 -0.1435 -0.0176  0.1966
 3739TIP3    H132632   1.423   4.200  14.259  0.1388  1.2106  1.0173
 3739TIP3    H232633   1.479   4.331  14.208 -0.9927  0.8769 -1.1571
 3740TIP3   OH232634   2.753   0.558  14.664 -0.2849  0.2521  0.4324
 3740TIP3    H132635   2.810   0.592  14.595  1.1555 -3.3096 -0.2203
 3740TIP3    H232636   2.809   0.555  14.742 -0.5791 -0.0408  0.6327
 3741TIP3   OH232637   5.062   4.349   3.115 -0.0627 -0.6944  0.4082
 3741TIP3    H132638   4.967   4.357   3.127  0.0019  0.5338  0.1979
 3741TIP3    H232639   5.095   4.438   3.130  1.0826 -1.1731  0.7307
 3742TIP3   OH232640   5.216   2.907   6.474  0.6722 -0.3121 -0.5685
 3742TIP3    H132641   5.284   2.854   6.433 -0.1857 -1.3629 -0.6502
 3742TIP3    H232642   5.190   2.857   6.552  0.8240  0.6608  0.1180
 3743TIP3   OH232643   4.347   4.235  16.593  0.4467  0.9158 -0.1222
 3743TIP3    H132644   4.271   4.206  16.544  1.2344  0.5812 -1.1730
 3743TIP3    H232645   4.330   4.327  16.612 -0.7483  0.5405  0.6905
 3744TIP3   OH232646   6.531   3.872  11.772  0.4064  0.0677  0.4998
 3744TIP3    H132647   6.530   3.946  11.711  0.6309 -0.0029  0.4096
 3744TIP3    H232648   6.606   3.819  11.744  0.0476 -0.3665  0.3575
 3745TIP3   OH232649   6.660   0.897   4.999 -1.3956  0.7317  0.2420
 3745TIP3    H132650   6.589   0.903   4.936 -0.8659  0.3999 -0.3940
 3745TIP3    H232651   6.723   0.964   4.970 -0.6630 -0.1527 -0.2127
 3746TIP3   OH232652   5.565   2.716   3.641  0.2173  0.4491 -0.3574
 3746TIP3    H132653   5.579   2.622   3.647  1.7956  0.7658  1.5060
 3746TIP3    H232654   5.615   2.742   3.563  2.5712  0.2118  1.0389
 3747TIP3   OH232655   6.186   2.145   3.339 -0.5962  0.0827 -0.0477
 3747TIP3    H132656   6.207   2.218   3.281 -1.5360  0.8606  0.5756
 3747TIP3    H232657   6.222   2.068   3.295 -2.4603  0.4553 -2.3106
 3748TIP3   OH232658   1.632   2.818  12.973 -0.3810  0.2310  1.3389
 3748TIP3    H132659   1.651   2.725  12.986  0.7401  0.3014  0.3345
 3748TIP3    H232660   1.697   2.864  13.027  0.2023  0.4440  0.4685
 3749TIP3   OH232661   3.723   0.119  11.229  0.3280 -0.4809 -0.0993
 3749TIP3    H132662   3.769   0.044  11.192  0.4321 -1.3461  1.7434
 3749TIP3    H232663   3.632   0.106  11.203  0.1120 -1.9752  1.3240
 3750TIP3   OH232664   0.723   6.366   1.571 -0.4133 -0.1924  0.2837
 3750TIP3    H132665   0.645   6.419   1.555  0.2716  1.2574  1.6753
 3750TIP3    H232666   0.726   6.354   1.666  0.4956 -1.1211  0.1551
 3751TIP3   OH232667   4.387   0.403   5.216  0.1545  0.0848 -0.5108
 3751TIP3    H132668   4.460   0.464   5.224  0.9721 -1.1543  1.9754
 3751TIP3    H232669   4.309   0.459   5.225  0.7986  1.2378 -1.9423
 3752TIP3   OH232670   0.650   1.606  12.495  0.2808  0.3401  0.1511
 3752TIP3    H132671   0.572   1.605  12.439  0.0748 -1.4298  0.4135
 3752TIP3    H232672   0.719   1.641  12.439 -0.3367  0.3549 -0.6259
 3753TIP3   OH232673   3.444   6.295  14.711  0.4671  0.8119  0.1848
 3753TIP3    H132674   3.451   6.238  14.788  0.8274  1.6091  0.7486
 3753TIP3    H232675   3.350   6.309  14.701  0.4016  0.4699  0.3058
 3754TIP3   OH232676   2.471   4.450   5.705 -0.0586  0.9276 -0.1109
 3754TIP3    H132677   2.428   4.460   5.790  0.6010 -1.5437  0.5530
 3754TIP3    H232678   2.558   4.486   5.718  0.6449 -1.0199  0.8208
 3755TIP3   OH232679   2.047   3.889   2.026  0.4190 -0.3653 -0.7373
 3755TIP3    H132680   1.952   3.876   2.020  0.2372  0.4008  0.3531
 3755TIP3    H232681   2.066   3.956   1.961  0.0444  0.2658 -0.2034
 3756TIP3   OH232682   1.898   2.985   3.774  0.7588 -0.1403  0.1865
 3756TIP3    H132683   1.855   2.978   3.859  0.8887  0.6450  0.3132
 3756TIP3    H232684   1.828   2.973   3.710  0.4931  0.3092  0.3948
 3757TIP3   OH232685   5.751   4.141   1.120 -0.2322 -0.0520 -0.1886
 3757TIP3    H132686   5.717   4.063   1.076 -1.6227  1.2531 -1.5432
 3757TIP3    H232687   5.844   4.144   1.097 -0.6314 -0.1844 -1.8963
 3758TIP3   OH232688   0.497   3.349   6.663 -0.5514  0.3237  0.0272
 3758TIP3    H132689   0.412   3.307   6.677  0.1213 -1.1316 -0.1498
 3758TIP3    H232690   0.560   3.293   6.709  0.4268  0.8525 -0.6364
 3759TIP3   OH232691   4.286   2.790  11.866 -0.2285  0.6098 -0.1665
 3759TIP3    H132692   4.270   2.802  11.959 -2.9085  0.5072 -0.5570
 3759TIP3    H232693   4.273   2.877  11.828  1.6397  0.8206 -0.3757
 3760TIP3   OH232694   0.824   3.121  16.580 -0.2625 -0.1695  0.2359
 3760TIP3    H132695   0.826   3.145  16.673 -2.8673  2.5819 -0.3275
 3760TIP3    H232696   0.738   3.079  16.568 -0.6324  0.9596 -1.2284
 3761TIP3   OH232697   1.838   2.924  13.158  0.6238 -0.5490 -0.2952
 3761TIP3    H132698   1.879   3.009  13.145  1.0463 -0.3652  2.0370
 3761TIP3    H232699   1.776   2.937  13.229 -0.7032 -1.7631 -1.1962
 3762TIP3   OH232700   4.333   3.647   4.966 -0.0094  0.0806 -0.2434
 3762TIP3    H132701   4.245   3.684   4.963  0.8360  2.1822  0.3987
 3762TIP3    H232702   4.331   3.584   5.038 -0.7640  0.6800  0.2516
 3763TIP3   OH232703   3.304   4.221   1.727  0.1923 -0.7869  0.1433
 3763TIP3    H132704   3.370   4.165   1.687  0.6147 -0.5578  0.5219
 3763TIP3    H232705   3.316   4.209   1.821  1.0667  0.8526  0.2484
 3764TIP3   OH232706   0.054   5.844  16.873  0.3246 -0.7405 -0.0616
 3764TIP3    H132707   0.108   5.767  16.892  0.9319  0.3897  3.1591
 3764TIP3    H232708  -0.032   5.822  16.908  0.4788 -0.0245  0.7979
 3765TIP3   OH232709   2.605   4.222   2.453  0.2258 -0.5838 -0.3656
 3765TIP3    H132710   2.654   4.164   2.394  2.2778 -1.0508  1.7099
 3765TIP3    H232711   2.544   4.164   2.498 -0.1584 -0.5293 -0.8211
 3766TIP3   OH232712   5.097   3.186   1.557 -0.0415  0.6862 -0.1529
 3766TIP3    H132713   5.180   3.188   1.509 -0.7141 -0.7380 -1.4007
 3766TIP3    H232714   5.049   3.262   1.524  0.0723  0.5309 -0.6906
 3767TIP3   OH232715   6.385   4.534   1.950  0.1900 -0.0563 -0.3696
 3767TIP3    H132716   6.305   4.580   1.974  0.2425 -0.1395 -0.0269
 3767TIP3    H232717   6.359   4.472   1.882 -0.0764 -0.2267 -0.1137
 3768TIP3   OH232718   3.908   3.638  16.330 -0.4513 -0.2157  0.2196
 3768TIP3    H132719   3.977   3.578  16.304  1.6750  1.1397  2.5100
 3768TIP3    H232720   3.859   3.591  16.398  0.2266  0.0227  0.8803
 3769TIP3   OH232721   4.338   0.696  13.534  0.1670 -0.2204  0.7772
 3769TIP3    H132722   4.255   0.650  13.516 -0.1353  0.4239  0.4945
 3769TIP3    H232723   4.400   0.658  13.472  0.0010 -0.4895  0.7754
 3770TIP3   OH232724   5.899   6.126  11.907 -0.2970  0.7315  0.1602
 3770TIP3    H132725   5.897   6.194  11.975  2.2742 -0.2659  1.3018
 3770TIP3    H232726   5.965   6.156  11.845  0.4951 -0.4666  0.4068
 3771TIP3   OH232727   1.306   1.242   3.414  0.0261 -0.6996  0.2058
 3771TIP3    H132728   1.394   1.208   3.433  0.0844 -1.2115 -0.9849
 3771TIP3    H232729   1.302   1.324   3.464  1.8412  0.2327 -1.1202
 3772TIP3   OH232730   2.921   2.619  14.025 -0.4800  0.4203 -0.2157
 3772TIP3    H132731   3.005   2.644  13.986 -0.4061  0.6038  0.0597
 3772TIP3    H232732   2.869   2.699  14.023 -0.8682  0.1567 -0.9462
 3773TIP3   OH232733   1.660   4.771   5.015 -0.5501  0.1968 -0.2190
 3773TIP3    H132734   1.664   4.735   5.103 -0.1210  1.6846  0.3828
 3773TIP3    H232735   1.690   4.861   5.024 -1.3845  0.6496 -1.7303
 3774TIP3   OH232736   4.003   0.178   3.877 -0.6956 -0.5281  0.2517
 3774TIP3    H132737   3.917   0.196   3.838 -0.8086 -0.6136  0.4600
 3774TIP3    H232738   4.054   0.258   3.862 -0.5266 -0.8025 -0.6471
 3775TIP3   OH232739   5.840   6.267   3.749 -0.6021 -0.3013 -0.5081
 3775TIP3    H132740   5.877   6.179   3.759 -0.4624 -0.1660  0.1905
 3775TIP3    H232741   5.785   6.279   3.827 -0.1424  0.4579 -0.2965
 3776TIP3   OH232742   5.513   1.482  10.664  0.3565  0.5595  0.0588
 3776TIP3    H132743   5.511   1.561  10.610  1.5973  0.5213 -0.0567
 3776TIP3    H232744   5.569   1.422  10.616 -1.2911 -0.7332 -0.2927
 3777TIP3   OH232745   6.054   4.589   5.402  0.3611 -0.1277 -0.4983
 3777TIP3    H132746   6.135   4.631   5.374  1.1532 -1.0327  0.3894
 3777TIP3    H232747   6.012   4.560   5.321  0.4261  1.2500 -1.0266
 3778TIP3   OH232748   2.975   6.583   2.509 -0.3254 -0.4045 -0.1761
 3778TIP3    H132749   2.930   6.514   2.461 -1.5601  0.3746 -0.1529
 3778TIP3    H232750   2.992   6.546   2.595 -2.2349 -0.2094  0.2983
 3779TIP3   OH232751   3.587   1.673   5.700 -0.5644 -0.8014 -0.2113
 3779TIP3    H132752   3.587   1.577   5.701 -1.2878 -0.8470 -2.2152
 3779TIP3    H232753   3.543   1.696   5.618 -4.5461  1.2764  2.3052
 3780TIP3   OH232754   0.407   6.204   2.734  0.5118 -0.1535  0.6543
 3780TIP3    H132755   0.347   6.129   2.732  0.1396  0.0895  2.3509
 3780TIP3    H232756   0.405   6.238   2.645 -0.5901 -1.1616  0.2790
 3781TIP3   OH232757   4.523   2.938   0.978 -0.3353  0.2504 -0.1569
 3781TIP3    H132758   4.614   2.911   0.967  0.4370  2.5322  0.4135
 3781TIP3    H232759   4.507   2.999   0.906 -1.1405  0.5172  0.2353
 3782TIP3   OH232760   1.517   0.070  13.314 -0.0966  0.0767  0.0057
 3782TIP3    H132761   1.543   0.037  13.399  0.8118  0.7649  0.0064
 3782TIP3    H232762   1.432   0.111  13.329 -0.1718 -0.2506  0.4749
 3783TIP3   OH232763   6.031   1.671  15.640  0.3758  0.3733 -0.2983
 3783TIP3    H132764   6.110   1.674  15.693  0.3012 -0.8718 -0.1109
 3783TIP3    H232765   5.991   1.587  15.661 -0.5331  0.6079 -1.0616
 3784TIP3   OH232766   5.684   4.709  13.997 -0.5942  0.3151  0.5243
 3784TIP3    H132767   5.755   4.656  13.961 -0.5088 -0.4619  1.8198
 3784TIP3    H232768   5.646   4.753  13.920 -1.1557 -2.2017 -0.7016
 3785TIP3   OH232769   1.398   4.694   2.182 -0.1921 -0.0121  0.2647
 3785TIP3    H132770   1.439   4.690   2.096 -3.0209 -0.3627 -1.1476
 3785TIP3    H232771   1.412   4.784   2.211 -0.0467  0.3933 -1.0129
 3786TIP3   OH232772   3.758   4.016  14.501 -0.2458  0.4061  0.5057
 3786TIP3    H132773   3.710   3.938  14.473  2.1345 -0.7677 -0.4293
 3786TIP3    H232774   3.796   3.992  14.586  1.8240 -0.0678 -0.5303
 3787TIP3   OH232775   3.109   6.446  16.267  0.2605 -0.2347  0.0343
 3787TIP3    H132776   3.099   6.355  16.294  0.5056 -1.5443 -3.9807
 3787TIP3    H232777   3.028   6.489  16.295 -0.8209 -2.1908 -0.0503
 3788TIP3   OH232778   0.030   5.845   6.416  0.1024 -0.3055 -0.3220
 3788TIP3    H132779   0.039   5.878   6.327  0.5634 -0.8634 -0.4902
 3788TIP3    H232780   0.120   5.844   6.451 -0.1847  0.7886  0.4735
 3789TIP3   OH232781   0.921   1.528   2.745  0.4590 -0.3314  0.1605
 3789TIP3    H132782   1.007   1.566   2.728  1.0512 -1.3204  0.9453
 3789TIP3    H232783   0.938   1.449   2.796 -0.7306 -1.9713 -1.9176
 3790TIP3   OH232784   2.812   0.372  16.815 -0.3911  0.2716 -0.3213
 3790TIP3    H132785   2.826   0.401  16.905  0.7423 -0.5945 -0.2071
 3790TIP3    H232786   2.857   0.438  16.761  1.4678 -0.7687 -0.1018
 3791TIP3   OH232787   3.392   0.843   5.177  0.6845  0.0225  0.2142
 3791TIP3    H132788   3.387   0.883   5.090  0.4919 -1.0586 -0.2778
 3791TIP3    H232789   3.442   0.906   5.229 -0.2527  1.2563 -0.3435
 3792TIP3   OH232790   0.710   0.490  11.521  0.1629  0.5921 -0.2564
 3792TIP3    H132791   0.686   0.467  11.611  0.9085 -1.0686 -0.4547
 3792TIP3    H232792   0.649   0.559  11.496 -1.2030 -0.1637  0.9140
 3793TIP3   OH232793   4.138   4.293  11.299  0.6919 -0.5807 -0.1923
 3793TIP3    H132794   4.214   4.236  11.288  0.4467 -1.0170  0.4001
 3793TIP3    H232795   4.141   4.350  11.222  3.2559  1.3276  1.2216
 3794TIP3   OH232796   4.535   1.554   0.061 -0.2985  0.1958  0.3743
 3794TIP3    H132797   4.525   1.469   0.103  0.7935  0.4762  1.2190
 3794TIP3    H232798   4.531   1.535  -0.033 -1.2586 -0.6257  0.5826
 3795TIP3   OH232799   5.993   3.566  10.985 -0.2490  0.3672  0.1144
 3795TIP3    H132800   5.901   3.547  10.966 -0.0201 -1.1183  0.4357
 3795TIP3    H232801   5.991   3.622  11.063 -0.8541 -0.0377  0.3894
 3796TIP3   OH232802   4.339   2.572   5.553  0.2915 -0.0902 -0.6331
 3796TIP3    H132803   4.341   2.624   5.472 -0.0084 -0.1224 -0.6612
 3796TIP3    H232804   4.415   2.603   5.603 -0.2529  0.8240 -0.3731
 3797TIP3   OH232805   5.560   1.502  16.552  0.1992 -0.0404 -0.4876
 3797TIP3    H132806   5.606   1.470  16.629  0.9436  0.3699 -0.7558
 3797TIP3    H232807   5.629   1.511  16.485 -0.2526  0.6501 -0.8677
 3798TIP3   OH232808   5.189   6.711   4.200 -0.0356 -0.0112  0.0989
 3798TIP3    H132809   5.150   6.651   4.136  0.3546  0.4162 -0.5438
 3798TIP3    H232810   5.114   6.758   4.236 -0.1843  0.3842 -0.6999
 3799TIP3   OH232811   5.705   2.918   4.935  1.1262 -0.0789  0.6409
 3799TIP3    H132812   5.702   2.868   4.853  0.0460  0.2328  0.4867
 3799TIP3    H232813   5.798   2.920   4.959  1.2707 -1.5046  0.2426
 3800TIP3   OH232814   5.208   3.902   0.873  0.1837 -0.0373 -0.2208
 3800TIP3    H132815   5.299   3.879   0.887 -0.7403 -2.5995  2.0906
 3800TIP3    H232816   5.207   3.998   0.867  2.8318  0.1050  1.1737
 3801TIP3   OH232817   5.609   0.696  11.016  0.0289  0.6008 -0.3058
 3801TIP3    H132818   5.607   0.683  11.111 -0.2159 -0.4143 -0.4459
 3801TIP3    H232819   5.682   0.641  10.986  0.2413  1.0863 -0.6777
 3802TIP3   OH232820   1.044   0.414   3.341 -0.5055  0.0578  0.4496
 3802TIP3    H132821   1.020   0.427   3.249 -1.5759 -0.9839  0.5740
 3802TIP3    H232822   0.961   0.423   3.389 -0.3619 -1.6976  1.0732
 3803TIP3   OH232823   4.101   2.997  16.476  0.1965 -0.0454 -0.6476
 3803TIP3    H132824   4.093   2.902  16.468  1.3765 -0.2012 -0.0764
 3803TIP3    H232825   4.088   3.014  16.570  0.7147  0.2699 -0.6312
 3804TIP3   OH232826   2.701   6.465  17.074  0.2030  0.0417  0.5292
 3804TIP3    H132827   2.791   6.468  17.104  0.4627  3.1005 -0.3937
 3804TIP3    H232828   2.657   6.535  17.122 -0.9476  0.5373 -1.1956
 3805TIP3   OH232829   5.801   6.582   0.304 -0.4667  0.2249 -0.5259
 3805TIP3    H132830   5.731   6.537   0.351  0.6386  1.7268  2.7221
 3805TIP3    H232831   5.880   6.534   0.328  0.1197  1.0748 -0.7390
 3806TIP3   OH232832   3.951   6.629   3.287  0.5666 -0.0143 -0.0762
 3806TIP3    H132833   3.928   6.559   3.226  0.5172 -0.5365  0.5433
 3806TIP3    H232834   3.869   6.675   3.303 -0.3577 -2.5543  3.0050
 3807TIP3   OH232835   0.630   3.784  10.785  0.2845 -0.4046 -0.4740
 3807TIP3    H132836   0.546   3.742  10.763 -0.0873  0.3350 -0.4835
 3807TIP3    H232837   0.606   3.871  10.817  0.8958 -1.0674  1.8946
 3808TIP3   OH232838   6.521   5.887   0.537 -0.4101  0.1819 -0.1747
 3808TIP3    H132839   6.479   5.900   0.622  0.4404  1.6017  0.0556
 3808TIP3    H232840   6.558   5.973   0.516 -0.4529 -0.2096 -1.8915
 3809TIP3   OH232841   2.145   0.667   6.618  0.6218 -0.0895 -0.3672
 3809TIP3    H132842   2.092   0.621   6.553  0.4181  0.2443 -0.4381
 3809TIP3    H232843   2.107   0.640   6.702 -0.0253  0.5937 -0.4362
 3810TIP3   OH232844   4.706   1.096  16.931  0.3439  0.2505  0.1961
 3810TIP3    H132845   4.720   1.078  16.838 -0.5856 -2.9417  0.6093
 3810TIP3    H232846   4.618   1.134  16.934 -0.2413 -1.0467 -0.1033
 3811TIP3   OH232847   5.079   4.391  11.401 -0.2753 -1.1155 -0.1897
 3811TIP3    H132848   5.159   4.434  11.371  0.4710 -3.3885 -1.5423
 3811TIP3    H232849   5.025   4.462  11.437  1.5631  0.6946 -0.9580
 3812TIP3   OH232850   3.709   2.511  11.819  0.2795  0.0729 -0.4785
 3812TIP3    H132851   3.793   2.507  11.865 -0.6329 -0.9710  1.1357
 3812TIP3    H232852   3.721   2.581  11.755  2.0365  0.6566  0.4380
 3813TIP3   OH232853   0.075   2.980  14.954 -0.0112  0.6407 -0.6733
 3813TIP3    H132854   0.021   3.056  14.973  2.2128  2.3939 -1.1962
 3813TIP3    H232855   0.099   2.944  15.039  1.6673  2.5314 -0.3146
 3814TIP3   OH232856   0.993   1.363  12.037  0.0315  0.4142 -0.8599
 3814TIP3    H132857   0.994   1.325  11.949 -0.7228  2.2333 -1.6692
 3814TIP3    H232858   1.026   1.452  12.025  0.2741  0.5442  0.7589
 3815TIP3   OH232859   3.828   2.573  11.261 -0.3305  0.3726  0.5791
 3815TIP3    H132860   3.907   2.519  11.273  0.2793  0.9216 -0.8593
 3815TIP3    H232861   3.860   2.652  11.216 -1.4045  1.4230  1.6230
 3816TIP3   OH232862   5.183   6.071   0.189  0.0116 -0.4202 -0.1753
 3816TIP3    H132863   5.160   6.058   0.097 -0.1419 -1.2664 -0.0173
 3816TIP3    H232864   5.162   5.988   0.231 -0.7652  0.2647  0.7951
 3817TIP3   OH232865   0.560   2.401   3.276  0.2769 -0.0363  0.2817
 3817TIP3    H132866   0.496   2.399   3.206  0.6529  0.0122 -0.0660
 3817TIP3    H232867   0.596   2.313   3.279 -0.7185 -0.4230  1.3351
 3818TIP3   OH232868   4.566   5.945   6.571  0.1335  0.3034 -0.0104
 3818TIP3    H132869   4.630   5.875   6.556  0.2224 -0.4852  3.6398
 3818TIP3    H232870   4.484   5.910   6.536  0.5826 -0.8215  0.0346
 3819TIP3   OH232871   1.970   3.923   4.620 -0.9075  0.3898 -0.2448
 3819TIP3    H132872   2.003   4.012   4.613 -0.3189  0.1639 -0.3656
 3819TIP3    H232873   1.993   3.882   4.536  0.9115 -0.5749  0.7015
 3820TIP3   OH232874   6.066   0.251   5.248  0.0561  0.4723  0.1959
 3820TIP3    H132875   6.153   0.274   5.217 -0.1671  1.5806  0.3631
 3820TIP3    H232876   6.058   0.294   5.333 -0.7021  0.4958  0.1216
 3821TIP3   OH232877   2.456   2.805  10.572 -0.2213  0.1540  0.2757
 3821TIP3    H132878   2.380   2.809  10.514  1.3465  1.2309 -1.7723
 3821TIP3    H232879   2.491   2.716  10.559  0.0219  0.3324 -0.2838
 3822TIP3   OH232880   0.511   1.460   2.450  0.3153 -0.1344 -0.4261
 3822TIP3    H132881   0.558   1.506   2.380 -1.1423  0.1169 -1.2577
 3822TIP3    H232882   0.580   1.429   2.509  1.5661 -0.2678 -1.9244
 3823TIP3   OH232883   4.719   3.070  14.513 -0.1636  0.4028 -0.0645
 3823TIP3    H132884   4.765   3.039  14.435  1.0253  2.1862 -0.1048
 3823TIP3    H232885   4.647   3.123  14.479 -1.5748 -1.3835  0.0275
 3824TIP3   OH232886   3.790   0.806   3.460  0.2392  0.0151  0.3425
 3824TIP3    H132887   3.765   0.715   3.441  0.4391 -0.3116  1.5831
 3824TIP3    H232888   3.877   0.799   3.499 -0.4445  0.5741  2.0162
 3825TIP3   OH232889   1.420   0.705   1.195 -0.0773  0.0677 -0.2809
 3825TIP3    H132890   1.423   0.785   1.143  1.3719  0.2371  0.0485
 3825TIP3    H232891   1.499   0.707   1.247 -0.8181 -0.8088  0.9011
 3826TIP3   OH232892   5.089   4.267   2.034  0.0271  0.4193 -0.2993
 3826TIP3    H132893   5.011   4.299   2.078 -0.8983  0.3411 -1.8402
 3826TIP3    H232894   5.056   4.209   1.965  1.5286 -1.2452  0.3305
 3827TIP3   OH232895   1.422   2.698  13.821  0.5299  0.0825 -0.4333
 3827TIP3    H132896   1.482   2.623  13.820 -0.5525 -0.8091 -3.2345
 3827TIP3    H232897   1.381   2.694  13.907  1.0374 -2.1204 -0.2476
 3828TIP3   OH232898   0.908   5.152   3.250 -0.3373 -0.3616 -0.4027
 3828TIP3    H132899   0.961   5.077   3.222 -1.1576 -0.7333 -0.9860
 3828TIP3    H232900   0.848   5.116   3.314  1.0140  0.3352  1.2950
 3829TIP3   OH232901   2.233   1.071  14.356  0.1971  0.0525  0.3528
 3829TIP3    H132902   2.275   0.994  14.393 -0.2251 -0.0367  0.6421
 3829TIP3    H232903   2.140   1.057  14.371  0.1085  0.5336  0.2441
 3830TIP3   OH232904   3.681   0.950  10.633 -0.0209 -0.1764  0.7644
 3830TIP3    H132905   3.654   1.042  10.634 -0.7730 -0.3653 -0.9365
 3830TIP3    H232906   3.695   0.930  10.540 -0.5558 -1.9864  1.0491
 3831TIP3   OH232907   6.700   4.492   1.139  0.5326  0.5755  0.1599
 3831TIP3    H132908   6.761   4.547   1.090  1.1541 -0.0348  0.2319
 3831TIP3    H232909   6.727   4.402   1.119 -0.4094  0.2941  0.1129
 3832TIP3   OH232910   0.066   3.233  16.888 -0.4500  1.2557 -0.1263
 3832TIP3    H132911  -0.007   3.225  16.826 -0.6213  1.6492  0.0206
 3832TIP3    H232912   0.030   3.282  16.961 -0.4321  0.1953  0.5958
 3833TIP3   OH232913   1.996   4.685  11.803  0.4370  0.1995  0.4023
 3833TIP3    H132914   1.975   4.592  11.803  1.6442 -0.0889 -0.1513
 3833TIP3    H232915   1.954   4.719  11.724  0.9142 -0.0954  0.0215
 3834TIP3   OH232916   4.572   2.887   6.336  0.2881  0.5237  0.5419
 3834TIP3    H132917   4.532   2.959   6.384  1.5988  0.8075  1.2342
 3834TIP3    H232918   4.498   2.838   6.299 -0.8736 -0.7240  4.2913
 3835TIP3   OH232919   1.682   1.483   2.059  0.0678  0.6222 -0.1397
 3835TIP3    H132920   1.696   1.402   2.107  1.5064  0.3312 -1.0272
 3835TIP3    H232921   1.587   1.497   2.062 -0.3224 -1.6281 -0.8571
 3836TIP3   OH232922   0.814   5.868  16.945  0.3244 -0.0116 -1.0035
 3836TIP3    H132923   0.883   5.899  17.003  0.2212 -1.4334 -0.0901
 3836TIP3    H232924   0.738   5.857  17.001  0.1765 -1.2309 -1.4326
 3837TIP3   OH232925   5.206   0.979  16.676 -0.3158  0.1424 -0.6149
 3837TIP3    H132926   5.256   0.917  16.729  0.8028 -0.9498 -2.8817
 3837TIP3    H232927   5.117   0.946  16.677  0.1556 -1.1951 -1.2905
 3838TIP3   OH232928   2.598   0.901  16.308  0.1941 -0.4221 -0.5273
 3838TIP3    H132929   2.547   0.909  16.227  0.8802 -1.5018 -1.0924
 3838TIP3    H232930   2.594   0.808  16.329 -1.0769  0.0483  1.4329
 3839TIP3   OH232931   6.257   5.822   3.449  0.5212  0.5717  0.3359
 3839TIP3    H132932   6.237   5.808   3.357 -0.1565  0.7371  0.4562
 3839TIP3    H232933   6.347   5.790   3.459 -0.0003 -1.0197 -0.0014
 3840TIP3   OH232934   0.129   1.588  15.080 -0.2848  0.8096 -0.5137
 3840TIP3    H132935   0.199   1.627  15.028 -1.0521  2.8981 -0.0279
 3840TIP3    H232936   0.173   1.552  15.156  0.3626  1.3877 -0.6085
 3841TIP3   OH232937   6.129   3.338   0.445  0.7472  0.4317 -0.2062
 3841TIP3    H132938   6.066   3.271   0.472  0.9214  0.7333  0.9850
 3841TIP3    H232939   6.078   3.402   0.397  0.2525  0.3778  0.2498
 3842TIP3   OH232940   0.535   0.535   5.591  0.2369  0.8168  0.2951
 3842TIP3    H132941   0.494   0.497   5.513 -0.9754  1.3490  0.6604
 3842TIP3    H232942   0.476   0.606   5.617 -0.6934 -0.8682  3.0860
 3843TIP3   OH232943   2.668   5.613   0.500  0.0420 -0.2364 -0.4445
 3843TIP3    H132944   2.656   5.686   0.560 -0.6916 -0.3490 -0.4437
 3843TIP3    H232945   2.728   5.645   0.433 -1.9036  1.0792 -1.6104
 3844TIP3   OH232946   1.105   2.372   1.073 -0.1044 -0.0983  0.1377
 3844TIP3    H132947   1.033   2.433   1.089 -1.0289 -1.5563  1.6172
 3844TIP3    H232948   1.064   2.296   1.032  0.9744  0.0255 -1.2503
 3845TIP3   OH232949   1.092   6.242   3.063  0.2292 -0.4337 -0.1583
 3845TIP3    H132950   1.065   6.321   3.110 -0.7128 -1.1954  0.6145
 3845TIP3    H232951   1.070   6.260   2.971  1.3618  0.7589 -0.1995
 3846TIP3   OH232952   3.296   3.617   3.714 -0.8258 -0.3587 -0.3830
 3846TIP3    H132953   3.320   3.534   3.755  0.0193  0.6254  1.1748
 3846TIP3    H232954   3.201   3.621   3.720 -0.6539  0.5951  3.2709
 3847TIP3   OH232955   1.378   1.085  10.919  0.4336  0.5237 -0.0364
 3847TIP3    H132956   1.285   1.086  10.942  0.4417  1.1320 -0.0267
 3847TIP3    H232957   1.393   1.169  10.876  0.9392  0.3528 -0.1945
 3848TIP3   OH232958   6.576   4.340   4.532 -0.6154 -0.0599 -0.0121
 3848TIP3    H132959   6.596   4.429   4.504 -1.2909 -0.4008 -1.6497
 3848TIP3    H232960   6.496   4.317   4.485  0.0398 -1.8435 -0.3141
 3849TIP3   OH232961   3.648   5.613   5.698 -0.1846  0.1206 -0.1762
 3849TIP3    H132962   3.711   5.582   5.763 -0.9592  0.8796  0.9412
 3849TIP3    H232963   3.673   5.703   5.681 -0.7894  0.3413  0.0717
 3850TIP3   OH232964   3.855   5.346  11.507  0.2417  0.5224 -0.3977
 3850TIP3    H132965   3.925   5.282  11.515 -1.1598 -0.9311  0.4794
 3850TIP3    H232966   3.883   5.418  11.564 -0.0628 -1.0794  1.8808
 3851TIP3   OH232967   1.597   3.056  14.744 -0.6496  1.4394 -0.1983
 3851TIP3    H132968   1.570   3.120  14.810 -0.7078  0.3012  0.8980
 3851TIP3    H232969   1.633   2.984  14.795  0.5978  1.1418 -1.4746
 3852TIP3   OH232970   4.732   4.168   0.800  0.5131  0.3590 -0.1684
 3852TIP3    H132971   4.736   4.242   0.740  0.9473  0.2264 -0.3018
 3852TIP3    H232972   4.822   4.153   0.826  0.5714 -0.8849 -1.0697
 3853TIP3   OH232973   5.703   2.070   3.988 -0.2625 -0.5438 -0.1330
 3853TIP3    H132974   5.638   2.099   4.052  0.0313 -1.7295  0.7191
 3853TIP3    H232975   5.660   2.001   3.938  0.4544 -1.6072  0.6950
 3854TIP3   OH232976   4.469   4.156   3.095  0.2103  0.4316  0.1576
 3854TIP3    H132977   4.469   4.250   3.112  1.1556  0.5444 -0.4731
 3854TIP3    H232978   4.411   4.144   3.020 -0.3379  0.4464  0.5770
 3855TIP3   OH232979   3.635   1.816   3.758 -0.1559 -0.5033 -0.4555
 3855TIP3    H132980   3.591   1.732   3.752 -1.6658  0.3304 -1.4928
 3855TIP3    H232981   3.687   1.822   3.678  0.9292 -0.9939  0.2183
 3856TIP3   OH232982   2.890   5.541  14.098 -0.0670 -0.8645  0.2591
 3856TIP3    H132983   2.860   5.622  14.057  0.3457 -0.2531  1.1492
 3856TIP3    H232984   2.858   5.472  14.040  2.2947  0.0482 -2.2545
 3857TIP3   OH232985   6.083   4.669  13.633 -0.1964  0.0406 -0.2156
 3857TIP3    H132986   6.176   4.646  13.628 -0.1163 -0.2070  1.8840
 3857TIP3    H232987   6.041   4.614  13.567  0.7921 -1.9153  0.7336
 3858TIP3   OH232988   1.695   3.988  14.423  0.4389 -0.1159 -0.6584
 3858TIP3    H132989   1.713   3.910  14.475 -0.2781 -0.7147 -1.3071
 3858TIP3    H232990   1.688   3.957  14.333 -0.8848  0.5344 -0.7953
 3859TIP3   OH232991   5.715   4.083  16.601  0.2509  0.6721  0.5091
 3859TIP3    H132992   5.697   3.990  16.585  1.8228  0.5446 -0.7245
 3859TIP3    H232993   5.674   4.128  16.527  2.1642  0.6386 -0.6355
 3860TIP3   OH232994   4.139   4.302   5.186  0.0498 -0.2764 -0.3600
 3860TIP3    H132995   4.109   4.259   5.266 -1.3550  0.0016 -0.7177
 3860TIP3    H232996   4.076   4.373   5.172  1.3058  0.7926 -0.7535
 3861TIP3   OH232997   6.072   6.501  16.250 -0.0627  0.1184 -0.2258
 3861TIP3    H132998   6.098   6.592  16.233  0.3995  0.0791  0.2775
 3861TIP3    H232999   6.053   6.498  16.343 -1.1251 -0.0489 -0.4386
 3862TIP3   OH233000   5.603   1.800  12.667  0.3805  0.0945  0.3312
 3862TIP3    H133001   5.654   1.810  12.587 -1.2443  3.9236 -0.3625
 3862TIP3    H233002   5.520   1.763  12.637  0.2003  0.4315  0.4160
 3863TIP3   OH233003   2.166   1.586  11.330 -0.4048 -0.8131 -0.0872
 3863TIP3    H133004   2.258   1.571  11.311 -0.3167 -2.2938  1.4763
 3863TIP3    H233005   2.122   1.570  11.246  0.5917 -1.6498 -0.4611
 3864TIP3   OH233006   6.713   1.224   5.789  0.1421 -0.2624 -0.1446
 3864TIP3    H133007   6.802   1.255   5.772  0.6814 -0.8288  1.5349
 3864TIP3    H233008   6.656   1.292   5.751  1.3028  1.0958  0.5030
 3865TIP3   OH233009   1.837   3.674   0.452  0.3855  0.4167  0.2874
 3865TIP3    H133010   1.910   3.676   0.513 -0.2210  1.4678  0.9820
 3865TIP3    H233011   1.873   3.707   0.370  0.6945  0.9094  0.6235
 3866TIP3   OH233012   0.700   3.340   4.666  0.0213 -0.1410  0.2654
 3866TIP3    H133013   0.780   3.299   4.633 -0.5221  0.9731 -2.5479
 3866TIP3    H233014   0.698   3.427   4.624 -2.3973  0.0391  0.6828
 3867TIP3   OH233015   0.319   6.212  13.406  0.3119  0.0089 -0.4931
 3867TIP3    H133016   0.411   6.237  13.416 -0.0156  0.7752  0.7651
 3867TIP3    H233017   0.279   6.286  13.361  0.0032  0.3308  0.3116
 3868TIP3   OH233018   5.140   4.201   0.749  0.6264 -0.7533 -0.6462
 3868TIP3    H133019   5.134   4.160   0.663  0.5241 -2.6099  0.2365
 3868TIP3    H233020   5.061   4.172   0.796 -0.1054  1.4683 -0.4274
 3869TIP3   OH233021   4.543   3.785   2.790 -0.6767 -0.2000  0.1299
 3869TIP3    H133022   4.458   3.742   2.802 -0.2148 -1.4742 -1.0257
 3869TIP3    H233023   4.524   3.878   2.801 -2.5337 -0.3416 -1.6457
 3870TIP3   OH233024   3.625   2.477  12.115  0.0720 -0.2505  0.4259
 3870TIP3    H133025   3.643   2.486  12.021 -0.2605 -0.0981  0.3744
 3870TIP3    H233026   3.698   2.426  12.149  1.1532  1.2380  0.4152
 3871TIP3   OH233027   0.718   0.171  11.379 -0.1883  0.7187  0.0331
 3871TIP3    H133028   0.676   0.102  11.327 -0.6256  0.6603  0.4599
 3871TIP3    H233029   0.785   0.126  11.429  0.4271  0.8220 -0.6993
 3872TIP3   OH233030   1.848   2.240   1.889  0.2038  0.1527 -0.2925
 3872TIP3    H133031   1.900   2.189   1.952  0.7369  0.1097 -0.7583
 3872TIP3    H233032   1.757   2.226   1.916  0.3623 -0.7576 -0.1937
 3873TIP3   OH233033   2.201   2.899   2.521 -0.3021  0.3603  0.4282
 3873TIP3    H133034   2.232   2.915   2.610 -0.0605  0.6554  0.2922
 3873TIP3    H233035   2.188   2.804   2.517 -1.4983  0.4721  1.1677
 3874TIP3   OH233036   5.940   4.229  12.077  0.0504  0.3233 -0.1597
 3874TIP3    H133037   5.981   4.246  11.992 -0.0954  2.3961  0.1599
 3874TIP3    H233038   6.011   4.193  12.131  0.2981 -0.3861 -0.9405
 3875TIP3   OH233039   1.912   3.225  16.382 -0.2591 -0.2816 -0.2660
 3875TIP3    H133040   1.965   3.301  16.406 -0.0866 -0.5277  0.1572
 3875TIP3    H233041   1.976   3.158  16.356 -0.4685  0.0991 -1.7693
 3876TIP3   OH233042   1.124   1.077   3.291 -0.1545 -0.1450 -0.7608
 3876TIP3    H133043   1.195   1.131   3.327 -0.0138 -1.1231  0.4210
 3876TIP3    H233044   1.060   1.141   3.259 -0.1759  0.7289  0.9970
 3877TIP3   OH233045   4.455   6.174  15.245  0.3021  0.2239 -0.5266
 3877TIP3    H133046   4.532   6.228  15.263  0.6904 -0.6343  0.4070
 3877TIP3    H233047   4.426   6.203  15.158  2.9770 -0.9165 -1.8804
 3878TIP3   OH233048   3.256   4.694  12.341 -0.7152  0.3998  0.3689
 3878TIP3    H133049   3.312   4.643  12.282 -1.5840 -2.2895  1.7869
 3878TIP3    H233050   3.316   4.756  12.383  0.4421  0.3047 -1.1166
 3879TIP3   OH233051   0.211   1.208   0.041  0.0653  0.7330 -0.2575
 3879TIP3    H133052   0.146   1.206   0.111  0.2892  0.2179 -0.0624
 3879TIP3    H233053   0.268   1.134   0.059 -0.1934  0.2641 -1.2968
 3880TIP3   OH233054   2.610   3.386   1.925 -0.0992 -0.0961  0.7197
 3880TIP3    H133055   2.609   3.353   1.836 -0.6047  0.0617  0.6634
 3880TIP3    H233056   2.685   3.446   1.928 -0.8658  0.9019  0.0271
 3881TIP3   OH233057   2.385   6.195   2.898  0.1670  0.2059 -0.4851
 3881TIP3    H133058   2.463   6.140   2.908 -2.5655 -4.1459 -1.5077
 3881TIP3    H233059   2.362   6.186   2.806 -0.9928  2.2972 -0.4170
 3882TIP3   OH233060   0.995   6.426   1.202 -0.3566  0.0013 -0.2992
 3882TIP3    H133061   1.042   6.475   1.134  0.2502 -1.1636 -0.7371
 3882TIP3    H233062   0.903   6.450   1.189 -0.2999 -0.6170 -1.8709
 3883TIP3   OH233063   0.021   4.626  12.438  0.5292 -0.1206  0.2061
 3883TIP3    H133064   0.045   4.602  12.349  0.1136 -0.4270  0.1724
 3883TIP3    H233065   0.028   4.722  12.440  0.9999 -0.1482 -0.0157
 3884TIP3   OH233066   6.424   2.175   4.639  0.0684  0.5646  0.6431
 3884TIP3    H133067   6.421   2.081   4.658 -3.8403  0.7699  1.4322
 3884TIP3    H233068   6.401   2.181   4.547 -0.7566  0.7811  0.8569
 3885TIP3   OH233069   5.277   2.461  13.525 -0.3285 -0.4483 -0.5908
 3885TIP3    H133070   5.204   2.441  13.467  0.1106 -0.0625 -1.2784
 3885TIP3    H233071   5.279   2.557  13.528 -0.0617 -0.4609 -0.3020
 3886TIP3   OH233072   4.237   5.765   5.776 -0.3492  0.1533  0.1659
 3886TIP3    H133073   4.212   5.742   5.865  0.2923  0.4820  0.4333
 3886TIP3    H233074   4.186   5.843   5.756 -1.1892 -0.4542 -0.0961
 3887TIP3   OH233075   5.494   2.009   0.703  0.2261 -0.4542 -0.3663
 3887TIP3    H133076   5.422   2.045   0.755  0.1013  0.2652 -1.0350
 3887TIP3    H233077   5.555   2.081   0.694  0.3483 -0.6466 -1.0400
 3888TIP3   OH233078   1.105   1.076  17.068  0.6854 -0.1408  0.0512
 3888TIP3    H133079   1.023   1.067  17.116  0.5037  0.3321 -0.1653
 3888TIP3    H233080   1.171   1.040  17.127  0.5007  0.6559  0.7653
 3889TIP3   OH233081   4.712   0.697   3.857 -0.2289  0.3390 -0.0641
 3889TIP3    H133082   4.750   0.638   3.791 -1.4070  1.5723 -1.8732
 3889TIP3    H233083   4.787   0.724   3.910  0.9423  0.2056 -1.5918
 3890TIP3   OH233084   1.865   1.350   1.416  0.3144 -0.3317  0.0035
 3890TIP3    H133085   1.803   1.419   1.391  1.4035  0.7848  0.3461
 3890TIP3    H233086   1.907   1.382   1.496  2.8314 -0.0976 -1.3463
 3891TIP3   OH233087   5.052   4.614  12.926  0.5441  0.0664  0.0262
 3891TIP3    H133088   5.139   4.590  12.959  0.0103 -1.9218  0.0113
 3891TIP3    H233089   5.069   4.652  12.840  1.4494  0.3252  0.3104
 3892TIP3   OH233090   3.193   5.594   4.009 -0.0478 -0.4851  0.3044
 3892TIP3    H133091   3.140   5.657   3.960  0.2443 -0.7535 -0.3654
 3892TIP3    H233092   3.262   5.647   4.048 -0.2163 -0.2843  0.3345
 3893TIP3   OH233093   4.171   4.675  13.626 -0.6312  0.0815  0.0389
 3893TIP3    H133094   4.241   4.628  13.581  0.5428  0.3455  1.5280
 3893TIP3    H233095   4.154   4.622  13.704 -2.2814 -0.1087 -0.4272
 3894TIP3   OH233096   3.213   1.919   0.768  0.0158 -0.1271  1.0767
 3894TIP3    H133097   3.230   1.831   0.801 -0.8424 -0.6413  0.1715
 3894TIP3    H233098   3.125   1.914   0.729  0.5964  0.7088 -0.3929
 3895TIP3   OH233099   0.406   3.028   0.186  0.2673 -0.0112  0.2741
 3895TIP3    H133100   0.467   2.977   0.239 -0.5046 -2.0839 -0.7847
 3895TIP3    H233101   0.323   3.022   0.232  0.7190  2.3980  1.4541
 3896TIP3   OH233102   2.862   4.006   1.617 -0.0393  0.0077 -0.3249
 3896TIP3    H133103   2.882   3.962   1.700 -0.4946 -0.4123 -0.4379
 3896TIP3    H233104   2.946   4.012   1.572 -0.2334 -2.2251 -1.0270
 3897TIP3   OH233105   3.754   1.058   4.301 -0.3058 -0.2910 -0.3729
 3897TIP3    H133106   3.723   0.967   4.298  0.1618 -0.3877 -2.6893
 3897TIP3    H233107   3.674   1.110   4.304 -0.6121 -0.7133 -0.9969
 3898TIP3   OH233108   1.606   2.207   5.983  0.2197 -0.2120  0.3738
 3898TIP3    H133109   1.596   2.124   5.937  0.5270 -0.0430 -0.0070
 3898TIP3    H233110   1.520   2.248   5.977 -0.0031 -0.6184  0.7916
 3899TIP3   OH233111   5.141   4.420  13.536 -0.5721  0.0093 -0.3275
 3899TIP3    H133112   5.138   4.495  13.478 -0.3614  0.5500  0.3547
 3899TIP3    H233113   5.049   4.400  13.555 -0.6501 -0.3192 -1.0251
 3900TIP3   OH233114   6.221   3.974   3.579  0.4343 -0.1306 -0.4097
 3900TIP3    H133115   6.188   4.054   3.618  1.0880 -0.3821  0.6661
 3900TIP3    H233116   6.285   4.003   3.514 -0.1076  0.2512 -0.7834
 3901TIP3   OH233117   2.152   4.803   4.957 -0.2709  0.2663 -0.0695
 3901TIP3    H133118   2.236   4.810   5.001 -0.2549 -1.5461  0.2482
 3901TIP3    H233119   2.098   4.749   5.015 -1.2684  0.4276 -0.8178
 3902TIP3   OH233120   1.449   4.245  11.106  0.4761  0.0695  0.3454
 3902TIP3    H133121   1.446   4.309  11.035  0.2934 -0.2004  0.1094
 3902TIP3    H233122   1.362   4.248  11.145  0.2708 -0.4866 -0.0655
 3903TIP3   OH233123   4.106   6.138  11.724 -0.6286  0.0229  0.1409
 3903TIP3    H133124   4.082   6.142  11.817 -0.3019 -0.4743  0.2470
 3903TIP3    H233125   4.109   6.045  11.704  0.5176  0.1030 -0.0617
 3904TIP3   OH233126   1.729   6.263   6.292  0.1626 -0.2406  0.3143
 3904TIP3    H133127   1.668   6.278   6.365 -0.0338  0.7150 -0.0495
 3904TIP3    H233128   1.691   6.189   6.245  1.0258 -1.7912  1.9785
 3905TIP3   OH233129   5.495   4.178   5.145  0.6133 -0.6663  0.6199
 3905TIP3    H133130   5.534   4.096   5.115 -0.7883 -0.5941 -1.4651
 3905TIP3    H233131   5.401   4.167   5.132  0.2921  0.7954  1.5457
 3906TIP3   OH233132   5.828   3.897  14.462 -0.5044 -0.1056 -0.0036
 3906TIP3    H133133   5.828   3.905  14.366  0.1318 -1.7502 -0.1483
 3906TIP3    H233134   5.879   3.973  14.492 -0.1717  0.0750 -0.9980
 3907TIP3   OH233135   4.470   6.230   1.521  0.2647 -0.2814  0.9410
 3907TIP3    H133136   4.562   6.249   1.540  0.2891  1.0527 -0.3916
 3907TIP3    H233137   4.426   6.233   1.606  1.0757  1.2374  1.3167
 3908TIP3   OH233138   0.717   6.423  13.855  0.6127  0.3130 -0.4467
 3908TIP3    H133139   0.699   6.439  13.948  1.1243  2.5109 -0.6968
 3908TIP3    H233140   0.738   6.330  13.851 -1.8870 -0.3728  1.2328
 3909TIP3   OH233141   3.899   2.768   0.106 -0.4395 -0.2981 -0.0287
 3909TIP3    H133142   3.891   2.764   0.201 -0.0497 -1.7905 -0.0427
 3909TIP3    H233143   3.941   2.686   0.082  3.3609  1.8433 -1.1069
 3910TIP3   OH233144   4.675   4.995   5.295 -0.2195 -0.0560 -0.2005
 3910TIP3    H133145   4.662   5.065   5.358  0.9670  1.7606 -1.9264
 3910TIP3    H233146   4.749   4.944   5.330  2.5287  2.7937 -1.6162
 3911TIP3   OH233147   1.638   3.764  13.610 -0.6778  0.2175  0.7294
 3911TIP3    H133148   1.595   3.679  13.608  2.4872 -1.4251 -1.2435
 3911TIP3    H233149   1.620   3.803  13.525 -0.0930  0.4537  0.7106
 3912TIP3   OH233150   2.057   3.019  16.287  0.6071 -0.0029  0.2054
 3912TIP3    H133151   2.148   3.048  16.285  0.4275  0.5177 -0.3928
 3912TIP3    H233152   2.038   2.993  16.197 -0.3917  1.6118 -0.0702
 3913TIP3   OH233153   5.512   0.592   3.761  0.1814 -0.2187  0.0258
 3913TIP3    H133154   5.565   0.559   3.689  0.4592 -1.0129  0.5836
 3913TIP3    H233155   5.422   0.589   3.729  0.4550  1.0612 -0.8994
 3914TIP3   OH233156   3.047   3.389  11.120 -0.1355 -0.1379  0.8854
 3914TIP3    H133157   3.049   3.461  11.183 -3.0086  1.0970 -0.3403
 3914TIP3    H233158   2.957   3.389  11.086  0.1258 -3.6104  0.0339
 3915TIP3   OH233159   4.350   3.877   0.568  0.1316  0.1669  0.3658
 3915TIP3    H133160   4.383   3.788   0.553  0.8282  0.6874 -1.3019
 3915TIP3    H233161   4.414   3.918   0.626  0.3958 -0.0477  0.2218
 3916TIP3   OH233162   3.536   2.142   0.009 -0.8137 -0.3484 -0.1669
 3916TIP3    H133163   3.500   2.083   0.076  1.3926  0.8215  2.1053
 3916TIP3    H233164   3.559   2.221   0.056  0.7002  0.5628 -2.3384
 3917TIP3   OH233165   4.351   6.326  17.192  0.0564  0.4969 -0.0026
 3917TIP3    H133166   4.419   6.260  17.183  0.1501  0.3274  1.9066
 3917TIP3    H233167   4.388   6.404  17.149  1.0573  0.1234  0.1637
 3918TIP3   OH233168   0.980   5.618  16.752  0.1541 -0.1291  0.0962
 3918TIP3    H133169   0.933   5.697  16.727  0.3825  0.4974  1.5929
 3918TIP3    H233170   1.060   5.620  16.699  0.5207  1.0487  0.6871
 3919TIP3   OH233171   3.784   2.493   3.515  0.1853 -0.5252 -0.0772
 3919TIP3    H133172   3.730   2.505   3.593 -2.3354 -1.5449 -1.5790
 3919TIP3    H233173   3.775   2.575   3.466 -0.6194 -0.9506 -0.6626
 3920TIP3   OH233174   4.090   5.479  14.123 -0.3729 -0.3955 -0.3169
 3920TIP3    H133175   4.171   5.496  14.172  0.5472 -1.2437 -1.5188
 3920TIP3    H233176   4.050   5.565  14.112  0.7195  0.1206 -0.3170
 3921TIP3   OH233177   1.994   1.146   0.628  0.1497 -0.4222  0.4674
 3921TIP3    H133178   1.993   1.202   0.706 -1.0146  0.3950 -0.1358
 3921TIP3    H233179   1.958   1.200   0.558  2.0806 -0.8320 -0.8887
 3922TIP3   OH233180   1.748   3.426  16.603  0.5646  0.1779  0.1753
 3922TIP3    H133181   1.826   3.375  16.624  0.0922 -0.7183 -0.2380
 3922TIP3    H233182   1.782   3.511  16.574  1.3720 -0.1070  0.2733
 3923TIP3   OH233183   3.039   2.333   3.246 -0.0482 -0.2821 -0.3404
 3923TIP3    H133184   3.118   2.372   3.209 -0.0485 -0.5259 -0.5945
 3923TIP3    H233185   2.984   2.314   3.171 -1.5585  2.4721  0.0001
 3924TIP3   OH233186   1.423   5.629   5.017 -0.0967  0.2588 -0.4755
 3924TIP3    H133187   1.441   5.722   5.001  0.4515 -0.1317 -2.2259
 3924TIP3    H233188   1.502   5.584   4.987  0.1672 -0.6879  1.5533
 3925TIP3   OH233189   0.198   3.127  14.381 -0.0186  0.2579  0.7904
 3925TIP3    H133190   0.208   3.207  14.431  0.2927  0.4344  0.4435
 3925TIP3    H233191   0.274   3.124  14.323 -0.3548  0.0363  0.3527
 3926TIP3   OH233192   5.613   3.619   6.199 -0.0899  0.1815 -0.0306
 3926TIP3    H133193   5.664   3.697   6.222  2.5635 -1.6379  0.4494
 3926TIP3    H233194   5.609   3.622   6.103  0.6748  0.5067 -0.0602
 3927TIP3   OH233195   2.226   4.971   0.579 -0.4418 -0.1496  0.0916
 3927TIP3    H133196   2.295   5.011   0.633 -0.3685  0.6433 -0.5782
 3927TIP3    H233197   2.158   4.947   0.642  0.0334 -0.0634  0.6485
 3928TIP3   OH233198   2.824   4.098  15.630  0.0618 -0.6878 -0.2522
 3928TIP3    H133199   2.901   4.053  15.664 -0.3181 -1.5989 -0.5717
 3928TIP3    H233200   2.831   4.090  15.535  0.5934  0.9643 -0.3615
 3929TIP3   OH233201   5.219   6.218  14.818 -0.0978 -0.1078 -0.6951
 3929TIP3    H133202   5.303   6.214  14.863  0.3345 -0.0703 -1.4904
 3929TIP3    H233203   5.236   6.184  14.731 -0.3161  2.2455 -1.7115
 3930TIP3   OH233204   3.764   0.753  12.713  0.0132  0.5129 -0.0189
 3930TIP3    H133205   3.840   0.730  12.765  0.7947  0.1246 -1.3044
 3930TIP3    H233206   3.746   0.675  12.661 -0.2962  1.1377 -0.8639
 3931TIP3   OH233207   2.368   6.450  11.847 -0.8689  0.5998  0.4364
 3931TIP3    H133208   2.432   6.504  11.892  0.0065 -1.3503  1.5692
 3931TIP3    H233209   2.302   6.512  11.816  0.6472  2.4233  0.7726
 3932TIP3   OH233210   1.944   5.604  11.011 -0.3632  0.6426 -0.2718
 3932TIP3    H133211   1.933   5.695  10.981  1.2928  0.7692 -0.5752
 3932TIP3    H233212   2.022   5.607  11.066 -0.1668 -0.6373 -0.4712
 3933TIP3   OH233213   5.847   3.332  17.057  0.2403 -0.1269  0.1307
 3933TIP3    H133214   5.799   3.345  17.139  3.2275 -0.8529  2.0834
 3933TIP3    H233215   5.876   3.420  17.033 -1.8725  0.3010 -1.0014
 3934TIP3   OH233216   2.914   0.482  17.052 -0.1841  0.1960  0.3181
 3934TIP3    H133217   2.866   0.459  17.132  0.0984 -1.6922 -0.0317
 3934TIP3    H233218   2.996   0.434  17.059  0.9334  2.0222  0.0663
 3935TIP3   OH233219   3.871   1.016  11.229 -0.1201  0.0144 -0.4714
 3935TIP3    H133220   3.871   1.106  11.260 -0.9702 -0.8088  2.0073
 3935TIP3    H233221   3.824   0.967  11.296  2.1626 -2.6266 -0.6909
 3936TIP3   OH233222   6.613   5.901   1.518  0.4864  0.4031  0.4576
 3936TIP3    H133223   6.643   5.822   1.472 -0.7900 -0.4301  1.0168
 3936TIP3    H233224   6.607   5.874   1.609 -2.1026  0.4653  0.3504
 3937TIP3   OH233225   4.302   0.910   2.718 -0.3866 -0.1859  0.2363
 3937TIP3    H133226   4.295   0.970   2.644 -0.9987  0.5275  0.8640
 3937TIP3    H233227   4.227   0.852   2.709 -1.2536  0.7839  1.0639
 3938TIP3   OH233228   5.681   2.663   1.719 -0.3432  0.2796  0.0963
 3938TIP3    H133229   5.644   2.702   1.640  0.6223  0.2844 -0.3665
 3938TIP3    H233230   5.765   2.627   1.690 -0.6798 -1.1046  0.7736
 3939TIP3   OH233231   3.222   1.273  11.277  0.2987  0.1150 -0.1655
 3939TIP3    H133232   3.176   1.196  11.242  0.5249 -0.4898  0.8503
 3939TIP3    H233233   3.157   1.343  11.274  0.4396  0.2028 -2.2100
 3940TIP3   OH233234   4.888   2.959   0.325 -0.4589 -0.0577 -0.1068
 3940TIP3    H133235   4.854   2.881   0.368  1.0934 -0.4971  0.3529
 3940TIP3    H233236   4.905   3.020   0.397  1.8367 -0.6750 -0.0906
 3941TIP3   OH233237   1.124   6.055   2.384  0.1937  0.1242 -0.1685
 3941TIP3    H133238   1.215   6.063   2.412  0.9321 -0.4539 -2.3340
 3941TIP3    H233239   1.089   6.144   2.387  2.0590  1.0518 -3.3164
 3942TIP3   OH233240   6.564   3.836  13.237 -0.0018 -0.1674  0.0736
 3942TIP3    H133241   6.646   3.882  13.221  0.9061 -1.7183  0.1370
 3942TIP3    H233242   6.549   3.846  13.331  0.0474  0.2327  0.0394
 3943TIP3   OH233243   0.355   4.710  17.049 -0.1422 -0.2092 -0.0580
 3943TIP3    H133244   0.382   4.650  16.980 -3.0176  1.4580 -2.7780
 3943TIP3    H233245   0.401   4.792  17.029  1.6741 -0.6674  2.0579
 3944TIP3   OH233246   1.199   2.368  14.955 -0.4568 -0.1751 -0.1832
 3944TIP3    H133247   1.234   2.451  14.922 -0.4090 -0.7163 -1.5286
 3944TIP3    H233248   1.198   2.310  14.879  0.0153 -1.5850  0.8619
 3945TIP3   OH233249   4.326   2.765   5.362  0.0361  0.0463 -0.0015
 3945TIP3    H133250   4.364   2.757   5.275 -0.7623 -1.8807 -0.1972
 3945TIP3    H233251   4.366   2.844   5.399 -1.4040  2.3325 -3.0222
 3946TIP3   OH233252   3.654   5.551  14.116 -0.2783 -0.0125  0.0931
 3946TIP3    H133253   3.618   5.568  14.203 -0.8176 -0.4755 -0.0357
 3946TIP3    H233254   3.669   5.457  14.114 -0.3176 -0.0133 -0.3313
 3947TIP3   OH233255   5.119   5.261   0.582 -0.1445  0.0115 -0.2307
 3947TIP3    H133256   5.167   5.228   0.658 -1.1141  1.1790  0.9184
 3947TIP3    H233257   5.145   5.203   0.510  1.2722 -0.7316  0.8406
 3948TIP3   OH233258   2.492   5.730  14.893 -0.7146 -0.0496  0.2246
 3948TIP3    H133259   2.528   5.685  14.970  5.9698 -0.0100 -2.5485
 3948TIP3    H233260   2.502   5.823  14.913 -0.0821 -0.0234 -0.2142
 3949TIP3   OH233261   5.388   1.292   1.488 -0.1097  0.0845  0.0600
 3949TIP3    H133262   5.443   1.322   1.416 -1.6206 -0.3199 -1.3035
 3949TIP3    H233263   5.421   1.338   1.564  0.7689  1.4446 -1.1163
 3950TIP3   OH233264   1.267   1.527  15.247 -0.1135 -0.1192 -0.1018
 3950TIP3    H133265   1.271   1.621  15.232 -0.0146  0.1112  1.3195
 3950TIP3    H233266   1.176   1.509  15.270 -0.1471 -0.3807 -0.4310
 3951TIP3   OH233267   0.746   5.728   3.065 -0.3731 -0.5028 -0.1069
 3951TIP3    H133268   0.765   5.641   3.031 -1.6707 -1.0015  0.4024
 3951TIP3    H233269   0.713   5.712   3.154 -1.1354  0.4545 -0.2033
 3952TIP3   OH233270   0.331   2.586   3.784  0.2350 -0.5351 -0.5259
 3952TIP3    H133271   0.358   2.676   3.802  0.7535 -0.8879  0.5095
 3952TIP3    H233272   0.289   2.590   3.698  0.7908  0.5869 -0.7520
 3953TIP3   OH233273   2.194   1.277   4.950  0.0813  0.4478 -0.9678
 3953TIP3    H133274   2.234   1.205   4.998  0.2976  0.7722 -0.6607
 3953TIP3    H233275   2.167   1.238   4.867 -1.5949 -0.4346 -0.0208
 3954TIP3   OH233276   5.516   5.152   0.205 -0.5590 -0.2588  0.6736
 3954TIP3    H133277   5.485   5.233   0.246  1.6960  1.6350 -1.1627
 3954TIP3    H233278   5.498   5.164   0.112  2.1564 -0.6891  0.0457
 3955TIP3   OH233279   0.779   5.145  10.971 -0.0079 -0.1377  0.2851
 3955TIP3    H133280   0.712   5.206  10.941 -0.8104  0.0460  2.3855
 3955TIP3    H233281   0.731   5.065  10.994  0.6228 -0.3699  0.8133
 3956TIP3   OH233282   2.512   3.850  11.388 -0.1721  0.0222 -0.3259
 3956TIP3    H133283   2.555   3.849  11.473 -4.5524  1.5843  2.0482
 3956TIP3    H233284   2.455   3.772  11.389 -0.7442  0.4141 -1.5457
 3957TIP3   OH233285   5.713   0.118  13.279  0.3878 -0.1856 -0.7136
 3957TIP3    H133286   5.733   0.211  13.295  0.0941 -0.6230  2.5167
 3957TIP3    H233287   5.788   0.086  13.230  1.5273  1.2683  0.0361
 3958TIP3   OH233288   3.926   4.968   5.323 -0.8426 -0.6018  0.0580
 3958TIP3    H133289   3.930   5.052   5.278  0.4231 -0.4218  0.4970
 3958TIP3    H233290   3.992   4.974   5.392  0.0629 -2.3925 -0.6286
 3959TIP3   OH233291   2.698   3.438  15.380  0.0654  0.5789  0.4924
 3959TIP3    H133292   2.675   3.470  15.468  1.3817  1.3293  0.5715
 3959TIP3    H233293   2.694   3.516  15.325 -2.7875 -0.2430 -0.5584
 3960TIP3   OH233294   2.659   5.362   1.817  0.2869 -0.0724 -0.0721
 3960TIP3    H133295   2.653   5.318   1.901  1.9203  1.0588  0.6730
 3960TIP3    H233296   2.614   5.305   1.755  0.1242 -1.4854  1.3534
 3961TIP3   OH233297   4.355   5.416  13.949 -0.3561  0.2370 -0.0934
 3961TIP3    H133298   4.444   5.434  13.920 -0.5859  0.2481 -0.7884
 3961TIP3    H233299   4.361   5.414  14.045  0.5475 -0.6518 -0.1659
 3962TIP3   OH233300   6.234   2.927  15.605 -0.3314 -0.1129 -0.0000
 3962TIP3    H133301   6.292   2.997  15.575  1.1233 -1.0267  0.6050
 3962TIP3    H233302   6.204   2.883  15.525  1.0081 -0.5641 -0.2607
 3963TIP3   OH233303   4.478   6.413   5.741  0.6772  0.3734 -0.6909
 3963TIP3    H133304   4.488   6.448   5.829 -1.7452 -0.1771 -0.1473
 3963TIP3    H233305   4.556   6.443   5.694  2.3051  0.1342  1.7802
 3964TIP3   OH233306   3.847   1.251   1.104 -0.5315  0.0604 -0.1774
 3964TIP3    H133307   3.772   1.298   1.140 -1.3984 -1.2027 -0.2882
 3964TIP3    H233308   3.817   1.218   1.019  0.8539  1.3545 -1.1910
 3965TIP3   OH233309   1.277   3.999  11.207 -0.2404 -0.3573 -0.8861
 3965TIP3    H133310   1.349   3.938  11.226  1.7749  2.1635 -0.2006
 3965TIP3    H233311   1.245   4.025  11.293 -1.2527 -0.5868 -1.1852
 3966TIP3   OH233312   0.765   2.954  12.947  0.2952  0.0001 -0.3810
 3966TIP3    H133313   0.707   2.878  12.953  1.6989 -1.1979 -1.7360
 3966TIP3    H233314   0.711   3.022  12.907 -0.6351 -0.6273 -0.2151
 3967TIP3   OH233315   1.581   5.014  15.144 -0.0762  0.1541 -0.3315
 3967TIP3    H133316   1.501   5.048  15.185  1.3475  1.8671  1.1308
 3967TIP3    H233317   1.640   5.089  15.141  3.3968 -2.1839  3.4884
 3968TIP3   OH233318   6.358   5.326   3.694  0.5607  0.1060  0.1714
 3968TIP3    H133319   6.269   5.310   3.726 -0.2262  2.5621 -0.6931
 3968TIP3    H233320   6.347   5.341   3.600  2.1176 -1.2631 -0.2459
 3969TIP3   OH233321   4.027   6.601   6.311 -0.1014 -0.2664 -0.1162
 3969TIP3    H133322   3.933   6.615   6.305 -0.0206  0.2196 -0.3037
 3969TIP3    H233323   4.066   6.676   6.266  0.3499 -1.6022 -1.9753
 3970TIP3   OH233324   5.723   2.517  11.536  0.0185  0.5207  0.1579
 3970TIP3    H133325   5.724   2.586  11.602 -1.0575  0.8454 -0.1454
 3970TIP3    H233326   5.761   2.441  11.579  0.2452  1.0110  0.8255
 3971TIP3   OH233327   5.774   0.059  14.582  0.2025 -0.0815  0.1769
 3971TIP3    H133328   5.702   0.109  14.621  0.2285  0.3434 -0.3095
 3971TIP3    H233329   5.826   0.125  14.536  1.8523 -0.1194  1.9169
 3972TIP3   OH233330   3.524   2.515  16.773 -0.4965 -0.3082 -0.6960
 3972TIP3    H133331   3.497   2.510  16.681 -1.0220 -0.1360 -0.5570
 3972TIP3    H233332   3.473   2.588  16.809  0.7442  0.5291 -0.6119
 3973TIP3   OH233333   1.111   6.730  10.882 -0.2856 -0.0690  0.8741
 3973TIP3    H133334   1.054   6.728  10.805  1.3753  1.1974 -0.4608
 3973TIP3    H233335   1.064   6.782  10.947 -1.2047 -0.1351  0.2625
 3974TIP3   OH233336   6.020   6.786   4.775 -0.2050 -0.5257 -0.1467
 3974TIP3    H133337   6.064   6.701   4.783 -1.5212 -1.1977  0.0241
 3974TIP3    H233338   5.944   6.780   4.832 -0.1022  0.9262  0.1818
 3975TIP3   OH233339   0.943   6.034   2.634 -0.8766  0.0297 -0.3761
 3975TIP3    H133340   0.930   5.940   2.648  0.8850 -0.2853 -0.7585
 3975TIP3    H233341   0.887   6.054   2.559  0.0032 -1.0680 -1.3432
 3976TIP3   OH233342   2.770   2.628   0.886  0.0311 -0.4590 -0.0205
 3976TIP3    H133343   2.773   2.574   0.807  2.2929  0.4410 -0.5896
 3976TIP3    H233344   2.859   2.626   0.920 -0.4689  0.7708  1.4185
 3977TIP3   OH233345   0.087   2.609   1.493  0.0777 -0.2111  0.1664
 3977TIP3    H133346   0.088   2.697   1.530  0.5471 -0.4458  0.7134
 3977TIP3    H233347   0.094   2.550   1.568 -0.4253 -0.7288 -0.1767
 3978TIP3   OH233348   3.004   4.005  15.958  0.0651 -0.1071  0.5047
 3978TIP3    H133349   3.021   3.993  15.865 -0.8109 -2.5070  0.6149
 3978TIP3    H233350   2.909   4.014  15.964 -0.0313 -1.4883  1.2917
 3979TIP3   OH233351   3.444   5.341  15.605 -0.4056  0.0377  0.8724
 3979TIP3    H133352   3.447   5.435  15.620 -1.6012  0.6279 -2.1806
 3979TIP3    H233353   3.465   5.331  15.512 -0.5882 -2.6885  1.0873
 3980TIP3   OH233354   4.579   1.846  16.810 -0.4936 -0.6471  0.1153
 3980TIP3    H133355   4.519   1.912  16.776 -0.7920 -0.0781  1.7320
 3980TIP3    H233356   4.580   1.778  16.743 -0.4617  0.8225 -1.4134
 3981TIP3   OH233357   2.773   4.831  14.743 -0.1410 -0.4928  0.0041
 3981TIP3    H133358   2.839   4.812  14.677  0.4723  0.4813  0.3112
 3981TIP3    H233359   2.722   4.903  14.706 -0.5162 -0.7102  0.1026
 3982TIP3   OH233360   3.166   3.272  11.535 -0.1974 -0.2814  0.5638
 3982TIP3    H133361   3.108   3.347  11.550  0.3397  0.4377 -0.7898
 3982TIP3    H233362   3.246   3.295  11.581 -0.4691 -0.5880  1.1859
 3983TIP3   OH233363   6.333   1.101   5.845  0.0502 -0.3103 -0.4279
 3983TIP3    H133364   6.325   1.042   5.920  2.3635  1.1337  1.0597
 3983TIP3    H233365   6.266   1.167   5.859  1.2299  0.6192  1.0842
 3984TIP3   OH233366   0.249   5.528   1.956 -0.1404 -0.1633  0.7352
 3984TIP3    H133367   0.195   5.571   1.890  0.4879  0.2616  0.4950
 3984TIP3    H233368   0.334   5.571   1.950 -0.8432  1.7514  3.6814
 3985TIP3   OH233369   6.191   5.652   1.981  0.3298  0.5457  0.1012
 3985TIP3    H133370   6.107   5.606   1.987  0.1345  0.8921  0.0754
 3985TIP3    H233371   6.171   5.732   1.931  0.9653 -0.0351 -1.1089
 3986TIP3   OH233372   4.786   0.818  11.356 -1.0512  0.3339 -0.2469
 3986TIP3    H133373   4.757   0.881  11.290 -1.0695 -0.7072 -1.2576
 3986TIP3    H233374   4.853   0.766  11.312 -1.4692 -0.7482  0.3580
 3987TIP3   OH233375   1.418   6.540  12.565 -0.1823 -0.2260 -0.3454
 3987TIP3    H133376   1.498   6.542  12.513 -0.2685  0.8118 -0.4424
 3987TIP3    H233377   1.441   6.488  12.642  0.8520  0.7899  0.0438
 3988TIP3   OH233378   2.991   3.076  12.603 -0.2959 -0.3034  0.6804
 3988TIP3    H133379   3.064   3.135  12.622 -0.8152  0.1275  1.3888
 3988TIP3    H233380   2.914   3.123  12.636 -0.8400 -0.9267  0.3012
 3989TIP3   OH233381   3.324   2.148  11.339  0.3485 -0.1393 -0.4483
 3989TIP3    H133382   3.392   2.183  11.282  0.0402 -2.4839 -2.3632
 3989TIP3    H233383   3.242   2.161  11.290 -0.3714  1.0279  1.0358
 3990TIP3   OH233384   3.457   0.734  15.833 -0.0567  0.1171 -0.2607
 3990TIP3    H133385   3.489   0.769  15.916 -2.8315  0.9844  0.4708
 3990TIP3    H233386   3.534   0.693  15.794  1.5036  0.4704  2.3162
 3991TIP3   OH233387   5.790   2.920   5.382 -0.0981 -0.0844 -0.0029
 3991TIP3    H133388   5.721   2.893   5.443  0.1430  1.2593  0.9034
 3991TIP3    H233389   5.865   2.940   5.439  0.5082  0.0668 -0.8485
 3992TIP3   OH233390   4.963   6.657   3.798  0.0213 -0.2614  0.0434
 3992TIP3    H133391   4.994   6.612   3.877 -0.7627 -0.4625  0.2420
 3992TIP3    H233392   4.886   6.607   3.771  0.1271 -0.0253 -0.6902
 3993TIP3   OH233393   0.566   4.156   2.021  0.0541 -0.1364 -0.3706
 3993TIP3    H133394   0.553   4.125   1.931 -0.1170  0.1933 -0.4573
 3993TIP3    H233395   0.533   4.245   2.022 -1.1429 -0.5777  0.3524
 3994TIP3   OH233396   2.415   2.555  11.897  0.1368  0.1750  0.1547
 3994TIP3    H133397   2.503   2.531  11.869  0.2768  0.5590  0.2629
 3994TIP3    H233398   2.425   2.642  11.936  0.1826 -0.8277  2.5088
 3995TIP3   OH233399   2.387   2.542   1.969  0.4349  0.4168  0.5189
 3995TIP3    H133400   2.367   2.526   1.877  1.1356  2.9006 -0.0924
 3995TIP3    H233401   2.467   2.594   1.968 -0.2199  1.5144  2.4709
 3996TIP3   OH233402   0.240   5.111  12.749  0.2851 -0.5935 -0.2621
 3996TIP3    H133403   0.326   5.152  12.734  0.8880 -2.1129 -1.0604
 3996TIP3    H233404   0.238   5.096  12.844  0.2149  0.8979 -0.0090
 3997TIP3   OH233405   3.051   3.668  16.008  0.0156 -0.3360 -0.2241
 3997TIP3    H133406   3.087   3.604  16.069  0.6975 -0.2142 -0.4973
 3997TIP3    H233407   2.989   3.719  16.060 -1.5593 -2.0899 -0.3215
 3998TIP3   OH233408   4.653   6.204   2.618 -0.4107  0.4012 -0.4282
 3998TIP3    H133409   4.614   6.291   2.628 -0.3757  0.5006 -1.1272
 3998TIP3    H233410   4.658   6.191   2.524  1.1724  0.3626 -0.3537
 3999TIP3   OH233411   0.747   5.665  12.596 -0.0973  0.0354  0.3677
 3999TIP3    H133412   0.737   5.745  12.545  2.9465  1.2494  1.5293
 3999TIP3    H233413   0.842   5.658  12.611 -0.4088 -3.1956  1.2138
 4000TIP3   OH233414   1.609   3.985   2.238 -0.0995  0.2081 -0.2777
 4000TIP3    H133415   1.545   3.998   2.168 -0.6258  0.5234  0.2537
 4000TIP3    H233416   1.586   3.901   2.276 -1.5370  1.2667  1.2763
 4001TIP3   OH233417   0.296   6.762  13.698 -0.7033  0.3630 -0.4125
 4001TIP3    H133418   0.261   6.680  13.664 -2.5465  1.1978 -0.5818
 4001TIP3    H233419   0.369   6.783  13.640  1.2058 -2.2591  0.9450
 4002TIP3   OH233420   3.415   0.264  12.435 -0.1388 -0.2790 -0.4709
 4002TIP3    H133421   3.392   0.192  12.494  0.8050  0.2049  0.5029
 4002TIP3    H233422   3.472   0.225  12.369  0.1230 -0.4861 -0.1218
 4003TIP3   OH233423   0.544   5.356  11.212  0.6512 -0.0435 -0.0613
 4003TIP3    H133424   0.606   5.288  11.239  1.4627  0.2369 -1.1640
 4003TIP3    H233425   0.544   5.352  11.116 -0.7791  0.2006 -0.0871
 4004TIP3   OH233426   0.870   1.697  11.013  0.2041 -0.1142  0.0678
 4004TIP3    H133427   0.850   1.610  10.979 -1.6523  0.7066 -1.0359
 4004TIP3    H233428   0.942   1.729  10.958 -0.6334 -0.0732 -1.0231
 4005TIP3   OH233429   6.342   5.792   6.295 -0.0143  0.1429 -0.2851
 4005TIP3    H133430   6.374   5.748   6.216  1.4510 -0.5107  0.6527
 4005TIP3    H233431   6.317   5.721   6.354  0.4466  0.5981  0.4632
 4006TIP3   OH233432   4.642   4.898  13.007  0.3274  0.0126  0.2374
 4006TIP3    H133433   4.736   4.911  12.993  0.4206  0.3070  1.1069
 4006TIP3    H233434   4.619   4.960  13.076 -0.7012  0.5866 -0.6061
 4007TIP3   OH233435   4.546   5.570  13.601 -0.0960  0.4191  0.4766
 4007TIP3    H133436   4.591   5.575  13.517 -0.2968 -0.4071  0.3157
 4007TIP3    H233437   4.489   5.494  13.593 -1.3171  1.2873  0.7827
 4008TIP3   OH233438   6.448   5.348  14.027  0.3483  0.6159  0.0423
 4008TIP3    H133439   6.538   5.340  14.059  0.0873  0.0768  0.6471
 4008TIP3    H233440   6.455   5.338  13.932  0.9098  0.4699  0.0998
 4009TIP3   OH233441   6.017   0.990   5.466  0.6020  0.0132 -0.1062
 4009TIP3    H133442   6.039   1.061   5.406 -0.1940 -0.2143 -0.6821
 4009TIP3    H233443   5.958   1.030   5.530  0.7067  0.0380 -0.0252
 4010TIP3   OH233444   3.827   6.692   1.078 -0.1181 -0.0424 -0.4302
 4010TIP3    H133445   3.921   6.707   1.083  0.2394 -2.0424 -0.9018
 4010TIP3    H233446   3.810   6.681   0.984 -0.3963 -2.2969 -0.1293
 4011TIP3   OH233447   4.055   1.403   4.214  0.2087 -0.0504 -0.0169
 4011TIP3    H133448   3.990   1.340   4.182 -0.0030  1.1289 -1.9754
 4011TIP3    H233449   4.099   1.434   4.135  0.6544  1.8901  0.9725
 4012TIP3   OH233450   0.940   1.888   3.789 -0.2073  0.3114  0.0047
 4012TIP3    H133451   0.959   1.965   3.735  0.2464  0.2487  0.0667
 4012TIP3    H233452   0.939   1.815   3.727 -1.1268  0.4319 -0.1243
 4013TIP3   OH233453   3.697   5.555   1.868  0.2136  0.2386  0.2365
 4013TIP3    H133454   3.716   5.647   1.851 -0.8446  0.3028 -0.6834
 4013TIP3    H233455   3.720   5.541   1.959  0.6207  1.3546  0.3047
 4014TIP3   OH233456   3.340   6.126   2.559  0.2049 -0.7549  0.1327
 4014TIP3    H133457   3.327   6.148   2.651  2.3677 -0.2930  0.3484
 4014TIP3    H233458   3.289   6.192   2.511 -0.2624 -0.5102  0.9636
 4015TIP3   OH233459   5.248   4.116  12.573  0.5027  0.0129  0.2672
 4015TIP3    H133460   5.190   4.160  12.636  0.6570 -0.5023  0.7674
 4015TIP3    H233461   5.318   4.179  12.558 -0.4548  0.8647 -0.7579
 4016TIP3   OH233462   4.769   2.116   5.523  0.2750 -0.1243 -0.1603
 4016TIP3    H133463   4.721   2.195   5.498 -0.6493 -1.0281 -1.3769
 4016TIP3    H233464   4.701   2.048   5.528  0.9316 -0.6655  1.6882
 4017TIP3   OH233465   5.768   3.027  13.663 -0.1941 -0.6264 -0.2127
 4017TIP3    H133466   5.817   2.982  13.731  2.7255  1.7131 -0.6149
 4017TIP3    H233467   5.793   2.982  13.582 -0.7088 -1.0276 -0.1505
 4018TIP3   OH233468   5.664   5.088   5.691  0.3316 -0.0494 -0.4265
 4018TIP3    H133469   5.732   5.029   5.660  0.6572  0.6601 -1.0747
 4018TIP3    H233470   5.683   5.171   5.649 -0.9855  0.1367 -0.6887
 4019TIP3   OH233471   2.963   6.631  16.568  0.0493  0.0439 -0.6483
 4019TIP3    H133472   2.906   6.637  16.491  0.1063 -0.2612 -0.7124
 4019TIP3    H233473   2.904   6.621  16.642 -0.0027  0.2719 -0.6571
 4020TIP3   OH233474   5.507   4.636   2.091  0.0604  0.2984  0.2010
 4020TIP3    H133475   5.421   4.631   2.049  0.1744  1.8671 -0.2329
 4020TIP3    H233476   5.568   4.602   2.025 -0.2744 -1.3877  0.7275
 4021TIP3   OH233477   3.219   2.191  12.532 -0.7406  0.4793  0.8890
 4021TIP3    H133478   3.276   2.177  12.607  1.7560  0.3755 -0.9507
 4021TIP3    H233479   3.167   2.111  12.526 -0.1406  0.0138  1.8415
 4022TIP3   OH233480   4.515   5.923  11.077  0.5597  0.6418 -0.0717
 4022TIP3    H133481   4.556   5.935  10.991  0.0562  0.9790 -0.2701
 4022TIP3    H233482   4.430   5.883  11.057  1.5061 -1.7459  0.4501
 4023TIP3   OH233483   4.567   3.438   2.300  0.0422 -1.1733  0.3207
 4023TIP3    H133484   4.516   3.371   2.346  0.1668 -1.5124 -0.0418
 4023TIP3    H233485   4.641   3.391   2.263  1.0344 -0.5544  1.4781
 4024TIP3   OH233486   2.789   0.638  12.112  0.1462  0.0982 -0.3342
 4024TIP3    H133487   2.882   0.638  12.137  0.6760  0.6244 -2.1898
 4024TIP3    H233488   2.764   0.546  12.113  0.6399 -0.0391  0.3042
 4025TIP3   OH233489   4.510   4.498   4.516 -0.0259  0.0003  0.4278
 4025TIP3    H133490   4.545   4.559   4.580  1.4524  0.7647 -1.0563
 4025TIP3    H233491   4.489   4.552   4.440 -1.1207 -0.9761  0.0218
 4026TIP3   OH233492   1.205   6.677  16.514  0.2615  0.4673  0.8293
 4026TIP3    H133493   1.181   6.653  16.425  0.8180  0.3661  0.7043
 4026TIP3    H233494   1.255   6.758  16.504  0.0637  0.6235  1.0778
 4027TIP3   OH233495   5.423   3.538  15.295 -0.2081  0.7225 -0.2776
 4027TIP3    H133496   5.486   3.539  15.367  0.4759 -0.1329 -0.8673
 4027TIP3    H233497   5.364   3.611  15.315 -1.4100 -0.8686  2.3761
 4028TIP3   OH233498   4.571   0.160  16.735  0.3422  0.2470 -0.2907
 4028TIP3    H133499   4.593   0.125  16.822 -1.1029 -0.7900 -0.3242
 4028TIP3    H233500   4.579   0.255  16.745  1.7355  0.0618  0.5271
 4029TIP3   OH233501   6.343   6.646  11.097 -0.1728  0.0028  1.0004
 4029TIP3    H133502   6.334   6.602  11.012  1.4952 -0.8327  1.2534
 4029TIP3    H233503   6.424   6.695  11.090 -0.7320  1.0321  1.6370
 4030TIP3   OH233504   0.773   1.480  13.368  0.1630  0.3538  0.4708
 4030TIP3    H133505   0.832   1.552  13.346  1.8552 -0.0029  3.5825
 4030TIP3    H233506   0.691   1.502  13.324  2.2468  1.3920 -3.0694
 4031TIP3   OH233507   4.288   0.137  13.676 -0.1516 -0.3659  0.0055
 4031TIP3    H133508   4.302   0.158  13.583  0.0067 -1.8501 -0.3146
 4031TIP3    H233509   4.374   0.145  13.716  0.2605 -2.1469 -0.4797
 4032TIP3   OH233510   1.593   4.765   5.864 -0.5131  0.0262 -0.3623
 4032TIP3    H133511   1.636   4.758   5.949 -0.2349  0.7282 -0.4493
 4032TIP3    H233512   1.664   4.783   5.802 -0.7764 -0.0192 -0.6793
 4033TIP3   OH233513   2.022   2.989  15.109 -0.3234  0.5844 -0.5932
 4033TIP3    H133514   2.085   3.060  15.109 -0.6715  0.9550  2.0532
 4033TIP3    H233515   1.941   3.029  15.142 -0.9180 -0.6953 -0.4575
 4034TIP3   OH233516   4.396   5.514  11.251 -0.6913 -0.7654 -0.1549
 4034TIP3    H133517   4.445   5.534  11.331 -0.6607 -1.8519  0.1002
 4034TIP3    H233518   4.344   5.593  11.236  0.0066 -0.1753  0.4037
 4035TIP3   OH233519   4.564   5.030  12.377 -0.1113 -0.1685 -0.2315
 4035TIP3    H133520   4.472   5.006  12.391  0.1417 -0.7898  0.3897
 4035TIP3    H233521   4.612   4.980  12.443  0.5175  1.3547  0.4851
 4036TIP3   OH233522   2.013   1.658  11.850  0.0379  0.2553 -0.2693
 4036TIP3    H133523   1.940   1.706  11.812 -1.6059 -0.8380  1.3947
 4036TIP3    H233524   2.068   1.634  11.775 -2.0126 -0.0767 -1.7173
 4037TIP3   OH233525   3.230   1.326  13.033 -0.1726 -0.7690  0.0582
 4037TIP3    H133526   3.163   1.290  12.975 -0.7341  1.4523 -0.7337
 4037TIP3    H233527   3.196   1.412  13.058  2.2570  0.2983 -0.1639
 4038TIP3   OH233528   6.162   5.982  14.363  0.3028  0.7127 -0.2414
 4038TIP3    H133529   6.183   5.895  14.397 -0.7353 -0.7157 -3.1486
 4038TIP3    H233530   6.247   6.023  14.347  0.7977 -0.4993 -0.7211
 4039TIP3   OH233531   5.198   5.132  15.182 -0.1972  0.5618 -0.0912
 4039TIP3    H133532   5.162   5.175  15.260 -2.4441 -0.7623 -0.3585
 4039TIP3    H233533   5.260   5.068  15.217 -1.4405 -0.2570  0.6398
 4040TIP3   OH233534   1.465   6.538   6.175 -0.3080  0.0242 -0.4073
 4040TIP3    H133535   1.458   6.462   6.117  1.2539 -0.8324  0.4866
 4040TIP3    H233536   1.449   6.503   6.263 -1.2742  1.0518 -0.1653
 4041TIP3   OH233537   3.414   0.540  16.234  0.5675 -0.5185  0.3349
 4041TIP3    H133538   3.428   0.445  16.226  1.4143 -0.4025  0.3161
 4041TIP3    H233539   3.419   0.557  16.328  1.5540 -0.3444  0.2666
 4042TIP3   OH233540   3.721   0.243   3.458  0.5159  0.2845 -0.4107
 4042TIP3    H133541   3.681   0.184   3.394 -0.9468  0.4714  0.3232
 4042TIP3    H233542   3.786   0.188   3.503 -0.3161 -0.5765 -0.2403
 4043TIP3   OH233543   6.099   3.717  16.251  0.4933 -0.1744 -0.3187
 4043TIP3    H133544   6.051   3.720  16.333 -0.7212  3.3742 -1.0784
 4043TIP3    H233545   6.189   3.742  16.274  0.7215 -1.5049  0.2664
 4044TIP3   OH233546   4.339   2.359   1.570  0.1607  0.2202 -0.5373
 4044TIP3    H133547   4.381   2.274   1.557 -1.6337 -1.1180  2.1019
 4044TIP3    H233548   4.285   2.371   1.492  0.3082 -1.1273 -0.8550
 4045TIP3   OH233549   0.249   1.734   5.974  0.1507 -0.4115  0.8554
 4045TIP3    H133550   0.223   1.808   5.918 -1.2671 -0.3877  1.5325
 4045TIP3    H233551   0.328   1.700   5.932  0.7827  1.4309  0.4755
 4046TIP3   OH233552   4.605   3.661   4.939 -0.2476 -0.0993 -0.1179
 4046TIP3    H133553   4.575   3.651   4.849 -0.1730  2.0719 -0.4196
 4046TIP3    H233554   4.692   3.621   4.940 -0.7471 -1.2255 -0.6937
 4047TIP3   OH233555   0.270   3.202   3.926 -0.4184  0.2115  0.0601
 4047TIP3    H133556   0.190   3.211   3.978 -0.9589 -0.1816 -0.6987
 4047TIP3    H233557   0.318   3.283   3.943 -1.0296  0.5026  0.4371
 4048TIP3   OH233558   1.653   2.593  12.298 -0.4336 -0.2759 -0.1714
 4048TIP3    H133559   1.661   2.539  12.219 -0.4298 -2.3563  1.1980
 4048TIP3    H233560   1.736   2.581  12.344 -0.3550  1.0794  0.0366
 4049TIP3   OH233561   6.191   5.727  13.001 -0.0366  0.2548 -0.7803
 4049TIP3    H133562   6.146   5.645  13.021 -0.0586  0.0901 -1.5017
 4049TIP3    H233563   6.234   5.711  12.917  1.5087  0.3481 -0.0189
 4050TIP3   OH233564   0.711   5.248  13.535 -0.6185 -0.7470  0.0399
 4050TIP3    H133565   0.667   5.201  13.464  0.3789 -0.8666 -0.5074
 4050TIP3    H233566   0.707   5.340  13.509  0.0534 -0.8264 -0.3342
 4051TIP3   OH233567   2.988   2.229  14.386 -0.5472  0.9056 -0.5010
 4051TIP3    H133568   3.031   2.302  14.342  0.4558  0.9981  0.6055
 4051TIP3    H233569   3.059   2.179  14.425 -1.3721  0.5434  0.5603
 4052TIP3   OH233570   3.360   0.249   3.489  0.7413 -0.4970  0.1299
 4052TIP3    H133571   3.379   0.264   3.397  2.5024 -2.4411  0.1401
 4052TIP3    H233572   3.295   0.178   3.489 -0.9266  0.9791  0.3551
 4053TIP3   OH233573   6.539   4.816  12.861  0.7042  0.5514 -0.0595
 4053TIP3    H133574   6.576   4.898  12.895  0.8851  0.6214 -0.4262
 4053TIP3    H233575   6.548   4.823  12.766 -2.7918  1.7952 -0.3728
 4054TIP3   OH233576   4.068   3.769  12.991 -0.4365 -0.2242 -0.6317
 4054TIP3    H133577   4.020   3.833  12.939  0.9699  0.0288 -1.6674
 4054TIP3    H233578   4.091   3.815  13.072 -1.7763 -0.3007 -0.1985
 4055TIP3   OH233579   3.499   1.374   1.720  0.4568 -0.2858  0.0355
 4055TIP3    H133580   3.586   1.393   1.755  0.5853 -0.9870  0.1072
 4055TIP3    H233581   3.442   1.374   1.797  0.3395  0.4782 -0.0500
 4056TIP3   OH233582   0.571   4.856   4.258  0.1570 -0.0881 -0.6682
 4056TIP3    H133583   0.617   4.908   4.192  0.8874  0.7171  0.4534
 4056TIP3    H233584   0.554   4.772   4.215 -0.7689  0.9646 -2.3853
 4057TIP3   OH233585   2.658   6.321  16.341 -0.3654 -0.0219 -0.7988
 4057TIP3    H133586   2.571   6.293  16.371  0.3144  0.0720  1.2859
 4057TIP3    H233587   2.716   6.250  16.366  0.3534  0.4176 -1.2042
 4058TIP3   OH233588   3.048   5.846   4.671  0.6522 -0.8507 -0.1095
 4058TIP3    H133589   3.042   5.859   4.766  3.7293 -2.3432  0.3427
 4058TIP3    H233590   3.114   5.909   4.643  0.0009 -0.6531 -1.2556
 4059TIP3   OH233591   5.685   5.703  14.131  0.5763 -0.2371 -0.2195
 4059TIP3    H133592   5.616   5.740  14.186  0.5280 -0.2047 -0.3015
 4059TIP3    H233593   5.733   5.643  14.188 -0.6478 -1.6435 -0.6219
 4060TIP3   OH233594   6.253   2.202   0.066  0.0544  0.1963 -0.2847
 4060TIP3    H133595   6.164   2.226   0.092  0.7112  0.8060  1.4872
 4060TIP3    H233596   6.254   2.106   0.069 -1.0757  0.0920 -2.2416
 4061TIP3   OH233597   6.535   5.655  16.831  0.8631  0.3572  0.1941
 4061TIP3    H133598   6.490   5.738  16.817  1.3257  1.0050  2.3712
 4061TIP3    H233599   6.620   5.666  16.788  0.3293  0.4388 -0.8445
 4062TIP3   OH233600   3.908   0.481   3.714  0.0623 -0.3123 -0.2484
 4062TIP3    H133601   3.996   0.455   3.741  0.5069 -0.2311 -1.5621
 4062TIP3    H233602   3.905   0.460   3.620 -0.7480  1.2048 -0.5746
 4063TIP3   OH233603   3.621   1.566   1.926 -0.6027  0.1784 -0.2972
 4063TIP3    H133604   3.552   1.623   1.890  1.2426  1.2007 -2.2936
 4063TIP3    H233605   3.702   1.616   1.914  0.7560 -1.8772  0.1556
 4064TIP3   OH233606   5.394   6.539  16.301 -0.2136  0.0510 -0.3517
 4064TIP3    H133607   5.456   6.599  16.343 -0.8437 -1.1714  2.4859
 4064TIP3    H233608   5.450   6.474  16.257  0.5553 -0.6351  1.5809
 4065TIP3   OH233609   1.406   4.642  16.261  0.4872  0.1998 -0.5230
 4065TIP3    H133610   1.347   4.567  16.265  0.3332  0.3239 -0.4638
 4065TIP3    H233611   1.417   4.669  16.352 -2.3731  2.5171 -0.7874
 4066TIP3   OH233612   5.317   5.751   4.253 -0.4005  0.1553  1.0090
 4066TIP3    H133613   5.285   5.662   4.237  1.4360  0.1139 -2.8527
 4066TIP3    H233614   5.404   5.738   4.290 -0.3104  0.3460  0.8606
 4067TIP3   OH233615   1.077   6.191   5.855  0.6112 -0.2995  1.0443
 4067TIP3    H133616   1.097   6.105   5.892  1.2118 -1.7762 -2.4946
 4067TIP3    H233617   1.117   6.190   5.768  1.2740  3.8735  1.1821
 4068TIP3   OH233618   1.763   5.899   4.591  0.7267  0.3199 -0.4987
 4068TIP3    H133619   1.756   5.921   4.684  0.8879 -1.9115  0.0661
 4068TIP3    H233620   1.775   5.805   4.590  2.2343  0.5178 -2.7382
 4069TIP3   OH233621   5.392   0.835   5.452  0.4863  0.3856  0.4070
 4069TIP3    H133622   5.445   0.770   5.497 -0.6874 -0.6593  0.3062
 4069TIP3    H233623   5.443   0.858   5.374  0.6331 -0.8985  0.1080
 4070TIP3   OH233624   5.164   5.825  11.660  0.6824 -0.0265  0.2471
 4070TIP3    H133625   5.081   5.798  11.621  1.4164 -1.4240 -0.3756
 4070TIP3    H233626   5.201   5.887  11.597  0.8076 -0.5473 -0.1942
 4071TIP3   OH233627   5.195   5.745  13.757  0.2373  0.3746  0.4211
 4071TIP3    H133628   5.178   5.820  13.813  2.3655  2.0978 -1.1658
 4071TIP3    H233629   5.288   5.727  13.768 -0.0496 -1.4666  0.0744
 4072TIP3   OH233630   1.140   3.056  14.521  1.1204 -0.2964  0.2259
 4072TIP3    H133631   1.217   3.019  14.564  0.8683 -2.9345 -1.5443
 4072TIP3    H233632   1.162   3.149  14.509  4.4578 -1.1918 -1.1766
 4073TIP3   OH233633   4.037   5.913   1.889  0.0673 -0.1569 -0.0763
 4073TIP3    H133634   4.054   5.866   1.971 -1.1201  0.7856  0.7409
 4073TIP3    H233635   4.033   6.005   1.915 -2.3626 -0.0044 -0.8320
 4074TIP3   OH233636   1.271   6.705   3.640 -0.0415  0.8160  0.0446
 4074TIP3    H133637   1.195   6.761   3.625 -0.7371  0.4931  2.2279
 4074TIP3    H233638   1.328   6.722   3.565 -0.7042  3.6452  0.1146
 4075TIP3   OH233639   6.496   5.547  15.640 -0.1002 -0.1710  0.4271
 4075TIP3    H133640   6.474   5.456  15.618  1.0747  0.2558 -2.8728
 4075TIP3    H233641   6.584   5.559  15.606  0.2122  1.8619  1.9035
 4076TIP3   OH233642   2.628   1.738   5.181 -0.2195  0.6826  0.2496
 4076TIP3    H133643   2.661   1.650   5.162 -0.1463  1.3005 -2.6598
 4076TIP3    H233644   2.557   1.724   5.243 -0.2561 -1.4298 -0.2336
 4077TIP3   OH233645   2.187   1.883   4.629  0.2987 -0.0860  0.2143
 4077TIP3    H133646   2.264   1.841   4.666 -0.5798 -1.4108  0.5846
 4077TIP3    H233647   2.115   1.823   4.650 -0.8318  1.1547 -0.0724
 4078TIP3   OH233648   4.902   1.844   5.626 -0.2689 -0.4277 -0.3503
 4078TIP3    H133649   4.870   1.850   5.716 -0.8604  1.8082 -0.6933
 4078TIP3    H233650   4.894   1.933   5.592  3.0469 -0.5232 -1.5549
 4079TIP3   OH233651   1.336   5.516  16.883  0.2383  0.2996  0.0157
 4079TIP3    H133652   1.333   5.465  16.802 -0.9351 -0.6754  0.6552
 4079TIP3    H233653   1.271   5.585  16.871  0.6890  0.6809 -0.2233
 4080TIP3   OH233654   1.290   5.468  13.287 -0.3386  0.9381 -0.0362
 4080TIP3    H133655   1.275   5.560  13.266  1.9123  1.1264 -0.9481
 4080TIP3    H233656   1.358   5.469  13.354  0.5116 -0.1021 -0.8599
 4081TIP3   OH233657   5.045   4.886   4.617  0.5113 -0.2918  0.3898
 4081TIP3    H133658   5.115   4.851   4.673 -1.2046  0.0391  2.8609
 4081TIP3    H233659   4.997   4.808   4.588  1.9958 -0.5328 -1.4862
 4082TIP3   OH233660   1.682   1.733  15.741 -0.1114 -0.5531 -0.0721
 4082TIP3    H133661   1.668   1.692  15.826 -0.8652 -1.2294 -0.5127
 4082TIP3    H233662   1.777   1.738  15.732 -0.0376  0.3522  1.1959
 4083TIP3   OH233663   3.835   2.228  12.690 -0.0545  0.1969 -0.2960
 4083TIP3    H133664   3.923   2.204  12.720  0.7559  2.1004 -1.0352
 4083TIP3    H233665   3.811   2.302  12.746 -0.2003  1.1845 -1.6465
 4084TIP3   OH233666   1.619   0.915   5.406 -0.2569 -0.1821 -0.6985
 4084TIP3    H133667   1.572   0.842   5.446 -0.6723 -0.9415 -2.5653
 4084TIP3    H233668   1.553   0.984   5.398 -0.1963 -0.0605 -0.1795
 4085TIP3   OH233669   2.926   3.085  11.100  0.1079 -0.5361 -0.2751
 4085TIP3    H133670   2.933   3.180  11.111 -1.9830 -0.3996  0.1794
 4085TIP3    H233671   3.016   3.055  11.091  0.8169  1.4578 -0.1530
 4086TIP3   OH233672   0.168   1.012  16.304  0.2026  0.1053 -0.7660
 4086TIP3    H133673   0.193   1.023  16.396 -0.5670 -1.6466 -0.3367
 4086TIP3    H233674   0.155   0.918  16.293 -0.0763  0.3343 -2.5820
 4087TIP3   OH233675   2.212   2.902   1.861 -0.0406 -0.3198  0.1700
 4087TIP3    H133676   2.132   2.952   1.841 -0.2714 -0.5982  0.4087
 4087TIP3    H233677   2.184   2.811   1.865  0.5238 -0.5689 -1.0628
 4088TIP3   OH233678   0.973   4.438   5.898 -0.1088 -0.3929  0.4711
 4088TIP3    H133679   0.904   4.469   5.956  0.2424 -0.5109  0.9518
 4088TIP3    H233680   0.995   4.350   5.930  0.3134 -0.3293  0.3709
 4089TIP3   OH233681   6.581   6.032   1.957 -0.2673  0.3177  0.0234
 4089TIP3    H133682   6.502   5.979   1.948 -1.5576  2.2323 -0.2129
 4089TIP3    H233683   6.613   6.014   2.046 -0.6838 -0.8311 -0.0569
 4090TIP3   OH233684   0.688   0.410  15.727 -0.3345  0.2414 -0.1924
 4090TIP3    H133685   0.647   0.413  15.813  0.1628  1.1205  0.0134
 4090TIP3    H233686   0.778   0.384  15.745 -0.4870 -0.5418 -0.5407
 4091TIP3   OH233687   0.021   5.239  14.696  1.0997 -0.3124 -0.2341
 4091TIP3    H133688   0.047   5.231  14.604  1.2389 -0.5920 -0.1708
 4091TIP3    H233689   0.002   5.332  14.707 -1.9417 -0.7662 -1.3306
 4092TIP3   OH233690   3.523   5.507  14.359  0.4570 -0.0303 -0.6230
 4092TIP3    H133691   3.455   5.440  14.362  0.8243 -0.4375 -1.3936
 4092TIP3    H233692   3.570   5.497  14.442 -0.2875  0.1200 -0.1748
 4093TIP3   OH233693   5.908   6.276   6.219  0.0165 -0.1907  0.8881
 4093TIP3    H133694   5.981   6.336   6.236 -0.6584  0.4468  1.5440
 4093TIP3    H233695   5.849   6.326   6.162  0.7215 -1.1808 -0.7486
 4094TIP3   OH233696   6.665   6.220  15.902  0.0887 -0.4706  0.2229
 4094TIP3    H133697   6.646   6.159  15.973  1.8124  0.8333  1.8429
 4094TIP3    H233698   6.593   6.206  15.839  0.3999 -4.0845  0.5525
 4095TIP3   OH233699   2.288   5.049  14.823 -0.1199 -0.1895  0.6069
 4095TIP3    H133700   2.357   5.015  14.765 -1.8449 -2.0942 -0.3938
 4095TIP3    H233701   2.312   5.016  14.910  1.1503  0.6198  0.5842
 4096TIP3   OH233702   5.548   5.367   3.440  0.3108 -0.4099  0.6444
 4096TIP3    H133703   5.621   5.392   3.496  0.2964  0.9751  0.0649
 4096TIP3    H233704   5.582   5.294   3.387  1.6570  0.9444 -0.4078
 4097TIP3   OH233705   5.857   3.663   2.529  0.2701 -0.4303  0.2673
 4097TIP3    H133706   5.892   3.637   2.615  2.4972  1.4913  0.0056
 4097TIP3    H233707   5.801   3.738   2.548 -0.2504 -0.8012  0.1889
 4098TIP3   OH233708   1.957   4.129   3.873  0.0496  0.4498 -0.3095
 4098TIP3    H133709   1.999   4.214   3.857  0.4546 -0.0738 -2.1402
 4098TIP3    H233710   1.902   4.144   3.950  1.9458  1.7253  0.8528
 4099TIP3   OH233711   4.226   0.802  10.289  0.3679 -0.1237  0.1394
 4099TIP3    H133712   4.208   0.710  10.305 -3.2481  0.3972 -0.6255
 4099TIP3    H233713   4.175   0.824  10.212  1.0962  2.5538  0.3673
 4100TIP3   OH233714   3.576   4.868  14.607  0.1637 -0.0243  0.2622
 4100TIP3    H133715   3.547   4.892  14.695  0.2643 -0.9950  0.5606
 4100TIP3    H233716   3.626   4.788  14.619 -0.1166 -0.3576 -0.7250
 4101TIP3   OH233717   0.536   2.386  14.783 -0.1430 -0.2609 -0.1540
 4101TIP3    H133718   0.614   2.362  14.833  0.2748  1.2343 -0.0592
 4101TIP3    H233719   0.557   2.472  14.746 -1.8881  0.3225  0.1585
 4102TIP3   OH233720   4.631   5.323  10.541  0.5164 -0.1092  0.4087
 4102TIP3    H133721   4.651   5.414  10.520 -0.5266 -0.3302 -1.6780
 4102TIP3    H233722   4.624   5.320  10.636 -0.2856  2.1590  0.4323
 4103TIP3   OH233723   4.689   0.949  14.507  0.2370  0.4649  0.1587
 4103TIP3    H133724   4.635   0.984  14.579  1.3452  1.4277  0.5384
 4103TIP3    H233725   4.777   0.943  14.544  0.4154 -1.0068 -0.4891
 4104TIP3   OH233726   0.179   0.251   0.680 -0.4433 -0.6947  0.5885
 4104TIP3    H133727   0.138   0.164   0.678  1.0573 -1.4728  2.1526
 4104TIP3    H233728   0.225   0.257   0.597  1.7964 -2.6100  1.6451
 4105TIP3   OH233729   5.046   4.876   2.157  0.1762 -0.5869  0.3863
 4105TIP3    H133730   4.982   4.922   2.211 -0.3588  0.4759 -1.1403
 4105TIP3    H233731   4.996   4.807   2.113  0.5317 -1.1687  0.8668
 4106TIP3   OH233732   0.300   5.244  14.117 -0.3771  0.1107  0.6051
 4106TIP3    H133733   0.275   5.308  14.184 -0.0990  0.1926  0.6332
 4106TIP3    H233734   0.234   5.176  14.122  0.3853 -0.5444  1.8635
 4107TIP3   OH233735   5.100   0.415  15.608  0.9365  0.1190  0.3310
 4107TIP3    H133736   5.110   0.362  15.687  1.6936  0.5252  0.5003
 4107TIP3    H233737   5.021   0.467  15.624  0.3245 -0.7678  0.2642
 4108TIP3   OH233738   1.793   6.691   4.269  0.0822 -0.4794  0.1877
 4108TIP3    H133739   1.817   6.660   4.182 -0.2206 -0.9753  0.2759
 4108TIP3    H233740   1.697   6.693   4.268  0.1001  1.1780 -0.0610
 4109TIP3   OH233741   4.966   1.837   2.238  0.5861  0.3002  0.3746
 4109TIP3    H133742   4.913   1.766   2.203 -0.5270  1.5099 -0.4030
 4109TIP3    H233743   4.983   1.811   2.329  2.8276 -2.4590 -0.7577
 4110TIP3   OH233744   2.564   2.764   2.429 -0.4546  0.5347  0.2138
 4110TIP3    H133745   2.542   2.671   2.442  0.1009  0.4422  0.4707
 4110TIP3    H233746   2.552   2.803   2.515 -2.2934  1.0324 -0.2440
 4111TIP3   OH233747   6.153   2.741   4.050 -0.5996  0.4377  0.2454
 4111TIP3    H133748   6.177   2.710   3.963  1.2372 -0.1195  0.9314
 4111TIP3    H233749   6.181   2.832   4.051 -0.8453  0.5154  0.1758
 4112TIP3   OH233750   1.448   5.859   0.812  0.6779 -0.3971 -0.1186
 4112TIP3    H133751   1.384   5.791   0.797  0.2971  0.1439 -1.0031
 4112TIP3    H233752   1.432   5.923   0.742  0.2099  1.2013  1.4301
 4113TIP3   OH233753   2.259   5.794  12.081 -0.4555 -0.3025 -0.2757
 4113TIP3    H133754   2.181   5.807  12.136 -0.2420 -0.9152  0.1791
 4113TIP3    H233755   2.239   5.840  12.000  0.3079  2.9105  1.2987
 4114TIP3   OH233756   0.488   2.555   0.832  0.0614  0.0508 -0.0986
 4114TIP3    H133757   0.495   2.559   0.927  1.0116  1.8594 -0.2301
 4114TIP3    H233758   0.396   2.577   0.814 -0.2335 -0.7506  0.4171
 4115TIP3   OH233759   5.132   5.958   1.391  0.4296  0.2232  0.1436
 4115TIP3    H133760   5.149   6.052   1.396 -0.1010  0.3845 -0.8473
 4115TIP3    H233761   5.136   5.938   1.297 -0.0817 -0.6222  0.2951
 4116TIP3   OH233762   0.942   6.123  12.114 -0.4759  0.3505 -0.4160
 4116TIP3    H133763   1.031   6.121  12.079  0.1474  2.2858  0.9620
 4116TIP3    H233764   0.903   6.041  12.085  0.9775  0.5285 -3.0307
 4117TIP3   OH233765   0.770   3.858   4.880  0.2928  0.0762 -0.3206
 4117TIP3    H133766   0.738   3.814   4.958 -0.0081 -1.8328 -1.4891
 4117TIP3    H233767   0.693   3.899   4.841  0.4912  1.2630  0.5123
 4118TIP3   OH233768   2.250   4.406  12.023 -0.4111 -0.0850  0.2893
 4118TIP3    H133769   2.257   4.501  12.011  0.1802 -0.0445  0.9052
 4118TIP3    H233770   2.244   4.394  12.118  2.7863 -0.8368  0.4724
 4119TIP3   OH233771   3.700   4.476  16.467  1.2472  0.0093  0.0120
 4119TIP3    H133772   3.666   4.560  16.435 -2.1840 -0.2673  2.6456
 4119TIP3    H233773   3.642   4.411  16.428  2.1134 -0.9296  0.2722
 4120TIP3   OH233774   1.349   5.828  14.388  0.0370  0.5119 -0.2065
 4120TIP3    H133775   1.296   5.752  14.364  1.8279 -1.3006  1.4020
 4120TIP3    H233776   1.437   5.807  14.357  0.9413  1.0969  1.8493
 4121TIP3   OH233777   6.159   6.212  13.778 -0.1372 -0.1495  0.4352
 4121TIP3    H133778   6.165   6.304  13.806 -2.0877 -0.0418  0.5365
 4121TIP3    H233779   6.106   6.170  13.846 -0.3988 -1.0596 -0.3356
 4122TIP3   OH233780   6.290   1.843  14.334  0.2458  0.0630  0.1808
 4122TIP3    H133781   6.327   1.755  14.335  0.2916  0.0779 -0.0683
 4122TIP3    H233782   6.197   1.830  14.316  0.1871  0.0446  0.4955
 4123TIP3   OH233783   0.199   0.074  12.576  0.1178 -0.1373  0.0984
 4123TIP3    H133784   0.217  -0.001  12.633 -2.3188  0.4605  1.7173
 4123TIP3    H233785   0.286   0.107  12.552  1.2061 -2.0781  1.1984
 4124TIP3   OH233786   6.667   6.701  15.000  0.3748  0.3964 -0.4865
 4124TIP3    H133787   6.704   6.789  15.001 -0.3153  0.6770  0.8053
 4124TIP3    H233788   6.739   6.645  15.029  0.1542  0.8045  0.8811
 4125TIP3   OH233789   3.076   6.699  16.073  0.4590  0.2540  0.2800
 4125TIP3    H133790   2.988   6.666  16.060  0.5093  0.3700 -0.3863
 4125TIP3    H233791   3.066   6.771  16.135  0.0002  0.6612 -0.2599
 4126TIP3   OH233792   4.847   4.608   3.338  0.1177 -0.0841 -0.3873
 4126TIP3    H133793   4.774   4.590   3.397  0.7343 -1.0393  0.0993
 4126TIP3    H233794   4.916   4.641   3.395  1.5792 -3.3387 -0.1522
 4127TIP3   OH233795   5.299   1.820   4.788  0.1677 -0.3223 -0.0217
 4127TIP3    H133796   5.392   1.796   4.779  0.4563 -0.0122  1.9169
 4127TIP3    H233797   5.265   1.761   4.855 -0.9203 -0.0804 -0.3518
 4128TIP3   OH233798   3.299   1.521   0.014  0.5693  0.9685  0.4325
 4128TIP3    H133799   3.247   1.484  -0.058  2.5806  1.2145 -1.1868
 4128TIP3    H233800   3.317   1.446   0.071  0.3507  0.4417 -0.1813
 4129TIP3   OH233801   1.989   1.115   1.332 -0.4230 -0.0080  0.6888
 4129TIP3    H133802   1.959   1.198   1.370  0.1149  0.1009  0.8772
 4129TIP3    H233803   2.003   1.136   1.239  0.3619  0.2924  0.8684
 4130TIP3   OH233804   3.713   2.229   0.638  0.3049 -0.6729  0.0724
 4130TIP3    H133805   3.778   2.159   0.641  1.6709  0.5810  0.2434
 4130TIP3    H233806   3.692   2.238   0.545  3.0112  1.2676 -0.4135
 4131TIP3   OH233807   4.961   1.049   4.056 -0.6253 -0.2931  0.6856
 4131TIP3    H133808   4.974   0.963   4.015  1.8936  1.4119 -2.3911
 4131TIP3    H233809   4.950   1.109   3.982 -0.3996  2.3233  2.7064
 4132TIP3   OH233810   0.535   4.218  14.561  0.1514  1.1082  0.6709
 4132TIP3    H133811   0.574   4.133  14.584 -2.3824 -0.7271 -1.4395
 4132TIP3    H233812   0.480   4.240  14.636 -1.0389 -0.3509  0.2649
 4133TIP3   OH233813   0.483   4.106   5.290 -0.1748  0.6325  0.2510
 4133TIP3    H133814   0.470   4.157   5.210 -1.9645 -0.2652 -0.0798
 4133TIP3    H233815   0.550   4.042   5.267 -1.0168  0.0737 -0.7155
 4134TIP3   OH233816   0.449   3.112  17.075  0.4955  0.1964 -0.1921
 4134TIP3    H133817   0.490   3.168  17.140  2.3487  0.5725 -1.6581
 4134TIP3    H233818   0.480   3.024  17.097 -0.4021  0.0564  0.5644
 4135TIP3   OH233819   4.734   3.557   2.859  0.1475 -0.0935  0.3818
 4135TIP3    H133820   4.647   3.595   2.869  0.0284 -0.5906  1.3958
 4135TIP3    H233821   4.760   3.577   2.769 -0.2071  1.7196  0.6716
 4136TIP3   OH233822   2.245   3.979  14.972  0.3591  0.5259 -0.1911
 4136TIP3    H133823   2.187   3.967  15.047  1.3801  0.2987  0.5789
 4136TIP3    H233824   2.189   3.962  14.896 -0.5915  0.3629  0.5277
 4137TIP3   OH233825   1.015   6.694  14.893  0.3702 -0.0823 -0.4003
 4137TIP3    H133826   0.961   6.726  14.965  0.1832  1.4892 -1.2173
 4137TIP3    H233827   0.981   6.606  14.875 -1.3397  0.5436 -0.3143
 4138TIP3   OH233828   6.045   6.187  11.605  0.2625  0.4180  0.1808
 4138TIP3    H133829   6.112   6.120  11.622  0.8629  0.6881 -1.0120
 4138TIP3    H233830   6.052   6.247  11.679 -0.2675 -0.8260  1.2526
 4139TIP3   OH233831   2.552   5.912   4.850  0.0609 -0.0292 -0.4895
 4139TIP3    H133832   2.461   5.899   4.825 -0.1780  0.3082  0.1966
 4139TIP3    H233833   2.582   5.985   4.796 -0.0633 -0.1600 -0.7350
 4140TIP3   OH233834   0.293   6.056   5.859 -0.2863  0.2637  0.1981
 4140TIP3    H133835   0.360   6.090   5.918  0.2409  0.6483 -0.6112
 4140TIP3    H233836   0.341   6.034   5.779 -1.0220 -0.0748 -0.1520
 4141TIP3   OH233837   0.861   3.762   3.135 -0.0677  0.3553  0.3779
 4141TIP3    H133838   0.903   3.771   3.049 -0.4294  0.1522  0.1746
 4141TIP3    H233839   0.819   3.675   3.132 -0.8392  0.7182  0.4173
 4142TIP3   OH233840   5.525   3.961   6.968 -0.1509  0.0889  0.0425
 4142TIP3    H133841   5.541   3.866   6.966 -1.4627 -0.1590  0.9296
 4142TIP3    H233842   5.430   3.969   6.972 -0.0915  1.4801 -1.0631
 4143TIP3   OH233843   4.278   0.788   3.607  0.0764 -0.2081  0.0800
 4143TIP3    H133844   4.298   0.879   3.631  1.0502 -0.3096 -0.2902
 4143TIP3    H233845   4.362   0.743   3.615  0.1125 -0.5618 -2.0260
 4144TIP3   OH233846   2.776   2.666  10.762  0.2683  0.5358  0.3177
 4144TIP3    H133847   2.788   2.753  10.799  1.5421  0.9934 -1.1041
 4144TIP3    H233848   2.766   2.681  10.668 -0.2877 -0.7901  0.1510
 4145TIP3   OH233849   5.716   4.581   4.672  0.2521  0.2682 -0.3702
 4145TIP3    H133850   5.750   4.595   4.584  2.7216  0.2922  0.5539
 4145TIP3    H233851   5.743   4.491   4.693 -0.9986 -0.0111  0.0841
 4146TIP3   OH233852   3.881   1.574   1.577  0.9956 -0.7689  0.3389
 4146TIP3    H133853   3.881   1.541   1.487 -1.7059 -1.6599  0.6110
 4146TIP3    H233854   3.922   1.505   1.629  0.6722 -1.1630  0.0737
 4147TIP3   OH233855   2.790   3.025   0.459  0.2671  0.2137 -0.3457
 4147TIP3    H133856   2.702   2.998   0.483  1.0233 -2.2418 -0.1986
 4147TIP3    H233857   2.847   2.965   0.506  2.0681  2.1814  0.0751
 4148TIP3   OH233858   3.579   2.126   1.971  0.5118 -0.6318  0.2627
 4148TIP3    H133859   3.671   2.103   1.957  0.0818 -1.3441 -1.5341
 4148TIP3    H233860   3.545   2.142   1.883 -1.6066 -2.3866  0.7248
 4149TIP3   OH233861   1.895   2.884  16.469  0.3812  0.0999 -0.0107
 4149TIP3    H133862   1.832   2.837  16.415 -0.0930 -1.0948  1.5232
 4149TIP3    H233863   1.940   2.943  16.409 -1.1544 -0.1265 -1.4080
 4150TIP3   OH233864   6.571   5.758   1.068 -0.0824 -0.6235  0.1095
 4150TIP3    H133865   6.599   5.755   0.977 -0.4207 -0.8181  0.0072
 4150TIP3    H233866   6.561   5.851   1.088  2.0954 -0.4731  0.6124
 4151TIP3   OH233867   5.021   3.047  11.121 -0.5590 -0.5026 -0.0327
 4151TIP3    H133868   5.092   3.096  11.079 -0.2152 -0.4030  0.6477
 4151TIP3    H233869   5.008   2.971  11.064 -0.0222 -0.4331 -0.2602
 4152TIP3   OH233870   4.901   5.394  11.049 -0.1609  1.0383  0.1363
 4152TIP3    H133871   4.878   5.369  11.138 -0.0167 -0.6677 -0.2850
 4152TIP3    H233872   4.994   5.371  11.040 -0.8711 -1.4974 -1.3222
 4153TIP3   OH233873   2.146   5.254  16.938 -0.4464 -0.7346  0.3372
 4153TIP3    H133874   2.074   5.293  16.890  0.9470 -1.4620 -2.4371
 4153TIP3    H233875   2.173   5.179  16.885  3.8349  0.8625  0.0764
 4154TIP3   OH233876   6.744   1.579   3.745 -0.0665  0.3120  0.5482
 4154TIP3    H133877   6.722   1.662   3.703 -1.8795  0.9496  2.6682
 4154TIP3    H233878   6.765   1.520   3.672  0.3441  2.3461 -1.0221
 4155TIP3   OH233879   6.634   6.418   4.695 -0.1753  0.7253 -0.0924
 4155TIP3    H133880   6.563   6.470   4.734  0.1631 -0.0196  1.5531
 4155TIP3    H233881   6.593   6.333   4.676  0.4043  0.0909  1.4163
 4156TIP3   OH233882   1.591   0.293  16.415 -0.1830  0.5778 -0.2156
 4156TIP3    H133883   1.570   0.355  16.345 -0.5529  0.5662 -0.1148
 4156TIP3    H233884   1.666   0.333  16.460  0.6092  0.1733 -1.1432
 4157TIP3   OH233885   5.520   3.232  15.562 -0.0188  0.1362 -0.8043
 4157TIP3    H133886   5.484   3.299  15.503 -2.1284  0.7049  1.0532
 4157TIP3    H233887   5.568   3.281  15.628  0.1704 -0.3069 -0.6120
 4158TIP3   OH233888   5.281   5.389   1.914  0.8932  0.3497 -0.0709
 4158TIP3    H133889   5.265   5.424   2.002 -0.7174 -0.5218 -0.0005
 4158TIP3    H233890   5.248   5.457   1.856 -2.0454 -0.8847  0.0661
 4159TIP3   OH233891   3.088   5.035   0.492  0.1086 -0.5076 -0.1302
 4159TIP3    H133892   3.174   4.996   0.475 -1.1538 -3.2759 -0.4779
 4159TIP3    H233893   3.083   5.110   0.434  1.9245 -0.8835 -0.7971
 4160TIP3   OH233894   3.707   4.203  13.766  0.2494  0.2716 -0.6111
 4160TIP3    H133895   3.697   4.287  13.720 -2.6538  0.8283  0.9554
 4160TIP3    H233896   3.680   4.137  13.702  0.1536  0.7215 -1.0377
 4161TIP3   OH233897   4.794   2.963   0.775 -0.0815 -0.3707 -0.1368
 4161TIP3    H133898   4.833   3.038   0.819  1.0870 -1.1900  0.2437
 4161TIP3    H233899   4.803   2.891   0.838  0.4847 -1.2640 -1.2323
 4162TIP3   OH233900   0.736   4.436   3.055  0.6717 -0.9003 -0.0653
 4162TIP3    H133901   0.758   4.367   2.993  1.7206 -1.0060  0.4122
 4162TIP3    H233902   0.676   4.394   3.117 -0.3625 -0.7982 -0.9852
 4163TIP3   OH233903   2.125   0.373   0.324  0.4840  0.3253 -0.1707
 4163TIP3    H133904   2.038   0.345   0.350  0.2073  1.1516 -0.1744
 4163TIP3    H233905   2.134   0.461   0.362  1.4517  0.0946  0.1489
 4164TIP3   OH233906   1.605   1.592  15.991  0.4835 -0.4575  0.1954
 4164TIP3    H133907   1.623   1.535  16.066  0.6200  1.0984  1.3858
 4164TIP3    H233908   1.549   1.662  16.026 -1.9371 -1.2856 -1.8398
 4165TIP3   OH233909   6.156   3.502   6.867 -0.1819  0.2381 -0.6393
 4165TIP3    H133910   6.090   3.516   6.799 -0.1108  1.6552 -0.4419
 4165TIP3    H233911   6.107   3.470   6.943 -0.5318  0.4817 -0.7597
 4166TIP3   OH233912   4.234   6.753  13.913 -0.4504  0.4163 -0.1653
 4166TIP3    H133913   4.213   6.813  13.984 -0.2957  0.5302 -0.2152
 4166TIP3    H233914   4.243   6.809  13.836  1.1701  0.5059  0.0801
 4167TIP3   OH233915   3.411   3.503   1.562  0.8156 -0.3139  0.3612
 4167TIP3    H133916   3.428   3.573   1.625  1.2968 -0.6886  0.6518
 4167TIP3    H233917   3.486   3.507   1.501  0.4209 -0.0388 -0.1101
 4168TIP3   OH233918   3.739   0.764  13.561  0.0207 -0.8391  0.2538
 4168TIP3    H133919   3.710   0.728  13.477 -1.9212 -0.7835  0.8714
 4168TIP3    H233920   3.689   0.715  13.626 -0.7538  1.1940  1.2285
 4169TIP3   OH233921   4.120   1.222  14.816  0.5992  0.9028  0.5544
 4169TIP3    H133922   4.194   1.179  14.859  0.9759 -0.2691 -1.1979
 4169TIP3    H233923   4.155   1.307  14.787  1.5268  0.0520 -0.9270
 4170TIP3   OH233924   6.635   1.450   4.528  0.1675  0.3736 -0.0828
 4170TIP3    H133925   6.562   1.448   4.467 -0.2749  0.0550  0.4524
 4170TIP3    H233926   6.593   1.454   4.614  0.7835  0.2116  0.2223
 4171TIP3   OH233927   0.757   5.601  12.033 -0.1349 -0.1177 -0.0558
 4171TIP3    H133928   0.720   5.609  11.945  0.4956  0.5339 -0.2659
 4171TIP3    H233929   0.737   5.511  12.060 -0.6456 -0.2040 -0.7173
 4172TIP3   OH233930   5.828   4.766  11.413  0.2570  0.8334 -0.2216
 4172TIP3    H133931   5.856   4.737  11.326  1.9249 -0.7760  0.8159
 4172TIP3    H233932   5.761   4.832  11.396 -0.9370 -0.9225 -2.7297
 4173TIP3   OH233933   3.699   1.819  14.458  0.3010  0.2375  0.2063
 4173TIP3    H133934   3.706   1.832  14.553 -0.1291  1.6881  0.0526
 4173TIP3    H233935   3.740   1.897  14.420 -0.0447 -0.0593 -0.7947
 4174TIP3   OH233936   5.344   5.181   0.732 -0.1182  0.0017  0.0387
 4174TIP3    H133937   5.364   5.097   0.689  0.0784  0.3175 -0.4893
 4174TIP3    H233938   5.377   5.170   0.821  1.2489  0.0517 -0.4595
 4175TIP3   OH233939   1.763   4.977  11.571  0.0434  0.0779  0.1931
 4175TIP3    H133940   1.807   5.062  11.562  0.2549 -0.0889 -0.3598
 4175TIP3    H233941   1.724   4.961  11.484  0.2858 -0.5448  0.1991
 4176TIP3   OH233942   4.774   2.874   4.899 -0.1198 -0.5358  0.1405
 4176TIP3    H133943   4.826   2.953   4.885 -1.7549  0.3286 -1.2993
 4176TIP3    H233944   4.805   2.812   4.833 -0.0037 -0.4913  0.1534
 4177TIP3   OH233945   2.294   2.397   2.853 -0.4508  0.0788  0.3980
 4177TIP3    H133946   2.387   2.402   2.829 -1.1663 -1.1457 -2.9376
 4177TIP3    H233947   2.273   2.304   2.846 -2.3286  0.5559 -0.5869
 4178TIP3   OH233948   5.965   4.903  13.019 -0.4116  0.1825 -0.2200
 4178TIP3    H133949   5.920   4.878  12.939  0.2890  1.8192 -1.1575
 4178TIP3    H233950   6.058   4.898  12.997 -0.2182  0.6932  0.4585
 4179TIP3   OH233951   6.567   6.387  17.103 -0.2717  0.5875 -0.4144
 4179TIP3    H133952   6.600   6.336  17.178 -2.1608 -0.3997 -0.2156
 4179TIP3    H233953   6.496   6.439  17.140  0.3473  1.8869 -1.0470
 4180TIP3   OH233954   5.239   1.917   2.281  0.6695  0.0241  0.6370
 4180TIP3    H133955   5.148   1.923   2.252  0.7941 -1.9749 -0.2504
 4180TIP3    H233956   5.234   1.884   2.370  0.5373 -0.6853  0.3704
 4181TIP3   OH233957   3.661   4.225   1.918  0.0450 -0.6598  0.4422
 4181TIP3    H133958   3.640   4.318   1.929 -1.4309 -0.8934 -0.2012
 4181TIP3    H233959   3.614   4.200   1.838  0.3532 -1.9812  0.6706
 4182TIP3   OH233960   0.222   6.178   2.475 -0.4313  0.3900  0.9879
 4182TIP3    H133961   0.197   6.106   2.417 -0.5657  0.4889  0.9210
 4182TIP3    H233962   0.183   6.157   2.559  2.4287 -1.3729  1.9216
 4183TIP3   OH233963   0.940   5.889  15.442  0.2042 -0.0327 -0.7575
 4183TIP3    H133964   0.947   5.960  15.506  0.6797  0.4901 -1.3751
 4183TIP3    H233965   0.859   5.908  15.395 -1.1408 -1.4889  0.9521
 4184TIP3   OH233966   6.765   2.436   2.761  0.1485  0.1562  0.0871
 4184TIP3    H133967   6.751   2.499   2.690  1.2345 -0.7349 -0.9550
 4184TIP3    H233968   6.702   2.366   2.744 -0.9953  0.9060  1.1921
 4185TIP3   OH233969   5.068   4.187  13.926 -0.2131 -0.6844 -0.6431
 4185TIP3    H133970   5.089   4.266  13.876  2.4761  0.6712  2.3698
 4185TIP3    H233971   5.141   4.127  13.908  0.3211 -0.5213  0.8362
 4186TIP3   OH233972   3.631   4.098   0.788  0.4773 -0.8387 -0.3316
 4186TIP3    H133973   3.549   4.052   0.768  1.1063 -1.7197 -0.9169
 4186TIP3    H233974   3.603   4.181   0.827 -0.7038 -0.9285 -0.9678
 4187TIP3   OH233975   5.985   4.973   4.963  0.3741 -0.4007 -0.3263
 4187TIP3    H133976   6.049   5.034   4.926  1.4122  0.0789  2.1532
 4187TIP3    H233977   6.025   4.887   4.951  0.0172 -0.3991 -1.6288
 4188TIP3   OH233978   4.108   6.151  12.399 -0.0125  0.3033 -0.3547
 4188TIP3    H133979   4.055   6.170  12.476  1.5860  0.5859  0.7125
 4188TIP3    H233980   4.052   6.099  12.343 -2.5113  3.2180 -0.7062
 4189TIP3   OH233981   1.234   1.292   4.007 -0.0091 -0.6022 -0.1193
 4189TIP3    H133982   1.190   1.209   4.028 -0.9702  0.3996  1.9081
 4189TIP3    H233983   1.165   1.358   4.014  1.1859  0.6212  0.1891
 4190TIP3   OH233984   2.268   4.194  13.073  0.1839 -0.4289 -0.5863
 4190TIP3    H133985   2.333   4.232  13.133  0.8286 -1.0083 -0.9141
 4190TIP3    H233986   2.242   4.112  13.116  0.7602 -0.9208 -1.1647
 4191TIP3   OH233987   0.242   3.023   4.825  0.1274 -0.5341 -0.0929
 4191TIP3    H133988   0.299   3.092   4.790 -0.3292 -0.4294 -0.6425
 4191TIP3    H233989   0.180   3.069   4.881  0.1557 -0.5629 -0.0382
 4192TIP3   OH233990   2.610   3.474  13.292  0.5325  0.5060 -0.4392
 4192TIP3    H133991   2.678   3.462  13.226  1.3431  2.6991 -0.0628
 4192TIP3    H233992   2.627   3.406  13.357  1.3044 -0.0430 -1.2088
 4193TIP3   OH233993   4.135   6.369  15.286  0.5108  0.7377  0.0009
 4193TIP3    H133994   4.150   6.313  15.210 -1.1183  0.7798 -0.3775
 4193TIP3    H233995   4.151   6.458  15.254  0.5726  0.6913 -0.0962
 4194TIP3   OH233996   1.808   1.187  13.749  0.3597 -0.4177 -0.1232
 4194TIP3    H133997   1.792   1.136  13.828  2.4021  0.3429  0.8217
 4194TIP3    H233998   1.769   1.136  13.678 -1.4446 -1.1454  1.3410
 4195TIP3   OH233999   4.238   3.474  14.063  0.2664  0.0393 -0.2437
 4195TIP3    H134000   4.212   3.385  14.089 -1.7185  0.0785 -1.9431
 4195TIP3    H234001   4.292   3.460  13.985  0.6366  0.2857 -0.0312
 4196TIP3   OH234002   0.178   1.778  14.730  0.1866  0.0741 -0.6392
 4196TIP3    H134003   0.233   1.746  14.802 -0.3028 -0.4892 -0.5130
 4196TIP3    H234004   0.138   1.858  14.765 -1.3196 -1.0753  0.3097
 4197TIP3   OH234005   1.931   6.052  15.794  0.1970 -0.1327  0.0008
 4197TIP3    H134006   1.923   5.964  15.759 -2.5795 -0.3861  1.1626
 4197TIP3    H234007   1.952   6.040  15.886  3.4876  0.5003 -0.6096
 4198TIP3   OH234008   0.237   4.420   2.988  0.4724 -0.1269 -1.0129
 4198TIP3    H134009   0.195   4.466   2.915 -0.4538 -0.1038 -0.4650
 4198TIP3    H234010   0.184   4.341   3.001  1.8539 -1.1978 -1.7221
 4199TIP3   OH234011   5.564   5.722   3.175  0.7100  0.4197 -0.3407
 4199TIP3    H134012   5.597   5.715   3.265  1.5011 -1.7350 -0.7805
 4199TIP3    H234013   5.631   5.682   3.121  0.2273  1.6743 -1.9251
 4200TIP3   OH234014   1.539   3.041  15.730 -0.2547 -0.0268 -0.6057
 4200TIP3    H134015   1.497   3.076  15.809  0.7589 -0.5614  0.1711
 4200TIP3    H234016   1.581   3.117  15.689 -0.6905  0.2283 -0.5792
 4201TIP3   OH234017   4.515   6.628  15.272 -0.2081  0.0604 -0.1355
 4201TIP3    H134018   4.562   6.696  15.319 -1.4470  1.3916 -0.7516
 4201TIP3    H234019   4.565   6.548  15.286  1.7527  1.2801 -0.1165
 4202TIP3   OH234020   0.163   1.941  15.293 -0.2504 -0.2473  0.0243
 4202TIP3    H134021   0.215   1.980  15.223 -0.9710 -0.0948 -0.4366
 4202TIP3    H234022   0.077   1.927  15.254 -1.2194  1.5442  1.3794
 4203TIP3   OH234023   5.267   3.459  12.933  0.1790 -0.3345  0.1208
 4203TIP3    H134024   5.195   3.509  12.970  1.5530  1.8518 -0.0259
 4203TIP3    H234025   5.338   3.468  12.996  1.0036 -0.6702 -0.7355
 4204TIP3   OH234026   3.080   0.642   3.753  0.3917 -0.0341  0.5657
 4204TIP3    H134027   3.174   0.623   3.751  0.3463 -0.1818 -1.0397
 4204TIP3    H234028   3.064   0.688   3.671 -1.4722 -2.5881 -0.5488
 4205TIP3   OH234029   6.236   0.716  14.365  0.1813 -0.3859 -0.0356
 4205TIP3    H134030   6.266   0.721  14.456  0.9112 -2.2859 -0.1478
 4205TIP3    H234031   6.243   0.623  14.342 -0.4972 -0.0145 -1.8738
 4206TIP3   OH234032   1.954   6.757   1.834  0.2203  1.0372 -0.1433
 4206TIP3    H134033   1.915   6.844   1.837  0.2808  1.0336  1.3972
 4206TIP3    H234034   1.998   6.748   1.919 -1.9600 -1.4534  0.7993
 4207TIP3   OH234035   5.577   4.483   0.815 -0.2008 -0.0704 -0.0428
 4207TIP3    H134036   5.647   4.446   0.761  1.4080  2.4883  0.1920
 4207TIP3    H234037   5.498   4.474   0.762  0.6344 -1.3230 -1.0933
 4208TIP3   OH234038   4.581   4.831   4.026 -0.6196 -0.2867 -0.2916
 4208TIP3    H134039   4.628   4.786   4.096 -0.9887 -0.1857  0.0188
 4208TIP3    H234040   4.495   4.790   4.024 -0.5885 -0.3361 -0.7320
 4209TIP3   OH234041   0.023   4.475  12.118  0.4690 -0.0769 -0.3356
 4209TIP3    H134042   0.015   4.570  12.120  0.7209 -0.0667  0.0665
 4209TIP3    H234043  -0.051   4.443  12.170  0.1234 -0.1131 -0.8457
 4210TIP3   OH234044   2.976   0.008   4.047  0.0807  0.0773 -0.3270
 4210TIP3    H134045   2.984  -0.056   4.118  0.2553  1.8012  1.2663
 4210TIP3    H234046   3.066   0.034   4.028 -0.0035  0.0012 -0.8362
 4211TIP3   OH234047   5.748   5.758  13.876 -0.2136  1.0651 -0.2254
 4211TIP3    H134048   5.732   5.749  13.970 -1.9157  2.1170 -0.3996
 4211TIP3    H234049   5.837   5.794  13.869  0.2382  0.1867  0.9418
 4212TIP3   OH234050   0.455   5.017   2.462 -1.0489  0.1956 -0.0839
 4212TIP3    H134051   0.522   5.070   2.506 -2.6494  1.2333  1.1442
 4212TIP3    H234052   0.408   5.079   2.406 -0.4865 -0.6869 -1.5585
 4213TIP3   OH234053   3.301   5.392   2.624  0.0643 -0.2427  0.3638
 4213TIP3    H134054   3.245   5.327   2.579  1.8608 -1.1601 -0.6139
 4213TIP3    H234055   3.374   5.341   2.658 -0.2893  0.7599  2.7333
 4214TIP3   OH234056   5.500   3.825  12.204 -0.0796 -0.4791 -0.2909
 4214TIP3    H134057   5.434   3.858  12.143 -0.7044 -1.2252 -0.0208
 4214TIP3    H234058   5.486   3.877  12.284 -0.7523 -1.0717 -0.0227
 4215TIP3   OH234059   2.138   5.223   6.151  0.4201 -0.1255  1.1155
 4215TIP3    H134060   2.064   5.224   6.212  0.6807  2.1981  1.4350
 4215TIP3    H234061   2.205   5.172   6.197 -0.5202 -1.1363  1.3805
 4216TIP3   OH234062   4.766   2.140   4.310 -0.5920 -0.1480  0.3693
 4216TIP3    H134063   4.686   2.145   4.363 -0.9720 -0.1497 -0.1971
 4216TIP3    H234064   4.795   2.231   4.302  1.4032 -0.4398  3.4742
 4217TIP3   OH234065   2.286   3.042  13.325  0.1037  0.0615 -0.4685
 4217TIP3    H134066   2.246   3.112  13.377 -0.3229 -0.2586 -0.3681
 4217TIP3    H234067   2.237   3.042  13.243 -0.0433 -0.2693 -0.3820
 4218TIP3   OH234068   3.584   4.709   5.070  0.5324 -0.5901  0.4733
 4218TIP3    H134069   3.667   4.683   5.110  0.6872 -1.2561 -0.2574
 4218TIP3    H234070   3.555   4.631   5.023 -0.5906 -0.4113  0.8515
 4219TIP3   OH234071   2.744   4.157  14.579  0.1668 -0.3875  0.2038
 4219TIP3    H134072   2.756   4.157  14.484  2.2845 -1.4557  0.4315
 4219TIP3    H234073   2.740   4.250  14.603 -1.2012 -0.1142 -0.9933
 4220TIP3   OH234074   6.496   4.571   3.274 -0.4174  0.5756 -0.4154
 4220TIP3    H134075   6.421   4.625   3.301 -2.1805 -1.5302 -1.0163
 4220TIP3    H234076   6.548   4.629   3.217 -1.0929  2.3336  0.7100
 4221TIP3   OH234077   4.048   6.200  16.661  0.0352 -0.0401 -0.4048
 4221TIP3    H134078   4.001   6.277  16.629  1.2075 -0.1982 -2.6215
 4221TIP3    H234079   3.983   6.130  16.660 -0.3720  0.3444 -0.8713
 4222TIP3   OH234080   4.384   2.680   0.910 -0.3432 -0.1677 -0.2448
 4222TIP3    H134081   4.445   2.625   0.958  0.7782 -0.1393 -1.6036
 4222TIP3    H234082   4.419   2.768   0.919 -0.9431  0.0344  0.1166
 4223TIP3   OH234083   2.433   6.314  15.709 -0.3950 -0.3155 -0.3975
 4223TIP3    H134084   2.512   6.272  15.743  0.2419  0.5196 -0.8159
 4223TIP3    H234085   2.429   6.287  15.617 -0.1376  0.2996 -0.5936
 4224TIP3   OH234086   2.220   2.238  12.104 -0.4721 -0.0478  0.3098
 4224TIP3    H134087   2.251   2.327  12.116 -2.4601  0.6701  0.3894
 4224TIP3    H234088   2.240   2.194  12.187  2.0976 -0.2172 -0.3524
 4225TIP3   OH234089   6.219   5.340   2.030  0.2379  0.9956 -0.4457
 4225TIP3    H134090   6.240   5.426   2.067 -0.3164  1.1760 -0.5531
 4225TIP3    H234091   6.174   5.294   2.101  1.4767  0.4081 -0.0283
 4226TIP3   OH234092   0.831   0.668  15.626  0.3134  0.5461  0.0972
 4226TIP3    H134093   0.785   0.587  15.603 -0.0386  0.4826  1.0028
 4226TIP3    H234094   0.782   0.703  15.701  0.7575  1.3384  0.0183
 4227TIP3   OH234095   6.575   4.004   4.155 -0.0586  0.3993  0.0906
 4227TIP3    H134096   6.638   4.076   4.164  0.4039  0.8480 -5.1307
 4227TIP3    H234097   6.628   3.930   4.126 -1.2031 -0.7476  0.9096
 4228TIP3   OH234098   4.754   2.425  14.009  0.0771 -0.3873 -0.1406
 4228TIP3    H134099   4.810   2.348  14.001 -0.3628 -0.7761  0.3912
 4228TIP3    H234100   4.762   2.450  14.101  0.8279  0.6775 -0.4928
 4229TIP3   OH234101   3.436   0.251   2.498  0.5347 -0.5353 -0.0551
 4229TIP3    H134102   3.500   0.180   2.485  0.1685 -1.1197  1.2029
 4229TIP3    H234103   3.489   0.326   2.525  1.0158 -0.0582 -2.2182
 4230TIP3   OH234104   1.711   6.602  10.785 -0.3985  0.5635 -0.0059
 4230TIP3    H134105   1.637   6.542  10.785  1.1430 -1.3863 -0.0560
 4230TIP3    H234106   1.702   6.651  10.867  0.2368 -2.1874  1.7626
 4231TIP3   OH234107   1.712   4.752   5.286 -0.0043 -0.4163 -0.5892
 4231TIP3    H134108   1.667   4.812   5.346 -0.9311 -0.5984 -1.0938
 4231TIP3    H234109   1.805   4.774   5.296 -0.1140 -0.6827  1.1647
 4232TIP3   OH234110   3.819   2.012  16.460  0.1584 -0.3949 -0.1163
 4232TIP3    H134111   3.844   2.006  16.552 -0.0878 -1.4108 -0.1176
 4232TIP3    H234112   3.766   1.934  16.444 -0.9140  0.4530 -0.7708
 4233TIP3   OH234113   2.185   2.178   3.462 -0.4189  0.3348 -0.5110
 4233TIP3    H134114   2.118   2.193   3.529 -1.0470  1.5171 -1.3776
 4233TIP3    H234115   2.180   2.084   3.443 -2.1107  0.4717 -0.8262
 4234TIP3   OH234116   0.722   4.594  16.089 -0.4174  0.7220 -0.0845
 4234TIP3    H134117   0.811   4.580  16.057 -1.0148  1.6741 -2.2287
 4234TIP3    H234118   0.725   4.678  16.135 -1.2274  3.1290 -4.2667
 4235TIP3   OH234119   3.701   4.334   4.496 -0.0885 -0.3754  0.5647
 4235TIP3    H134120   3.655   4.313   4.416 -1.0056 -1.6366  1.4021
 4235TIP3    H234121   3.778   4.384   4.468 -0.8477 -0.0825 -1.0053
 4236TIP3   OH234122   6.615   5.579   4.507 -0.0309  0.4723 -0.0100
 4236TIP3    H134123   6.564   5.527   4.570 -3.1486  1.7997 -1.2948
 4236TIP3    H234124   6.605   5.669   4.537 -0.1519  0.9474 -1.4232
 4237TIP3   OH234125   1.138   5.972   0.481 -0.0323 -0.6398  0.3652
 4237TIP3    H134126   1.147   5.922   0.399 -0.4132  2.4377 -1.6084
 4237TIP3    H234127   1.228   5.990   0.508  0.0737 -0.3899 -0.1582
 4238TIP3   OH234128   6.330   0.650   2.340 -0.4841 -0.6966  0.0137
 4238TIP3    H134129   6.388   0.652   2.264  0.8934 -0.9546  1.0576
 4238TIP3    H234130   6.345   0.565   2.380 -2.4410 -1.2404 -0.3570
 4239TIP3   OH234131   4.130   6.491   2.433 -0.1057  0.4429 -0.5195
 4239TIP3    H134132   4.104   6.558   2.497 -0.5844  0.6951 -0.9682
 4239TIP3    H234133   4.148   6.541   2.353  0.9968  0.1821 -0.4351
 4240TIP3   OH234134   1.462   3.517   0.792 -0.0550 -0.3802 -0.2264
 4240TIP3    H134135   1.441   3.570   0.714  1.2531 -0.5149 -0.6748
 4240TIP3    H234136   1.468   3.581   0.863 -1.2675 -0.2571 -0.2206
 4241TIP3   OH234137   3.614   2.503   3.989 -0.0383  0.4360 -0.8810
 4241TIP3    H134138   3.525   2.505   4.025  0.0981 -1.1999 -0.4362
 4241TIP3    H234139   3.658   2.577   4.031 -0.5119 -0.1480  0.6632
 4242TIP3   OH234140   2.223   5.380   5.317  0.9307  0.4633  0.2678
 4242TIP3    H134141   2.204   5.317   5.247  0.8975 -0.6992  1.3161
 4242TIP3    H234142   2.153   5.446   5.308  0.6597  0.0848 -0.4982
 4243TIP3   OH234143   2.737   5.454  11.208  0.1547 -0.5181 -0.0732
 4243TIP3    H134144   2.766   5.504  11.132  0.1799  0.4043  0.5413
 4243TIP3    H234145   2.803   5.385  11.218  0.5443 -0.1989 -0.4501
 4244TIP3   OH234146   1.226   6.154  12.029  0.6623 -0.1666  0.0917
 4244TIP3    H134147   1.319   6.176  12.020  0.6477 -1.1118 -2.6494
 4244TIP3    H234148   1.225   6.083  12.093  1.6203  1.1264  1.5883
 4245TIP3   OH234149   3.912   4.703  16.303  0.0513 -0.1509  0.4109
 4245TIP3    H134150   3.825   4.718  16.265  0.6345 -1.4248 -1.5111
 4245TIP3    H234151   3.972   4.748  16.244  0.7823 -0.1304  1.1665
 4246TIP3   OH234152   4.904   5.312  14.394  0.3519  0.2019  0.5259
 4246TIP3    H134153   4.877   5.335  14.483 -0.9186  0.4056  0.0990
 4246TIP3    H234154   4.848   5.365  14.337 -0.1080 -1.2558 -0.4221
 4247TIP3   OH234155   0.426   4.699  12.416 -0.0143  0.1585 -0.7582
 4247TIP3    H134156   0.372   4.746  12.480 -0.1738 -0.0437 -0.7426
 4247TIP3    H234157   0.441   4.613  12.456  0.7230  0.3803 -0.5459
 4248TIP3   OH234158   5.689   3.701  14.315  0.0879 -0.2912  0.2265
 4248TIP3    H134159   5.730   3.764  14.374  2.2348 -0.5370 -0.9546
 4248TIP3    H234160   5.645   3.639  14.373 -0.8610  1.4797  1.4407
 4249TIP3   OH234161   3.701   3.686   3.831 -0.2354 -0.3293 -0.3472
 4249TIP3    H134162   3.747   3.636   3.764  1.6699 -1.3455  1.6526
 4249TIP3    H234163   3.649   3.622   3.879 -0.1225  0.0659  0.3230
 4250TIP3   OH234164   3.958   4.047   0.066 -0.1033 -0.5501  0.4286
 4250TIP3    H134165   3.980   4.139   0.050  0.3772 -0.8314 -0.5421
 4250TIP3    H234166   4.034   4.011   0.112 -0.4872 -0.3527  1.2347
 4251TIP3   OH234167   5.469   6.023  15.808 -0.5391 -0.0334  0.3233
 4251TIP3    H134168   5.497   5.957  15.872  0.6900 -0.1469 -0.3259
 4251TIP3    H234169   5.374   6.015  15.807 -0.5654 -0.2133  1.9417
 4252TIP3   OH234170   4.756   2.681  14.377  0.5907  0.1807  0.5632
 4252TIP3    H134171   4.803   2.728  14.445  1.3531  0.9364 -0.4670
 4252TIP3    H234172   4.739   2.595  14.415  0.4183  0.8034  1.9438
 4253TIP3   OH234173   1.896   5.073  14.477  0.1188  0.1831  0.1390
 4253TIP3    H134174   1.864   5.135  14.543  1.0549  1.1651 -0.3152
 4253TIP3    H234175   1.980   5.109  14.450  0.2576 -0.8232 -0.7813
 4254TIP3   OH234176   2.475   4.324  13.287 -0.0455  0.1825  0.4220
 4254TIP3    H134177   2.487   4.408  13.330  0.1967 -0.9480  2.6416
 4254TIP3    H234178   2.562   4.284  13.289 -0.2819 -0.3634 -0.0929
 4255TIP3   OH234179   4.831   4.155  15.164  0.1491  0.0418 -0.3130
 4255TIP3    H134180   4.849   4.089  15.097  0.8779  0.6536 -0.7358
 4255TIP3    H234181   4.917   4.190  15.187 -0.0310 -0.6558  1.4711
 4256TIP3   OH234182   4.549   3.002   2.667  0.3655 -0.1496  0.1725
 4256TIP3    H134183   4.599   2.923   2.690  0.2889 -0.0651  0.6297
 4256TIP3    H234184   4.462   2.986   2.703  0.0839 -0.2619 -0.5571
 4257TIP3   OH234185   6.518   4.526   2.220  0.0185  0.7506  0.5520
 4257TIP3    H134186   6.571   4.597   2.184  1.4888  0.2268  1.6252
 4257TIP3    H234187   6.468   4.493   2.146  0.0422  2.2678 -0.1602
 4258TIP3   OH234188   1.340   0.978  15.774  0.9471  0.1538  0.2066
 4258TIP3    H134189   1.347   0.991  15.679  0.5254 -0.1928  0.1214
 4258TIP3    H234190   1.426   0.945  15.801  0.9432 -0.1266 -0.1221
 4259TIP3   OH234191   3.109   4.006  13.447  0.0816  0.0357 -0.1647
 4259TIP3    H134192   3.114   3.981  13.355 -1.2773  0.2038 -0.2977
 4259TIP3    H234193   3.033   4.064  13.452 -0.4845 -0.8099  1.2513
 4260TIP3   OH234194   5.062   6.203  13.558  0.2358 -0.2219  1.4412
 4260TIP3    H134195   5.103   6.118  13.541 -0.0670 -0.0545 -0.1873
 4260TIP3    H234196   5.130   6.267  13.537 -1.1107  0.1027 -2.3296
 4261TIP3   OH234197   0.127   5.060  12.466  0.3119  0.4869 -0.1500
 4261TIP3    H134198   0.156   5.111  12.542  1.0317  1.0154 -0.7615
 4261TIP3    H234199   0.195   5.076  12.400  0.4134 -1.0714 -0.4373
 4262TIP3   OH234200   4.500   2.698   2.166  0.2242 -0.0415  0.0934
 4262TIP3    H134201   4.559   2.709   2.091  0.0815 -0.7609 -0.1266
 4262TIP3    H234202   4.436   2.634   2.136 -0.0024 -0.1129  0.7376
 4263TIP3   OH234203   0.773   5.648   5.444  0.1869  0.2273 -0.1564
 4263TIP3    H134204   0.858   5.690   5.428 -0.1778  0.4533 -1.5208
 4263TIP3    H234205   0.736   5.636   5.357  0.1320 -2.6533  0.2380
 4264TIP3   OH234206   0.203   4.353   3.695  0.1829 -0.2965 -0.5666
 4264TIP3    H134207   0.185   4.444   3.717 -1.8464 -1.0619  1.1077
 4264TIP3    H234208   0.281   4.331   3.745  0.7012  0.5327 -1.0062
 4265TIP3   OH234209   4.890   4.564  13.897 -0.1163 -0.0011  0.2138
 4265TIP3    H134210   4.919   4.572  13.988  2.7371  1.1098 -0.7407
 4265TIP3    H234211   4.830   4.638  13.885  1.9640  1.7738  0.3471
 4266TIP3   OH234212   1.568   5.250  12.756  0.0139  0.2253  0.0038
 4266TIP3    H134213   1.488   5.278  12.800 -0.7370 -0.1574 -1.1060
 4266TIP3    H234214   1.612   5.195  12.821 -1.4853 -0.9977  0.0252
 4267TIP3   OH234215   6.021   2.403   3.345 -0.4305  0.3706  0.5264
 4267TIP3    H134216   5.938   2.439   3.376 -0.7504 -1.4157  1.8389
 4267TIP3    H234217   6.086   2.435   3.409 -0.4017  0.2531  0.5557
 4268TIP3   OH234218   1.933   2.897   2.728  0.5340  0.2161  0.5466
 4268TIP3    H134219   2.009   2.896   2.787  0.4152  1.1331  0.7309
 4268TIP3    H234220   1.968   2.867   2.644  0.7729 -0.7975  1.0059
 4269TIP3   OH234221   4.337   0.760  16.401 -0.0365  0.1372 -0.3366
 4269TIP3    H134222   4.393   0.831  16.433  0.2833 -0.1151 -0.3279
 4269TIP3    H234223   4.388   0.719  16.331 -0.7763  0.7499 -1.2369
 4270TIP3   OH234224   3.220   4.865  14.456 -0.0101  0.1200  0.2838
 4270TIP3    H134225   3.285   4.824  14.398 -1.4677 -1.4552 -0.2712
 4270TIP3    H234226   3.179   4.932  14.402  1.0241  1.0168  0.5887
 4271TIP3   OH234227   0.905   3.589  12.763  0.1941 -0.5503  0.0041
 4271TIP3    H134228   0.961   3.511  12.760  0.9652 -0.0797  1.7715
 4271TIP3    H234229   0.948   3.647  12.825 -1.6419  0.3029  0.5133
 4272TIP3   OH234230   1.107   0.825  15.843 -0.1981  0.1302  0.5064
 4272TIP3    H134231   1.035   0.852  15.787  0.0558 -1.6990 -0.7582
 4272TIP3    H234232   1.175   0.891  15.829 -0.2657 -0.1263 -1.1398
 4273TIP3   OH234233   2.632   6.363  16.042 -0.4401 -0.0549  0.4175
 4273TIP3    H134234   2.599   6.347  16.131  0.3823 -2.8603  0.2734
 4273TIP3    H234235   2.555   6.358  15.986 -0.8694  1.0999  0.8950
 4274TIP3   OH234236   2.416   3.593  15.538  0.1562  0.0393  0.5735
 4274TIP3    H134237   2.506   3.581  15.567  0.9940 -0.1678 -1.9965
 4274TIP3    H234238   2.398   3.686  15.552  1.0721  0.2572  0.3015
 4275TIP3   OH234239   1.037   5.254   3.636  0.1710  0.2443 -0.8785
 4275TIP3    H134240   0.992   5.195   3.696 -0.3371 -0.1762 -1.6674
 4275TIP3    H234241   1.098   5.303   3.692 -0.9622  0.5304  0.1425
 4276TIP3   OH234242   6.785   1.056  14.354 -0.2990  0.2405 -0.1899
 4276TIP3    H134243   6.875   1.029  14.334  0.9129  3.9112  0.0087
 4276TIP3    H234244   6.772   1.027  14.444  0.3113 -1.1541 -0.5266
 4277TIP3   OH234245   3.686   6.581  16.198  0.4218  0.6794 -0.1117
 4277TIP3    H134246   3.602   6.614  16.230  0.6577  0.6028  0.5769
 4277TIP3    H234247   3.698   6.627  16.114 -0.7051  0.0516 -0.6336
 4278TIP3   OH234248   6.639   4.700   0.402 -0.7449  0.1829  0.7821
 4278TIP3    H134249   6.565   4.760   0.407  0.9715  2.3569  0.7193
 4278TIP3    H234250   6.688   4.715   0.482  0.5573 -0.0090  0.0366
 4279TIP3   OH234251   5.856   1.094   3.159  0.1759  0.0524  0.5213
 4279TIP3    H134252   5.930   1.126   3.108  0.4662  0.3082  1.0927
 4279TIP3    H234253   5.790   1.163   3.150 -0.1776 -0.3875 -0.3680
 4280TIP3   OH234254   4.517   4.099   1.729  0.0347 -0.1563 -0.5013
 4280TIP3    H134255   4.592   4.052   1.766  1.1192  0.6658 -1.6048
 4280TIP3    H234256   4.547   4.189   1.720 -1.6302  0.5031  0.4720
 4281TIP3   OH234257   4.168   1.975  11.545  0.0834 -0.4508 -0.0296
 4281TIP3    H134258   4.143   1.998  11.455  0.3690  2.4932  0.5991
 4281TIP3    H234259   4.124   2.039  11.600  1.2940 -1.1484  1.8098
 4282TIP3   OH234260   3.367   6.425  16.245 -0.2458  0.5394 -0.2382
 4282TIP3    H134261   3.283   6.469  16.237  0.4233  1.8718 -0.0376
 4282TIP3    H234262   3.350   6.351  16.303 -1.4008  0.4790 -0.6579
 4283TIP3   OH234263   1.474   5.166  13.531  0.4425 -0.3514  0.0642
 4283TIP3    H134264   1.542   5.114  13.575  0.0977 -1.7322 -1.0207
 4283TIP3    H234265   1.392   5.124  13.555  0.2681 -1.3295 -2.1324
 4284TIP3   OH234266   4.198   5.494  13.263 -0.9171 -0.0939  0.9266
 4284TIP3    H134267   4.192   5.459  13.352 -0.1153  0.5503  1.2437
 4284TIP3    H234268   4.243   5.426  13.213  3.4099  1.6099  2.2246
 4285TIP3   OH234269   2.046   3.847   4.388  0.0628  0.5930 -0.6335
 4285TIP3    H134270   2.130   3.872   4.348  0.8264 -3.9102 -2.0506
 4285TIP3    H234271   1.986   3.840   4.314 -1.0474  1.5738  0.1517
 4286TIP3   OH234272   5.177   2.668   3.846  0.1542  0.4840  0.5948
 4286TIP3    H134273   5.186   2.729   3.772 -0.1885  1.8773  1.6862
 4286TIP3    H234274   5.188   2.582   3.806 -1.6830  1.1020 -1.3808
 4287TIP3   OH234275   0.703   2.680   2.380  0.0017 -0.3689  0.2350
 4287TIP3    H134276   0.681   2.589   2.400  3.7263 -1.1106  1.4811
 4287TIP3    H234277   0.784   2.674   2.328 -0.7155  2.1763 -1.2775
 4288TIP3   OH234278   4.128   2.392   3.126 -0.0639 -0.1741 -0.0281
 4288TIP3    H134279   4.074   2.455   3.174  0.8122 -0.1220  0.8922
 4288TIP3    H234280   4.143   2.433   3.041 -0.7614  0.1842  0.0204
 4289TIP3   OH234281   2.247   2.342  15.065  0.0371  0.2909  0.6402
 4289TIP3    H134282   2.152   2.328  15.067 -0.1508  0.9914 -1.3534
 4289TIP3    H234283   2.265   2.366  14.974  1.9715  1.3030  1.2619
 4290TIP3   OH234284   0.209   5.538  14.676  0.1756 -0.0009 -0.0971
 4290TIP3    H134285   0.117   5.523  14.696  0.5434 -1.3651  0.6116
 4290TIP3    H234286   0.250   5.551  14.762  0.5881  0.9471 -0.4333
 4291TIP3   OH234287   5.584   0.215   5.776 -0.4597 -0.1066 -0.2682
 4291TIP3    H134288   5.672   0.189   5.804 -0.2522  0.8965  0.0704
 4291TIP3    H234289   5.565   0.161   5.700  0.2513 -0.6854 -0.0402
 4292TIP3   OH234290   0.528   2.512  13.637  0.0021 -0.2801 -0.0253
 4292TIP3    H134291   0.606   2.459  13.651  0.0985 -0.0342  0.3671
 4292TIP3    H234292   0.517   2.561  13.718 -1.0551 -0.9613  0.2600
 4293TIP3   OH234293   0.515   5.884   3.967  0.8293 -0.9474  0.0808
 4293TIP3    H134294   0.499   5.867   4.059  0.3033  0.8541  0.3415
 4293TIP3    H234295   0.604   5.919   3.964  1.2476 -2.0302 -0.2291
 4294TIP3   OH234296   2.476   6.313   3.819 -0.4192 -0.3195 -0.1831
 4294TIP3    H134297   2.464   6.306   3.913 -1.2333 -0.5733 -0.3020
 4294TIP3    H234298   2.407   6.373   3.790  0.1696  0.1942 -0.5456
 4295TIP3   OH234299   2.986   5.558  15.325 -0.6130 -0.0817  0.0889
 4295TIP3    H134300   3.070   5.601  15.309 -0.1703  0.1368  2.8253
 4295TIP3    H234301   3.004   5.464  15.316 -0.5396  0.0583 -1.2912
 4296TIP3   OH234302   5.368   3.930  16.727 -0.1565 -0.4113  0.3356
 4296TIP3    H134303   5.378   3.971  16.641  0.6025 -0.4511  0.3998
 4296TIP3    H234304   5.315   3.992  16.777 -0.6813 -0.4358 -0.1957
 4297TIP3   OH234305   0.716   1.676  14.157  0.5997  0.1009  0.6916
 4297TIP3    H134306   0.697   1.680  14.063 -0.2617  0.9409  0.8865
 4297TIP3    H234307   0.687   1.761  14.190  2.6739  0.5586  1.4096
 4298TIP3   OH234308   4.158   1.261  11.386  0.3777  0.1131  0.9615
 4298TIP3    H134309   4.173   1.344  11.340 -0.6857 -0.9391 -1.3779
 4298TIP3    H234310   4.245   1.233  11.413  0.9761  1.0502  0.0749
 4299TIP3   OH234311   5.503   5.050   2.011  0.3016  0.7089 -0.6601
 4299TIP3    H134312   5.593   5.018   2.004  0.6147  0.5867  2.7895
 4299TIP3    H234313   5.449   4.978   1.978  1.3868  0.0461 -1.0139
 4300TIP3   OH234314   5.601   6.193  12.395 -0.2912  0.1260  0.5244
 4300TIP3    H134315   5.511   6.211  12.369 -0.6238 -0.9400  0.9224
 4300TIP3    H234316   5.649   6.273  12.374 -1.1928  0.4335 -0.3466
 4301TIP3   OH234317   3.268   5.605  12.211 -0.3732 -0.1870  0.3604
 4301TIP3    H134318   3.283   5.524  12.162 -0.1095 -0.2591  0.5569
 4301TIP3    H234319   3.356   5.633  12.239 -0.4868  0.0357  0.4963
 4302TIP3   OH234320   1.714   5.507   5.387 -0.7967 -0.3214 -0.4074
 4302TIP3    H134321   1.681   5.500   5.476  0.6389 -0.1775  0.1519
 4302TIP3    H234322   1.782   5.575   5.392  0.2603 -1.2907 -1.3202
 4303TIP3   OH234323   5.411   3.570  13.555  0.2933 -0.1977  0.0086
 4303TIP3    H134324   5.506   3.584  13.554  0.0771  1.5061  1.4647
 4303TIP3    H234325   5.385   3.585  13.646 -1.3384 -0.9941 -0.3008
 4304TIP3   OH234326   5.752   5.506  16.120 -0.4722  0.6478 -0.0725
 4304TIP3    H134327   5.826   5.565  16.136 -0.5733  0.8096 -0.2018
 4304TIP3    H234328   5.728   5.521  16.029 -2.1074  2.2415  0.5982
 4305TIP3   OH234329   2.646   0.629   6.734 -0.7289 -0.0369 -0.6294
 4305TIP3    H134330   2.714   0.573   6.696 -0.7458 -0.0796 -0.5956
 4305TIP3    H234331   2.580   0.568   6.767 -0.3721 -0.0311  0.1275
 4306TIP3   OH234332   3.416   5.950  16.884 -0.5232  0.1069  0.4685
 4306TIP3    H134333   3.392   5.858  16.881 -0.8120  0.2089 -1.9280
 4306TIP3    H234334   3.512   5.949  16.890 -0.5287 -0.3576  0.5133
 4307TIP3   OH234335   2.712   2.006  16.922  0.3902 -0.2085 -0.0031
 4307TIP3    H134336   2.624   1.999  16.959  0.6743 -0.5153  0.6237
 4307TIP3    H234337   2.769   2.012  16.999  0.6452  3.4165 -0.3515
 4308TIP3   OH234338   4.677   1.474   1.956 -0.2148 -0.5747 -0.0628
 4308TIP3    H134339   4.582   1.465   1.950 -0.2980 -0.4446  0.8819
 4308TIP3    H234340   4.695   1.563   1.924 -0.2548 -1.1039 -1.5787
 4309TIP3   OH234341   3.604   6.213   3.043  0.1186 -0.5700  0.0824
 4309TIP3    H134342   3.607   6.300   3.004 -4.4409  0.2927  1.3400
 4309TIP3    H234343   3.583   6.154   2.971  1.2263 -0.3778 -0.4062
 4310TIP3   OH234344   5.725   4.231  11.625 -0.5408 -0.3211  0.4276
 4310TIP3    H134345   5.673   4.165  11.579 -2.1858 -0.5261  2.5373
 4310TIP3    H234346   5.704   4.314  11.581 -2.2528 -0.4843  0.9217
 4311TIP3   OH234347   0.380   0.095  11.307  0.6279 -0.1013 -0.3246
 4311TIP3    H134348   0.307   0.141  11.266  1.0109  0.0829 -0.7915
 4311TIP3    H234349   0.368   0.003  11.280  1.0417  0.0660 -1.0781
 4312TIP3   OH234350   0.003   0.770  11.919 -0.6332 -0.5211  0.4627
 4312TIP3    H134351  -0.038   0.768  11.833 -0.4664  0.6145  0.3479
 4312TIP3    H234352   0.084   0.721  11.908 -0.7987 -0.7054  0.0701
 4313TIP3   OH234353   0.710   1.951  12.874 -0.0255  0.7020 -0.0796
 4313TIP3    H134354   0.700   1.983  12.964 -0.5269  2.2097 -0.6429
 4313TIP3    H234355   0.801   1.972  12.851 -0.0118  0.6752 -0.0487
 4314TIP3   OH234356   5.722   0.519   2.376  0.0591  0.2063  0.3799
 4314TIP3    H134357   5.705   0.613   2.371  0.5144  0.4116  2.3995
 4314TIP3    H234358   5.771   0.500   2.296  0.2874  1.7557  0.1262
 4315TIP3   OH234359   0.106   1.821   2.924  0.1719  0.0664  0.4364
 4315TIP3    H134360   0.060   1.893   2.881  1.4371  0.5712 -0.1144
 4315TIP3    H234361   0.152   1.776   2.853 -1.1231 -1.6929  0.6861
 4316TIP3   OH234362   5.196   3.300   1.173  0.2889 -0.2872  0.1950
 4316TIP3    H134363   5.106   3.293   1.204  0.6828 -0.5464  1.2793
 4316TIP3    H234364   5.249   3.265   1.244  1.1136 -2.2314 -1.3119
 4317TIP3   OH234365   4.768   2.920   6.584 -0.0617 -0.5853 -0.1704
 4317TIP3    H134366   4.798   2.835   6.615  0.0339 -0.8420 -0.9405
 4317TIP3    H234367   4.692   2.900   6.529 -1.3678  0.0200  1.3732
 4318TIP3   OH234368   5.358   5.589   4.698  0.3718  0.2917  0.2033
 4318TIP3    H134369   5.367   5.684   4.693  0.4273  0.3386  1.2118
 4318TIP3    H234370   5.405   5.557   4.620 -1.1545  1.1688 -1.1147
 4319TIP3   OH234371   2.373   3.611  13.228  0.5400 -0.0825 -0.2376
 4319TIP3    H134372   2.435   3.542  13.206 -0.9472 -1.8842  1.0431
 4319TIP3    H234373   2.348   3.593  13.319 -1.8256  0.5772 -0.7073
 4320TIP3   OH234374   4.344   6.713  11.555 -0.1455  0.0106 -0.1028
 4320TIP3    H134375   4.333   6.656  11.631  0.1333 -1.2036 -0.9622
 4320TIP3    H234376   4.269   6.773  11.560 -0.2651 -0.2135  0.9818
 4321TIP3   OH234377   2.870   5.948  17.192 -0.1746 -0.7036  0.0933
 4321TIP3    H134378   2.830   5.896  17.123  0.1879  0.9249 -1.3976
 4321TIP3    H234379   2.846   6.039  17.171  2.5399  0.1127  0.3013
 4322TIP3   OH234380   4.877   3.893  14.704  0.2472 -0.2921  0.0076
 4322TIP3    H134381   4.855   3.965  14.763  0.1951 -0.3440  0.0527
 4322TIP3    H234382   4.962   3.917  14.666  0.6733 -0.6464  0.7284
 4323TIP3   OH234383   6.030   3.674   0.878 -0.1950 -0.4055  1.1548
 4323TIP3    H134384   6.008   3.584   0.853  2.2936 -0.5659 -0.6097
 4323TIP3    H234385   6.076   3.665   0.961  0.8742 -0.8584  0.5226
 4324TIP3   OH234386   3.652   5.629   2.412  0.0816 -0.0153  0.0577
 4324TIP3    H134387   3.726   5.568   2.410  0.2403  0.1771 -0.0658
 4324TIP3    H234388   3.574   5.574   2.412  0.2275 -0.2195  0.1249
 4325TIP3   OH234389   0.051   3.611  14.392  0.0944  0.3393  0.0522
 4325TIP3    H134390   0.063   3.517  14.379  3.7205  0.3225  2.6752
 4325TIP3    H234391   0.054   3.649  14.304  1.3149 -1.7652 -0.8385
 4326TIP3   OH234392   1.892   3.404  16.999  0.3380  0.1362  0.4958
 4326TIP3    H134393   1.936   3.355  16.930 -0.8005 -0.8320  0.4235
 4326TIP3    H234394   1.822   3.345  17.028  0.1652  0.9528  1.7570
 4327TIP3   OH234395   1.596   6.510   0.953  0.0266  0.1019  0.2418
 4327TIP3    H134396   1.532   6.548   0.892 -0.1249 -1.6324 -0.7190
 4327TIP3    H234397   1.583   6.415   0.946 -0.1341 -0.1372  3.1617
 4328TIP3   OH234398   3.535   5.916   0.732  0.5430  0.1630  0.3376
 4328TIP3    H134399   3.493   5.841   0.690 -0.0725  0.0534  1.1291
 4328TIP3    H234400   3.567   5.969   0.659 -0.7526  0.1107 -0.2816
 4329TIP3   OH234401   6.428   2.931   0.441 -0.0497 -0.9084 -0.0157
 4329TIP3    H134402   6.416   2.993   0.513  1.7518 -1.3804  0.7056
 4329TIP3    H234403   6.384   2.973   0.367 -0.8800  0.1399  1.0373
 4330TIP3   OH234404   2.693   2.819  16.211  0.4206 -0.1343  0.2517
 4330TIP3    H134405   2.672   2.757  16.141 -0.3057  1.2059 -0.7344
 4330TIP3    H234406   2.650   2.784  16.288 -1.2169 -0.0907 -0.6298
 4331TIP3   OH234407   5.375   6.339  11.754 -0.0286 -0.3598 -0.2118
 4331TIP3    H134408   5.423   6.318  11.674 -0.7294 -1.9527 -0.2501
 4331TIP3    H234409   5.430   6.305  11.824 -0.2714 -0.6184 -0.1446
 4332TIP3   OH234410   1.067   6.445   5.908  0.0566  0.6550  0.1275
 4332TIP3    H134411   1.152   6.476   5.877  0.1263 -0.3339 -0.7255
 4332TIP3    H234412   1.075   6.350   5.909 -0.6694  0.5943  1.1445
 4333TIP3   OH234413   3.986   2.494  16.189 -0.3467  0.2863 -0.3037
 4333TIP3    H134414   4.004   2.409  16.228 -2.2629 -0.3054 -0.6311
 4333TIP3    H234415   3.981   2.478  16.095  0.1266  0.9280 -0.4471
 4334TIP3   OH234416   4.020   1.855   1.066  0.5785 -0.1250  0.1428
 4334TIP3    H134417   3.974   1.843   1.149  3.1195  0.5454  1.7049
 4334TIP3    H234418   4.023   1.767   1.027 -0.8291 -0.4002  0.6072
 4335TIP3   OH234419   6.258   3.574  16.612 -0.1513 -0.2258 -0.1317
 4335TIP3    H134420   6.230   3.572  16.703  0.7778  0.1691  0.1778
 4335TIP3    H234421   6.321   3.502  16.604 -2.0044 -1.7635 -1.0790
 4336TIP3   OH234422   1.892   4.723   4.558 -0.6283 -0.0332 -0.3835
 4336TIP3    H134423   1.835   4.779   4.506 -1.7495  0.7549  1.6491
 4336TIP3    H234424   1.975   4.770   4.562 -1.5861  1.5457  1.3669
 4337TIP3   OH234425   2.156   0.004  15.438 -0.5986 -0.0460  0.3112
 4337TIP3    H134426   2.078   0.047  15.403 -0.5015  0.4617  0.7214
 4337TIP3    H234427   2.230   0.050  15.397 -0.5063 -1.9367 -1.8012
 4338TIP3   OH234428   4.969   1.090   2.244 -0.0869  0.2225  0.1059
 4338TIP3    H134429   4.941   1.135   2.163 -1.0712  1.0397  0.8795
 4338TIP3    H234430   4.905   1.020   2.256 -0.1647  0.3384  0.3736
 4339TIP3   OH234431   5.061   3.595  15.580 -0.2043 -0.1371  0.2257
 4339TIP3    H134432   5.007   3.660  15.626  0.2893 -0.3788  1.1479
 4339TIP3    H234433   5.013   3.513  15.591 -1.1994  0.1666 -1.5501
 4340TIP3   OH234434   6.310   1.588   0.101 -0.0414 -0.1522 -0.0286
 4340TIP3    H134435   6.326   1.533   0.178  2.7151 -0.6146 -0.8851
 4340TIP3    H234436   6.219   1.570   0.077 -0.6385 -0.7212  2.5333
 4341TIP3   OH234437   1.574   3.984   1.508  0.1451 -0.2023 -0.2909
 4341TIP3    H134438   1.601   3.901   1.468 -1.4219 -1.0529  0.3960
 4341TIP3    H234439   1.488   4.002   1.470  0.4110  1.0359 -0.3182
 4342TIP3   OH234440   6.241   0.172   4.836 -0.4557 -0.6480  0.1285
 4342TIP3    H134441   6.263   0.176   4.929 -2.6455  1.1604  0.6162
 4342TIP3    H234442   6.149   0.148   4.835 -0.8525  0.9157 -1.5354
 4343TIP3   OH234443   4.577   2.263  15.057  0.1583 -0.2605 -0.8626
 4343TIP3    H134444   4.574   2.179  15.011  2.1951 -0.5671 -0.4668
 4343TIP3    H234445   4.553   2.243  15.147 -0.1955 -0.2613 -0.9543
 4344TIP3   OH234446   2.423   0.429   3.416 -0.7121  0.6619  0.0627
 4344TIP3    H134447   2.465   0.404   3.334 -1.8991  2.3311 -1.0861
 4344TIP3    H234448   2.496   0.438   3.478  0.1887 -0.6027 -0.7867
 4345TIP3   OH234449   6.188   1.065   1.847 -0.0008 -0.1819 -0.3562
 4345TIP3    H134450   6.102   1.087   1.813 -0.6724 -1.6596  0.3615
 4345TIP3    H234451   6.174   1.047   1.940  1.1844  0.1453 -0.0958
 4346TIP3   OH234452   6.587   4.538  15.873  0.4409 -0.3762  0.3085
 4346TIP3    H134453   6.622   4.449  15.875  0.9469 -0.1977 -0.3779
 4346TIP3    H234454   6.509   4.534  15.928 -0.0129 -1.4379 -0.3971
 4347TIP3   OH234455   5.271   2.667  13.892 -0.0138 -0.2808  0.0684
 4347TIP3    H134456   5.179   2.645  13.876  0.6378 -2.0504 -1.4451
 4347TIP3    H234457   5.319   2.621  13.824  2.1704 -1.0132  2.0111
 4348TIP3   OH234458   3.829   3.858  13.174  0.2343 -0.1894 -0.3779
 4348TIP3    H134459   3.873   3.921  13.117  0.7803 -0.5459 -0.3571
 4348TIP3    H234460   3.877   3.776  13.160  0.8563 -0.0946  1.1683
 4349TIP3   OH234461   5.280   1.556   5.262 -0.2422  0.2862 -0.0664
 4349TIP3    H134462   5.193   1.595   5.273 -0.6003 -0.4432 -0.2652
 4349TIP3    H234463   5.308   1.536   5.351 -0.7067 -0.3829 -0.0652
 4350TIP3   OH234464   3.111   2.045  15.337  0.4368 -0.0147 -0.2700
 4350TIP3    H134465   3.195   2.088  15.353  0.8580 -0.2171 -1.8560
 4350TIP3    H234466   3.102   1.982  15.409  1.4470  0.2941  0.1339
 4351TIP3   OH234467   0.223   2.655  14.704 -0.3205  0.0752  0.0010
 4351TIP3    H134468   0.149   2.686  14.652  0.4825  0.6532 -0.7961
 4351TIP3    H234469   0.279   2.731  14.714  0.4700 -0.5150  0.1035
 4352TIP3   OH234470   6.318   3.760   2.011  0.4426 -0.4943 -0.1388
 4352TIP3    H134471   6.334   3.806   1.929  0.6564 -0.0783  0.1343
 4352TIP3    H234472   6.404   3.757   2.054 -0.1644  1.7069  1.3099
 4353TIP3   OH234473   0.007   3.412  16.302 -0.4055 -0.0862 -0.2648
 4353TIP3    H134474   0.079   3.475  16.312 -1.0058  0.4814  0.5307
 4353TIP3    H234475  -0.009   3.408  16.208 -1.2796  1.9931 -0.2174
 4354TIP3   OH234476   3.703   0.768  14.996  0.1469 -0.0141 -0.5748
 4354TIP3    H134477   3.704   0.677  15.028  1.1718  0.1626 -0.0840
 4354TIP3    H234478   3.722   0.821  15.074  0.6120  0.5492 -1.0712
 4355TIP3   OH234479   4.077   3.039  14.470 -0.1053  0.4918 -0.1658
 4355TIP3    H134480   4.050   3.073  14.385 -2.4048  0.8864  0.6809
 4355TIP3    H234481   4.085   3.116  14.526 -0.1812  0.1046  0.3848
 4356TIP3   OH234482   3.153   6.085  14.674 -0.7289 -0.2390  0.0338
 4356TIP3    H134483   3.154   6.169  14.720 -0.1736 -1.0580  1.5299
 4356TIP3    H234484   3.242   6.075  14.641 -1.2406  0.5607 -1.6514
 4357TIP3   OH234485   0.491   0.691  11.343 -0.2957 -0.1912  0.3877
 4357TIP3    H134486   0.564   0.753  11.355 -0.2353 -0.5317  1.8928
 4357TIP3    H234487   0.500   0.662  11.253  0.3686  1.1334  0.0043
 4358TIP3   OH234488   0.920   0.522   4.554  0.1009 -0.2927  0.2600
 4358TIP3    H134489   0.840   0.570   4.574  0.6519  0.1778  1.3494
 4358TIP3    H234490   0.982   0.546   4.623  2.0050  1.2478 -1.8869
 4359TIP3   OH234491   1.580   5.707  14.230 -0.7889  0.0207  0.2537
 4359TIP3    H134492   1.617   5.692  14.144 -0.0378  0.4227  0.5016
 4359TIP3    H234493   1.521   5.632  14.245  0.2861 -0.8697  0.0568
 4360TIP3   OH234494   5.752   1.069  17.146  0.3822 -0.7232  0.4395
 4360TIP3    H134495   5.684   1.038  17.087 -0.3582  0.2867  0.7496
 4360TIP3    H234496   5.833   1.061  17.095  0.1288 -2.4580  0.2676
 4361TIP3   OH234497   3.467   6.633  15.879  0.3740 -0.0742  0.3305
 4361TIP3    H134498   3.481   6.633  15.784 -0.1891 -1.4019  0.2415
 4361TIP3    H234499   3.397   6.697  15.892 -0.2336 -0.6093 -0.2557
 4362TIP3   OH234500   1.360   4.552   4.697  0.1635 -0.4845  0.1362
 4362TIP3    H134501   1.356   4.535   4.792  1.3616 -1.4776  0.0332
 4362TIP3    H234502   1.388   4.468   4.660 -0.0004 -0.0089 -1.0688
 4363TIP3   OH234503   1.274   3.537  14.046  0.4638  0.1060  0.3840
 4363TIP3    H134504   1.192   3.557  14.001  0.6526 -0.6301 -0.2875
 4363TIP3    H234505   1.323   3.619  14.044  0.3637  0.1493 -0.5220
 4364TIP3   OH234506   1.050   5.832  12.381 -0.3343  0.2103 -0.2259
 4364TIP3    H134507   1.008   5.749  12.359  0.2493 -0.2304  0.3075
 4364TIP3    H234508   0.977   5.891  12.401 -0.7263 -0.4078  0.2087
 4365TIP3   OH234509   0.740   1.828  17.216  0.1250  0.2972 -0.1977
 4365TIP3    H134510   0.666   1.884  17.239  0.4991  1.6994 -2.3332
 4365TIP3    H234511   0.701   1.742  17.199 -0.8751  0.7762 -0.3355
 4366TIP3   OH234512   4.161   4.347  12.102 -0.2777 -0.3676  0.1813
 4366TIP3    H134513   4.176   4.282  12.171  0.5054 -0.7011 -0.2965
 4366TIP3    H234514   4.242   4.347  12.051 -0.8283 -0.0781 -0.7076
 4367TIP3   OH234515   0.268   5.633   0.236  0.5885 -0.0391  0.0257
 4367TIP3    H134516   0.340   5.624   0.299 -0.0485 -1.1905  0.6041
 4367TIP3    H234517   0.297   5.582   0.159 -0.0406 -1.3947  0.6622
 4368TIP3   OH234518   5.373   1.393  11.848  0.6350 -0.5361  0.2127
 4368TIP3    H134519   5.281   1.371  11.834  0.6791 -1.5001  1.3394
 4368TIP3    H234520   5.418   1.309  11.849  1.7238 -0.0012 -1.5717
 4369TIP3   OH234521   2.513   5.529   4.074 -0.0365 -0.5067 -0.0362
 4369TIP3    H134522   2.534   5.487   4.158  0.8998 -0.9469 -0.4886
 4369TIP3    H234523   2.505   5.456   4.012 -0.5606 -0.1680 -0.3749
 4370TIP3   OH234524   4.894   4.943  12.929  0.0819 -0.0241  0.0044
 4370TIP3    H134525   4.875   4.975  12.841  1.0582 -1.6388 -0.8097
 4370TIP3    H234526   4.989   4.944  12.935  0.1208 -2.4005  0.0891
 4371TIP3   OH234527   6.598   6.154  13.758 -0.0437 -0.1956 -0.0085
 4371TIP3    H134528   6.539   6.204  13.701  0.2994  1.7483  1.2899
 4371TIP3    H234529   6.571   6.063  13.745 -2.4751  0.5272 -0.4325
 4372TIP3   OH234530   3.629   1.695  13.539  0.2937 -0.1193  0.4286
 4372TIP3    H134531   3.679   1.618  13.512 -0.3296 -0.4506  0.1892
 4372TIP3    H234532   3.624   1.749  13.460  0.1714 -0.1472  0.4167
 4373TIP3   OH234533   0.650   5.599  13.103  0.2017  0.1827  0.2187
 4373TIP3    H134534   0.572   5.654  13.114  1.0333  1.2506  0.8935
 4373TIP3    H234535   0.620   5.511  13.123 -1.0037  0.4790 -0.2318
 4374TIP3   OH234536   4.134   2.073  12.197 -0.1919  1.1296  0.2379
 4374TIP3    H134537   4.114   1.994  12.248  0.7622  2.3285  2.5221
 4374TIP3    H234538   4.229   2.075  12.193 -0.2343  1.6758 -0.6501
 4375TIP3   OH234539   6.714   5.129   3.964  0.0766  0.3164  0.4410
 4375TIP3    H134540   6.652   5.081   4.020  1.1201 -2.3064 -0.5613
 4375TIP3    H234541   6.771   5.174   4.026  1.8408 -3.3442  1.6420
 4376TIP3   OH234542   1.069   1.267  13.875  0.4972 -0.0024  0.2388
 4376TIP3    H134543   1.073   1.308  13.789 -0.8010  1.1719  0.7027
 4376TIP3    H234544   1.026   1.182  13.860 -1.4833  1.0155 -0.0213
 4377TIP3   OH234545   2.207   6.128   3.279  1.1224  0.8489  0.2259
 4377TIP3    H134546   2.237   6.050   3.232  0.2545 -1.0646  2.7147
 4377TIP3    H234547   2.221   6.106   3.371  0.0715  3.3354  1.0012
 4378TIP3   OH234548   2.389   3.324  15.245  0.0746  0.1301  0.0872
 4378TIP3    H134549   2.441   3.259  15.293 -1.4105 -1.9286 -0.9727
 4378TIP3    H234550   2.320   3.350  15.307 -0.9783 -1.4351 -0.3875
 4379TIP3   OH234551   4.412   1.141   2.128 -0.0261  0.6551  0.3913
 4379TIP3    H134552   4.353   1.075   2.165  0.9767 -0.8934 -0.7031
 4379TIP3    H234553   4.473   1.160   2.199  0.1489 -0.1883  0.4801
 4380TIP3   OH234554   3.564   4.065  11.019  0.3325 -0.4529 -0.6787
 4380TIP3    H134555   3.610   4.144  10.989 -0.5462 -1.1378 -4.1048
 4380TIP3    H234556   3.619   4.031  11.089  2.2975  1.5843 -1.1490
 4381TIP3   OH234557   0.268   2.163  14.177  0.4644 -0.5842 -0.3608
 4381TIP3    H134558   0.293   2.224  14.108 -1.0833 -0.6819 -1.0339
 4381TIP3    H234559   0.285   2.076  14.138 -0.9494 -0.6509 -0.8441
 4382TIP3   OH234560   3.873   5.496  12.456  0.2165  0.2411 -0.2343
 4382TIP3    H134561   3.946   5.484  12.517  0.8419 -0.5980 -1.1236
 4382TIP3    H234562   3.796   5.504  12.511  0.5855 -1.9272  0.6194
 4383TIP3   OH234563   0.205   5.628   2.208  0.0901  0.3983 -0.5096
 4383TIP3    H134564   0.223   5.552   2.264 -2.0087 -0.1165 -0.4721
 4383TIP3    H234565   0.194   5.590   2.121  0.1263  0.7918 -0.6822
 4384TIP3   OH234566   0.854   2.658  13.229 -0.0080 -0.1851 -0.1438
 4384TIP3    H134567   0.787   2.724  13.245  2.3794  2.4965 -0.6970
 4384TIP3    H234568   0.887   2.636  13.316  0.5480  0.8976 -0.0637
 4385TIP3   OH234569   5.459   5.168   4.981  0.2528 -0.2663 -0.4838
 4385TIP3    H134570   5.396   5.210   4.922 -0.6693 -1.1135 -0.1347
 4385TIP3    H234571   5.469   5.079   4.945  0.1047 -0.6093  0.3123
 4386TIP3   OH234572   3.127   5.596  15.739  0.0379 -0.1973 -0.1450
 4386TIP3    H134573   3.140   5.658  15.667 -2.0924  0.1462 -0.2553
 4386TIP3    H234574   3.192   5.527  15.723  4.1619  3.0824  1.2775
 4387TIP3   OH234575   6.667   3.425   5.704  0.4936  0.1060  0.6717
 4387TIP3    H134576   6.730   3.375   5.756  0.1302 -0.9980  0.0788
 4387TIP3    H234577   6.605   3.359   5.671  0.1479  0.9106 -0.3430
 4388TIP3   OH234578   5.990   6.678   6.016  0.0133 -0.2548 -0.2416
 4388TIP3    H134579   6.024   6.623   6.087 -1.6413 -1.1637 -0.1277
 4388TIP3    H234580   6.028   6.765   6.033  2.7788 -1.3607 -0.5107
 4389TIP3   OH234581   2.848   0.958   3.443 -0.4501 -0.3681  0.3117
 4389TIP3    H134582   2.820   1.047   3.424 -0.0082 -0.5352 -1.1634
 4389TIP3    H234583   2.766   0.907   3.446 -0.4943 -0.4362 -1.7069
 4390TIP3   OH234584   1.293   6.391   4.092 -0.1217  0.4549  0.1334
 4390TIP3    H134585   1.308   6.443   4.013 -2.0308 -1.9308 -1.8265
 4390TIP3    H234586   1.381   6.379   4.129  0.8395  1.1812 -1.8392
 4391TIP3   OH234587   1.252   3.122   3.485 -0.2660 -0.0932 -0.4121
 4391TIP3    H134588   1.242   3.029   3.506  3.0537 -0.5939 -0.6616
 4391TIP3    H234589   1.218   3.130   3.396  0.0584 -1.2436 -0.6600
 4392TIP3   OH234590   0.253   6.441  12.216 -0.1023 -0.2268 -0.2667
 4392TIP3    H134591   0.177   6.384  12.226  0.2553 -0.4022  1.4957
 4392TIP3    H234592   0.301   6.405  12.141 -2.8107  1.0895 -2.7414
 4393TIP3   OH234593   0.352   0.740  14.548  0.3085  0.1561 -0.4567
 4393TIP3    H134594   0.427   0.705  14.596  0.0332  1.2384  0.8028
 4393TIP3    H234595   0.284   0.673  14.558 -0.2384  1.0132  1.9885
 4394TIP3   OH234596   0.290   4.582   4.261  0.2786 -0.0368 -0.5340
 4394TIP3    H134597   0.228   4.523   4.302  0.6201 -0.3841 -0.5090
 4394TIP3    H234598   0.237   4.641   4.207 -0.0072 -0.7800 -1.0692
 4395TIP3   OH234599   0.677   5.127  15.553 -0.1012 -0.2343  0.2873
 4395TIP3    H134600   0.593   5.083  15.548 -0.2324  0.1454 -1.3778
 4395TIP3    H234601   0.675   5.190  15.481  1.6381 -0.3044  0.1474
 4396TIP3   OH234602   2.123   2.288  11.055  0.1418 -0.3178 -0.0275
 4396TIP3    H134603   2.133   2.383  11.047  0.0739 -0.3188 -0.1176
 4396TIP3    H234604   2.091   2.259  10.970  0.1201 -0.4180  0.0142
 4397TIP3   OH234605   0.415   2.914  16.375 -0.5174 -0.3268 -0.6236
 4397TIP3    H134606   0.459   2.833  16.350  0.9113 -0.2194  1.3897
 4397TIP3    H234607   0.341   2.921  16.315  0.1208 -2.4130 -1.7032
 4398TIP3   OH234608   5.346   2.555   5.963 -0.0968 -0.6612 -0.1191
 4398TIP3    H134609   5.439   2.533   5.960  0.1710  0.3259  0.5743
 4398TIP3    H234610   5.331   2.587   6.052 -1.0718 -0.6990 -0.2583
 4399TIP3   OH234611   5.974   4.656  11.866 -0.0362 -0.1096  0.5661
 4399TIP3    H134612   5.985   4.747  11.894  0.5865 -0.8598  2.8835
 4399TIP3    H234613   6.044   4.642  11.802  0.9949  0.5430  1.5205
 4400TIP3   OH234614   1.899   5.487   3.771  0.5995  0.5172 -0.6734
 4400TIP3    H134615   1.819   5.455   3.729  0.4115 -0.3436  0.2957
 4400TIP3    H234616   1.902   5.580   3.752  0.0294  0.3078 -1.7865
 4401TIP3   OH234617   2.575   0.728  13.599  0.4142 -0.2912  0.7074
 4401TIP3    H134618   2.614   0.640  13.595  1.8265  0.2952  1.0445
 4401TIP3    H234619   2.540   0.735  13.688 -0.0648 -0.6679  0.5460
 4402TIP3   OH234620   0.872   6.235  16.309 -0.5231  0.0789  0.0892
 4402TIP3    H134621   0.942   6.173  16.294  0.7600  1.6762 -0.7502
 4402TIP3    H234622   0.837   6.213  16.395  0.8309 -0.8948  0.4001
 4403TIP3   OH234623   3.166   5.142  16.090  0.6361  0.4989 -0.2827
 4403TIP3    H134624   3.225   5.096  16.029  0.7978  0.3668 -0.0273
 4403TIP3    H234625   3.122   5.072  16.138 -1.5203  0.5187 -2.1498
 4404TIP3   OH234626   2.552   1.262  10.792  0.4839  0.1657  0.3957
 4404TIP3    H134627   2.576   1.170  10.804 -1.4218 -0.2219  1.6104
 4404TIP3    H234628   2.478   1.259  10.732  2.0592  1.1434 -1.6288
 4405TIP3   OH234629   2.591   4.737  11.546 -0.0840  0.2639 -0.1021
 4405TIP3    H134630   2.541   4.675  11.599 -0.4212  0.0044 -0.7126
 4405TIP3    H234631   2.553   4.822  11.566  0.9652  0.3860  1.4007
 4406TIP3   OH234632   1.245   2.618  12.858  0.5396 -0.0625 -0.1530
 4406TIP3    H134633   1.297   2.605  12.937 -0.8111 -1.5377  0.5299
 4406TIP3    H234634   1.181   2.547  12.860 -0.4668  0.7714 -1.7984
 4407TIP3   OH234635   5.505   2.631   5.712 -0.2547 -0.1606 -0.4622
 4407TIP3    H134636   5.597   2.636   5.686 -0.6075 -2.2555 -2.2315
 4407TIP3    H234637   5.506   2.594   5.800  0.5161 -2.8859 -1.5609
 4408TIP3   OH234638   5.330   6.297  14.417  0.2517  0.0292 -0.3463
 4408TIP3    H134639   5.395   6.325  14.481  0.5844 -1.0098 -0.2285
 4408TIP3    H234640   5.296   6.214  14.451 -2.1666  1.2340  0.3320
 4409TIP3   OH234641   5.678   1.625   1.899  0.9684 -0.0404 -0.2680
 4409TIP3    H134642   5.755   1.668   1.936  0.7121 -0.5414  0.9028
 4409TIP3    H234643   5.614   1.628   1.970  0.9715 -2.4030 -0.1300
 4410TIP3   OH234644   2.102   2.468  16.771  0.0103  0.6375  0.1580
 4410TIP3    H134645   2.173   2.461  16.835 -0.2509  2.0697  0.6111
 4410TIP3    H234646   2.081   2.377  16.750  0.3338  0.1415  1.8502
 4411TIP3   OH234647   0.684   3.990   3.827  0.3334  0.2769  0.2565
 4411TIP3    H134648   0.699   4.023   3.739 -2.6093  1.1927  0.0735
 4411TIP3    H234649   0.714   4.061   3.885 -1.0512  1.1332 -0.0650
 4412TIP3   OH234650   4.665   3.161  12.922 -0.1654 -0.0638  0.2575
 4412TIP3    H134651   4.737   3.198  12.871 -0.5134 -1.7120 -1.4859
 4412TIP3    H234652   4.598   3.230  12.923  0.6991  0.7838  0.3296
 4413TIP3   OH234653   1.918   6.515  12.032  0.2600  0.2281 -1.0442
 4413TIP3    H134654   1.847   6.579  12.031 -2.0420 -2.1231  1.4775
 4413TIP3    H234655   1.997   6.566  12.052 -1.7855  2.1252  2.7756
 4414TIP3   OH234656   1.659   2.684   2.441 -0.4670 -0.4519 -0.0597
 4414TIP3    H134657   1.738   2.640   2.471 -0.2405 -0.0092 -0.0127
 4414TIP3    H234658   1.690   2.761   2.393 -0.7525 -1.9693 -2.8011
 4415TIP3   OH234659   0.662   2.611   5.973 -0.2781 -0.4941  0.2378
 4415TIP3    H134660   0.646   2.517   5.963  0.5906 -0.7328  1.0185
 4415TIP3    H234661   0.579   2.652   5.950  0.3922 -1.2368 -3.7674
 4416TIP3   OH234662   1.994   2.949   3.322 -0.2961  0.5779  0.6261
 4416TIP3    H134663   1.904   2.918   3.312  1.2184 -3.3198 -2.0799
 4416TIP3    H234664   2.012   2.995   3.239  1.0494 -1.1525 -0.0835
 4417TIP3   OH234665   0.738   0.172  12.324 -0.2926  0.1764 -0.1858
 4417TIP3    H134666   0.703   0.255  12.292 -1.7974 -0.6690 -0.7911
 4417TIP3    H234667   0.791   0.138  12.252 -0.9271 -0.1131 -0.5202
 4418TIP3   OH234668   1.495   5.540  12.713 -0.0253 -0.3907 -0.6056
 4418TIP3    H134669   1.482   5.634  12.698  3.0498  0.1846  0.0410
 4418TIP3    H234670   1.425   5.516  12.773 -0.8235  1.5140 -0.7275
 4419TIP3   OH234671   5.570   3.477   2.507  0.0581  0.7402  0.1128
 4419TIP3    H134672   5.506   3.528   2.557 -2.7722 -3.8411  1.4223
 4419TIP3    H234673   5.638   3.455   2.570 -0.1355  0.5415  0.2507
 4420TIP3   OH234674   4.964   4.690  14.906  0.7438  0.2140 -0.2540
 4420TIP3    H134675   4.980   4.596  14.894 -1.3582  0.0047 -1.6740
 4420TIP3    H234676   4.872   4.695  14.934 -0.1564  2.0330 -3.3627
 4421TIP3   OH234677   6.453   4.243  11.152  0.1572  0.3797  0.2093
 4421TIP3    H134678   6.427   4.332  11.174  0.6991  0.5805  0.0510
 4421TIP3    H234679   6.548   4.247  11.145  0.2565 -0.3948  1.0097
 4422TIP3   OH234680   6.344   3.170  13.314  0.0137 -0.1332 -0.6865
 4422TIP3    H134681   6.266   3.151  13.365  0.4637 -3.7827 -1.2557
 4422TIP3    H234682   6.417   3.145  13.370  0.7976  2.1402 -0.6171
 4423TIP3   OH234683   0.668   6.474   3.425 -0.1283  0.3894 -0.0856
 4423TIP3    H134684   0.689   6.455   3.517 -1.0460  0.8102  0.2232
 4423TIP3    H234685   0.625   6.395   3.393 -0.7742  0.6408  0.1621
 4424TIP3   OH234686   5.304   3.841  12.815  0.1919  0.5526  0.2826
 4424TIP3    H134687   5.326   3.845  12.908 -1.5594  1.2048  0.6778
 4424TIP3    H234688   5.217   3.881  12.808 -2.1199 -4.2732 -0.8286
 4425TIP3   OH234689   0.945   4.926   3.917  0.0763  0.5274  0.0398
 4425TIP3    H134690   1.035   4.929   3.950 -0.5770  0.0790  1.8997
 4425TIP3    H234691   0.917   4.836   3.931  0.2664 -0.0870 -3.1547
 4426TIP3   OH234692   3.270   2.909   2.564 -0.0731  0.8244  0.3212
 4426TIP3    H134693   3.206   2.880   2.629 -1.0125  0.7652 -0.6311
 4426TIP3    H234694   3.263   3.005   2.565 -1.1228  0.7586 -0.7423
 4427TIP3   OH234695   0.756   1.927  16.964 -0.2583  0.3153  0.1477
 4427TIP3    H134696   0.777   1.936  17.057 -0.9355  0.7468  0.2568
 4427TIP3    H234697   0.842   1.919  16.921  0.0693  0.4468  0.7724
 4428TIP3   OH234698   2.537   5.146  13.900  0.5792 -0.1401  0.1776
 4428TIP3    H134699   2.500   5.130  13.987  0.6411 -0.9187  0.0659
 4428TIP3    H234700   2.593   5.222  13.911  0.0565  0.1749  0.6711
 4429TIP3   OH234701   0.789   4.543  12.280  0.6745  0.0107  0.1998
 4429TIP3    H134702   0.838   4.521  12.360  1.8911  2.4467  0.1912
 4429TIP3    H234703   0.764   4.635  12.292  0.4687  0.2686 -2.0163
 4430TIP3   OH234704   2.843   1.892  14.779  0.0682  0.2281 -0.5823
 4430TIP3    H134705   2.893   1.951  14.835 -0.4176 -0.8263  1.0137
 4430TIP3    H234706   2.823   1.943  14.701  0.1736  1.9506  0.4977
 4431TIP3   OH234707   3.268   1.087   2.790  0.4297 -0.2754 -0.1552
 4431TIP3    H134708   3.338   1.151   2.802 -0.1162  0.3478 -0.3065
 4431TIP3    H234709   3.308   1.019   2.735  0.2202  1.2038 -2.2027
 4432TIP3   OH234710   2.286   5.136  16.205  0.7261  0.6112  0.4427
 4432TIP3    H134711   2.280   5.132  16.110  1.0610  3.4510  0.2731
 4432TIP3    H234712   2.316   5.049  16.231  0.2771 -0.2987 -2.0104
 4433TIP3   OH234713   3.898   0.078   0.009 -0.3616 -0.9218 -0.1471
 4433TIP3    H134714   3.939   0.147   0.062  2.2268 -1.5667 -1.2247
 4433TIP3    H234715   3.836   0.036   0.069  3.3715 -2.4388  2.8239
 4434TIP3   OH234716   4.809   5.000   2.302  0.3618 -0.3726 -0.7217
 4434TIP3    H134717   4.720   5.035   2.300  0.5183  0.0000 -1.3635
 4434TIP3    H234718   4.805   4.927   2.364  0.2582  1.3846  1.3901
 4435TIP3   OH234719   6.359   2.192   0.805  0.7105 -0.7148  0.0398
 4435TIP3    H134720   6.433   2.143   0.770 -0.2197 -1.6647 -0.6066
 4435TIP3    H234721   6.332   2.142   0.882  1.9627  0.6952  1.4568
 4436TIP3   OH234722   6.783   0.766  11.650  0.2099  0.2483 -0.2403
 4436TIP3    H134723   6.875   0.791  11.647  0.1927  0.3482  0.1322
 4436TIP3    H234724   6.735   0.849  11.645  0.1513  0.2853  0.8140
 4437TIP3   OH234725   1.270   4.305   0.155  0.3203 -0.6683 -0.3332
 4437TIP3    H134726   1.221   4.387   0.147 -0.5200 -0.8665  2.3403
 4437TIP3    H234727   1.351   4.329   0.201  0.0456 -1.3247  0.5143
 4438TIP3   OH234728   6.101   0.877  16.800 -0.5054 -0.0787 -0.2313
 4438TIP3    H134729   6.128   0.800  16.850  3.5959  1.7875  0.6980
 4438TIP3    H234730   6.094   0.947  16.865 -0.7128  1.0906 -1.4797
 4439TIP3   OH234731   6.767   5.084   1.258  0.0982 -0.6066 -0.1788
 4439TIP3    H134732   6.689   5.137   1.242 -0.5554 -1.2671  0.7453
 4439TIP3    H234733   6.733   4.999   1.286  1.1385 -1.3744 -1.1893
 4440TIP3   OH234734   0.387   2.267  11.245 -0.1342  0.3713 -0.2979
 4440TIP3    H134735   0.441   2.217  11.184 -3.5293 -2.5024 -1.1273
 4440TIP3    H234736   0.407   2.231  11.331 -2.2502 -2.2530 -0.8498
 4441TIP3   OH234737   4.780   2.144  15.835  0.1674  0.7186 -0.2565
 4441TIP3    H134738   4.787   2.051  15.858  0.4879  0.6286 -0.7151
 4441TIP3    H234739   4.864   2.181  15.861 -0.4798  1.1766  1.2488
 4442TIP3   OH234740   4.631   6.713  12.449  0.0280  0.3951  0.3838
 4442TIP3    H134741   4.675   6.724  12.534  1.6968  1.7316 -0.6133
 4442TIP3    H234742   4.558   6.654  12.467  1.1612 -0.4299  2.4884
 4443TIP3   OH234743   0.450   2.554   0.282 -0.1359  0.4253  0.1529
 4443TIP3    H134744   0.494   2.566   0.366 -1.9137 -2.1554  1.5138
 4443TIP3    H234745   0.378   2.616   0.283 -1.2895 -0.9033  1.3896
 4444TIP3   OH234746   0.827   0.393   0.760 -0.0167 -0.2299 -0.4139
 4444TIP3    H134747   0.848   0.312   0.807  0.4935  1.3072  2.1343
 4444TIP3    H234748   0.874   0.461   0.809 -0.3046  1.5898 -2.6052
 4445TIP3   OH234749   0.409   0.629  12.155  0.1279 -0.4428  0.0423
 4445TIP3    H134750   0.468   0.701  12.131  1.0047 -1.2667 -0.2979
 4445TIP3    H234751   0.403   0.634  12.250 -1.8791  1.6755 -0.1488
 4446TIP3   OH234752   1.746   2.948  16.680  0.7855  0.5405  0.0492
 4446TIP3    H134753   1.668   2.993  16.647  0.4889 -1.5703 -2.3176
 4446TIP3    H234754   1.804   2.942  16.604 -0.1066 -4.8424 -0.4043
 4447TIP3   OH234755   1.206   5.529  12.334 -0.1171 -0.3463  0.5078
 4447TIP3    H134756   1.168   5.489  12.412  0.9169 -0.5366  0.9211
 4447TIP3    H234757   1.204   5.461  12.268 -0.2409 -0.4449  0.6148
 4448TIP3   OH234758   3.444   0.632  17.138  0.6396  0.0717  0.4615
 4448TIP3    H134759   3.370   0.572  17.151  1.2543 -0.5513  1.1243
 4448TIP3    H234760   3.522   0.578  17.156  1.2054  1.0149  0.8450
 4449TIP3   OH234761   4.849   0.608  16.731  0.4175  0.4056  0.5516
 4449TIP3    H134762   4.863   0.650  16.816 -0.1292  1.1661  0.2759
 4449TIP3    H234763   4.790   0.536  16.748  2.7290 -1.3650  1.3431
 4450TIP3   OH234764   3.262   6.579   5.450 -0.1789  0.1634  0.2424
 4450TIP3    H134765   3.222   6.493   5.451  0.2925 -0.0515  1.0565
 4450TIP3    H234766   3.275   6.601   5.542 -2.1481  1.9806  0.1018
 4451TIP3   OH234767   2.793   5.197   6.148  0.2249 -0.4160  0.2663
 4451TIP3    H134768   2.763   5.141   6.220  1.3562 -2.3052 -0.6789
 4451TIP3    H234769   2.886   5.208   6.164  0.5570 -1.1412 -1.0700
 4452TIP3   OH234770   4.649   3.228   6.246  0.0885 -0.2900  0.2715
 4452TIP3    H134771   4.669   3.305   6.300  0.3804 -0.1247 -0.0712
 4452TIP3    H234772   4.723   3.222   6.185 -0.2396 -0.4819 -0.1058
 4453TIP3   OH234773   3.855   5.256   1.214 -0.5927  0.0408  0.6717
 4453TIP3    H134774   3.887   5.346   1.224 -0.1854  0.0748 -0.9144
 4453TIP3    H234775   3.850   5.223   1.304  0.1631  1.3251  1.2013
 4454TIP3   OH234776   4.771   1.468  10.337 -0.3167  0.7579  0.0901
 4454TIP3    H134777   4.833   1.445  10.267  0.1915 -0.1227  0.8176
 4454TIP3    H234778   4.792   1.558  10.359 -0.3601  0.9865 -0.7694
 4455TIP3   OH234779   2.994   2.593   1.062 -0.9667 -0.4590  0.1903
 4455TIP3    H134780   3.069   2.605   1.121 -1.0128  0.1232  0.1346
 4455TIP3    H234781   3.007   2.507   1.024  0.0220 -0.0930 -0.3114
 4456TIP3   OH234782   1.605   4.337  17.040  0.4533 -0.0242  0.3780
 4456TIP3    H134783   1.525   4.304  16.998  0.5432  0.7303 -0.3968
 4456TIP3    H234784   1.606   4.294  17.126 -1.1410  0.4578  0.6652
 4457TIP3   OH234785   0.790   2.876  16.182 -0.4809  0.0369  0.0284
 4457TIP3    H134786   0.762   2.894  16.092  2.0396  2.7300 -0.2913
 4457TIP3    H234787   0.771   2.957  16.229 -0.3245 -0.8166  1.5741
 4458TIP3   OH234788   4.683   3.596   4.204  0.1373 -0.1533 -0.3869
 4458TIP3    H134789   4.725   3.670   4.247 -2.0947  0.5971  0.5433
 4458TIP3    H234790   4.674   3.623   4.112  2.5028 -0.7144 -0.8271
 4459TIP3   OH234791   2.716   4.543   3.918  0.2728 -0.1438  0.0534
 4459TIP3    H134792   2.677   4.585   3.995  3.7968  1.6052  1.0213
 4459TIP3    H234793   2.693   4.599   3.845  0.6155  0.6657  0.5572
 4460TIP3   OH234794   6.022   3.716  16.578  0.1960  0.0210 -0.4596
 4460TIP3    H134795   5.997   3.714  16.670 -1.3652 -0.1631 -0.8686
 4460TIP3    H234796   6.079   3.640  16.567 -0.8570 -0.8729  0.0319
 4461TIP3   OH234797   0.680   0.157  15.276  0.0027  0.0430  0.4707
 4461TIP3    H134798   0.637   0.092  15.222 -0.8788 -0.1443  1.3809
 4461TIP3    H234799   0.762   0.177  15.230  0.4914 -2.0268  0.4341
 4462TIP3   OH234800   5.943   1.683  16.261  0.4964  0.7768 -0.4934
 4462TIP3    H134801   5.959   1.743  16.189  1.0514  0.9573 -0.2268
 4462TIP3    H234802   5.942   1.739  16.339  1.2606  0.4097 -0.2150
 4463TIP3   OH234803   3.275   6.186  15.260 -0.1145 -0.4374 -1.1408
 4463TIP3    H134804   3.321   6.193  15.344 -0.6863 -2.1009 -0.6652
 4463TIP3    H234805   3.212   6.258  15.261  3.2909  2.7790 -2.3909
 4464TIP3   OH234806   1.482   1.146  15.156 -0.3371 -0.3185 -0.3550
 4464TIP3    H134807   1.577   1.137  15.149 -0.0659  0.4945  2.0790
 4464TIP3    H234808   1.462   1.126  15.247 -2.6759 -1.7059 -1.1191
 4465TIP3   OH234809   2.368   5.904  12.959 -0.0106 -0.3269 -0.5347
 4465TIP3    H134810   2.322   5.851  13.024  0.7330  0.5796  0.7482
 4465TIP3    H234811   2.316   5.984  12.953  0.0411 -0.3208 -0.8968
 4466TIP3   OH234812   3.793   6.638   0.810  0.1399  0.4914 -0.2824
 4466TIP3    H134813   3.845   6.570   0.767 -1.6741 -1.3092  0.3406
 4466TIP3    H234814   3.835   6.720   0.783  2.4097 -0.8540 -0.9699
 4467TIP3   OH234815   6.116   6.573  14.201  0.2720  0.3616 -0.1875
 4467TIP3    H134816   6.197   6.621  14.187 -0.0418  1.2735  1.0828
 4467TIP3    H234817   6.050   6.625  14.154  0.3486 -0.1823 -0.9106
 4468TIP3   OH234818   5.719   4.402  14.274  0.6116  0.4431 -0.3070
 4468TIP3    H134819   5.657   4.464  14.236  1.4963  0.2019 -2.1692
 4468TIP3    H234820   5.765   4.365  14.199 -0.0032 -2.5873  0.7450
 4469TIP3   OH234821   0.638   4.865  15.316  0.6791  0.5092 -0.5160
 4469TIP3    H134822   0.591   4.853  15.233  0.2053  0.7921 -0.2940
 4469TIP3    H234823   0.720   4.816  15.305  1.4089  1.9941 -1.7998
 4470TIP3   OH234824   4.771   5.888  14.702  0.6159 -0.3135 -1.0691
 4470TIP3    H134825   4.784   5.922  14.791 -0.1309 -1.4271 -0.5207
 4470TIP3    H234826   4.848   5.833  14.687  0.2544 -0.9221 -0.7176
 4471TIP3   OH234827   4.747   6.623  14.842 -0.1556  0.2390 -0.0471
 4471TIP3    H134828   4.682   6.688  14.815  1.1843  1.0671 -1.3635
 4471TIP3    H234829   4.823   6.675  14.866 -0.0355 -0.7180  1.6760
 4472TIP3   OH234830   4.971   2.940   3.396  0.0223 -0.5185  0.4486
 4472TIP3    H134831   4.943   2.975   3.312 -1.4650 -0.6088  0.8845
 4472TIP3    H234832   4.996   3.018   3.447  2.1570 -0.5560 -0.4783
 4473TIP3   OH234833   2.910   4.563   1.321 -0.3690  0.4276  0.3105
 4473TIP3    H134834   2.955   4.583   1.402 -0.4773  2.3139 -0.0687
 4473TIP3    H234835   2.834   4.622   1.320 -1.4605 -0.9404 -0.2403
 4474TIP3   OH234836   1.683   5.562   3.960 -0.1983 -0.0564  0.1948
 4474TIP3    H134837   1.589   5.543   3.961  0.1319 -1.8221  1.3316
 4474TIP3    H234838   1.722   5.484   3.920  0.7912  0.5853 -0.0902
 4475TIP3   OH234839   0.267   4.637   2.587  0.3620 -0.7229  0.4861
 4475TIP3    H134840   0.310   4.722   2.597  0.1366 -0.7814  2.1259
 4475TIP3    H234841   0.191   4.654   2.532  0.3373  0.1416  0.7831
 4476TIP3   OH234842   2.661   4.952   4.067 -0.3339  0.1849 -0.1924
 4476TIP3    H134843   2.755   4.953   4.047 -0.1619  1.8849  0.6128
 4476TIP3    H234844   2.619   4.963   3.982  0.1972 -0.3202 -0.5282
 4477TIP3   OH234845   3.457   0.762  12.704  0.6510 -0.2016 -0.0622
 4477TIP3    H134846   3.547   0.795  12.708  1.4766 -2.3094 -0.9283
 4477TIP3    H234847   3.465   0.669  12.686 -1.6894 -0.7386  1.3527
 4478TIP3   OH234848   1.811   5.838  13.032 -0.3448  0.0034  0.0234
 4478TIP3    H134849   1.766   5.825  12.948  0.6443 -3.1584 -0.1026
 4478TIP3    H234850   1.886   5.893  13.011  0.8169 -2.1017 -1.5501
 4479TIP3   OH234851   4.713   2.693   1.246  0.2634 -0.2542  0.0223
 4479TIP3    H134852   4.697   2.631   1.317  1.9786  2.6644  3.0673
 4479TIP3    H234853   4.791   2.741   1.273  0.4884  1.5074 -3.4942
 4480TIP3   OH234854   6.174   2.886   0.659  0.0056 -0.1302  0.0080
 4480TIP3    H134855   6.219   2.813   0.616 -0.4712  0.0670 -0.8338
 4480TIP3    H234856   6.235   2.960   0.652  0.9369 -0.6927  1.7868
 4481TIP3   OH234857   4.514   6.129   4.438  0.1638  0.4013  0.1943
 4481TIP3    H134858   4.430   6.087   4.459  0.3441  0.6131  1.3711
 4481TIP3    H234859   4.576   6.092   4.501  1.3141 -0.9439 -1.6959
 4482TIP3   OH234860   3.320   1.861  12.584  0.1781  0.9561 -0.0917
 4482TIP3    H134861   3.353   1.935  12.534 -1.3304 -1.4400 -5.0508
 4482TIP3    H234862   3.229   1.882  12.601  0.5134  1.4816  1.0500
 4483TIP3   OH234863   3.942   0.939   0.983  0.0386 -0.3807  0.1763
 4483TIP3    H134864   3.909   1.020   0.943  1.2916  0.4090  0.7345
 4483TIP3    H234865   3.899   0.935   1.068 -0.2766 -0.4752  0.0140
 4484TIP3   OH234866   6.563   4.100   6.015  0.2441  0.1435  0.0781
 4484TIP3    H134867   6.470   4.107   6.039  0.0231  1.4760 -1.0849
 4484TIP3    H234868   6.563   4.100   5.919  1.6314  3.9010 -0.0221
 4485TIP3   OH234869   5.302   6.500  11.966  0.5735  0.2268  0.2683
 4485TIP3    H134870   5.306   6.460  11.880 -0.5716  1.0579 -0.1836
 4485TIP3    H234871   5.209   6.519  11.980  1.1596  3.7295 -0.0201
 4486TIP3   OH234872   6.241   6.440  14.618 -0.1609 -0.5890  0.4755
 4486TIP3    H134873   6.196   6.520  14.593 -0.1903 -0.5861  0.5386
 4486TIP3    H234874   6.307   6.468  14.682  0.4551 -0.4829 -0.1932
 4487TIP3   OH234875   6.731   4.363   3.601  0.2885  0.1257  0.7131
 4487TIP3    H134876   6.820   4.335   3.623 -0.2423 -0.2916  2.3728
 4487TIP3    H234877   6.689   4.378   3.686 -1.0655  0.8290 -0.0716
 4488TIP3   OH234878   1.633   5.195  15.518  0.7430  0.1891 -0.0828
 4488TIP3    H134879   1.614   5.227  15.606  1.1829  1.1320 -0.3191
 4488TIP3    H234880   1.718   5.152  15.526  2.6795  3.6512 -0.7899
 4489TIP3   OH234881   3.837   1.449   0.767 -0.2020  0.6971 -0.1822
 4489TIP3    H134882   3.772   1.500   0.721 -0.2750  0.5742 -0.2163
 4489TIP3    H234883   3.856   1.375   0.708 -1.0204  0.0031  0.4037
 4490TIP3   OH234884   0.164   3.631  16.842  0.1172  0.0444  0.6506
 4490TIP3    H134885   0.197   3.551  16.801 -0.6378  0.1851 -0.2485
 4490TIP3    H234886   0.089   3.602  16.893 -0.1710  0.1808  0.3065
 4491TIP3   OH234887   5.172   4.559  11.728  0.3146  0.1551  0.1576
 4491TIP3    H134888   5.199   4.622  11.795  2.3079 -1.0250  0.5056
 4491TIP3    H234889   5.246   4.556  11.667 -0.7351 -0.1309 -1.1190
 4492TIP3   OH234890   2.439   3.631  10.879 -0.4730  0.1865 -0.2125
 4492TIP3    H134891   2.350   3.661  10.898  0.1191  0.8177  1.6527
 4492TIP3    H234892   2.449   3.550  10.929  0.4190  0.7895  0.6002
 4493TIP3   OH234893   5.673   0.597  13.590 -0.3942 -0.5560  0.3984
 4493TIP3    H134894   5.612   0.657  13.632 -1.4431 -0.3934 -1.3057
 4493TIP3    H234895   5.714   0.649  13.521 -0.8332 -1.6052 -0.6716
 4494TIP3   OH234896   4.803   0.684   2.594 -0.2215 -1.0606 -0.6582
 4494TIP3    H134897   4.784   0.667   2.686 -1.0293 -0.6301 -0.7359
 4494TIP3    H234898   4.721   0.719   2.559  0.7144  0.8304 -1.0251
 4495TIP3   OH234899   0.198   3.284   2.628  0.5240  0.2178  0.2700
 4495TIP3    H134900   0.225   3.211   2.684  1.1257 -0.0614 -0.3787
 4495TIP3    H234901   0.199   3.247   2.539 -2.6654 -0.0235  0.2781
 4496TIP3   OH234902   1.239   5.962  10.938  0.4407  0.1579  0.0266
 4496TIP3    H134903   1.235   5.884  10.883  0.8282 -0.0320  0.2616
 4496TIP3    H234904   1.148   5.980  10.961  0.2842  0.1931 -0.6049
 4497TIP3   OH234905   1.091   2.254  15.196 -0.2306 -0.4652 -0.0162
 4497TIP3    H134906   1.081   2.311  15.120  2.2049  1.4304  1.0179
 4497TIP3    H234907   1.019   2.280  15.254 -0.2968  0.1735 -0.3785
 4498TIP3   OH234908   2.418   0.368  14.845  0.2233  0.0825  1.0058
 4498TIP3    H134909   2.431   0.446  14.791  1.6392  0.8284  2.3713
 4498TIP3    H234910   2.439   0.295  14.787 -2.0331  0.6389 -0.5674
 4499TIP3   OH234911   0.004   6.333  14.910 -0.6563  0.2613  0.1580
 4499TIP3    H134912   0.060   6.328  14.833 -2.5178 -1.6563 -1.1374
 4499TIP3    H234913  -0.027   6.423  14.913  1.1957  0.9124 -0.0336
 4500TIP3   OH234914   0.424   4.399   2.686 -0.6872  0.0388  0.3185
 4500TIP3    H134915   0.398   4.485   2.655 -1.1811 -0.8805 -1.9551
 4500TIP3    H234916   0.361   4.339   2.646  1.0121 -1.5711 -0.0451
 4501TIP3   OH234917   0.779   5.135   5.642  0.0805 -0.0978 -0.0096
 4501TIP3    H134918   0.785   5.209   5.582  0.1432  0.4412  0.6443
 4501TIP3    H234919   0.867   5.096   5.641  0.1473  0.0548 -0.0906
 4502TIP3   OH234920   5.455   2.972  12.816 -0.5494  0.0738  0.5312
 4502TIP3    H134921   5.449   3.022  12.897 -0.2227 -0.2113  0.7330
 4502TIP3    H234922   5.518   3.020  12.763 -0.5688  0.1181  0.5473
 4503TIP3   OH234923   0.871   4.415  16.316 -0.2983  0.7207  0.4375
 4503TIP3    H134924   0.876   4.371  16.402  1.0806  1.9643  1.0184
 4503TIP3    H234925   0.852   4.344  16.255  1.8468 -0.7369  1.3552
 4504TIP3   OH234926   1.869   4.982   6.206 -0.1235 -0.4275  0.5335
 4504TIP3    H134927   1.840   5.031   6.129  1.0776 -0.6896 -0.1048
 4504TIP3    H234928   1.847   5.038   6.280  0.6914  0.8254 -0.1522
 4505TIP3   OH234929   1.566   4.134  12.175 -0.4197  0.3083 -0.4844
 4505TIP3    H134930   1.480   4.092  12.181 -0.6117  0.4724 -1.8743
 4505TIP3    H234931   1.627   4.061  12.165 -0.2827  0.1370  1.4624
 4506TIP3   OH234932   6.730   5.933  16.619 -0.2825  0.1051 -0.2858
 4506TIP3    H134933   6.717   5.838  16.625  1.5612 -0.0978  1.1121
 4506TIP3    H234934   6.717   5.965  16.708  2.0159  0.7390 -0.1414
 4507TIP3   OH234935   2.691   5.003   0.630 -0.2120  0.0871  0.8198
 4507TIP3    H134936   2.742   5.059   0.688 -0.8824  1.7057 -0.1158
 4507TIP3    H234937   2.735   5.009   0.545 -1.0839  0.2887  0.3794
 4508TIP3   OH234938   4.993   1.613  11.580 -0.0679 -0.1762  0.3348
 4508TIP3    H134939   5.004   1.618  11.675 -2.0872 -0.8004  0.6321
 4508TIP3    H234940   5.062   1.668  11.544 -0.3401  1.4242  2.2195
 4509TIP3   OH234941   3.720   5.340   6.121 -0.6282 -0.1863 -0.6594
 4509TIP3    H134942   3.736   5.251   6.154  0.8547 -0.5683 -2.3166
 4509TIP3    H234943   3.730   5.332   6.026 -0.4595  1.7582 -0.8223
 4510TIP3   OH234944   1.908   5.566  14.787  0.2179  0.4624 -0.6269
 4510TIP3    H134945   1.820   5.585  14.754  0.5868  2.3518 -0.6189
 4510TIP3    H234946   1.947   5.510  14.721 -0.1812  1.5632 -1.8208
 4511TIP3   OH234947   2.301   2.634   3.638 -0.9471  0.4003 -0.3686
 4511TIP3    H134948   2.295   2.580   3.560  0.6436 -0.3085 -0.0280
 4511TIP3    H234949   2.315   2.723   3.605 -3.8378  0.7057 -0.9349
 4512TIP3   OH234950   3.964   2.589   2.248  0.0019 -0.2141 -0.3652
 4512TIP3    H134951   3.984   2.585   2.342 -0.5966  0.7063 -0.1974
 4512TIP3    H234952   3.997   2.674   2.220  0.1717 -0.4886 -0.9898
 4513TIP3   OH234953   0.249   0.076   5.080 -0.7546 -0.0004  0.4636
 4513TIP3    H134954   0.191   0.063   5.005 -1.9055 -1.5347  1.6138
 4513TIP3    H234955   0.281  -0.011   5.102  2.9681  0.9161 -0.8725
 4514TIP3   OH234956   4.656   1.855  12.329  0.2836  0.2677  1.0178
 4514TIP3    H134957   4.610   1.828  12.250  0.6010  0.7351  0.6697
 4514TIP3    H234958   4.601   1.925  12.365  0.7242  0.8521  0.5814
 4515TIP3   OH234959   5.710   2.514   5.315 -0.0767 -0.2259 -0.0027
 4515TIP3    H134960   5.695   2.522   5.221 -0.1741 -0.5234 -0.0110
 4515TIP3    H234961   5.719   2.420   5.331 -0.0592 -0.1776  0.2849
 4516TIP3   OH234962   5.872   5.558   4.724 -0.1105  0.2846  0.1431
 4516TIP3    H134963   5.821   5.604   4.791 -4.5418 -1.1484 -2.0755
 4516TIP3    H234964   5.855   5.606   4.643  2.3384 -0.0939 -0.6330
 4517TIP3   OH234965   1.133   4.465  12.358  0.5424 -0.3677 -0.2316
 4517TIP3    H134966   1.218   4.420  12.362 -0.2281 -1.8663 -0.7233
 4517TIP3    H234967   1.151   4.544  12.306  2.3910  1.0625  2.4015
 4518TIP3   OH234968   6.303   2.337   3.861 -0.1242 -0.0793  0.5530
 4518TIP3    H134969   6.207   2.345   3.856  0.0925  2.1971 -0.8887
 4518TIP3    H234970   6.318   2.248   3.892 -2.7044 -0.6937  0.1770
 4519TIP3   OH234971   4.710   3.258   0.030 -0.2517 -0.0094 -0.2371
 4519TIP3    H134972   4.734   3.271  -0.062  1.8590  0.3119  0.3412
 4519TIP3    H234973   4.644   3.325   0.047  2.3693  2.7080 -0.4105
 4520TIP3   OH234974   6.190   4.568   1.410 -0.3556  0.3684 -0.0531
 4520TIP3    H134975   6.160   4.549   1.321  1.7353  0.5730 -0.8284
 4520TIP3    H234976   6.117   4.615   1.450 -2.2538 -1.7739 -0.8692
 4521TIP3   OH234977   4.723   0.140  14.645 -0.2408  0.2294  0.3013
 4521TIP3    H134978   4.661   0.086  14.694 -1.5289  0.6152 -0.8798
 4521TIP3    H234979   4.677   0.223  14.631  0.0804  0.1132 -1.5807
 4522TIP3   OH234980   2.462   2.263  15.216  0.3101 -0.3210  0.0526
 4522TIP3    H134981   2.535   2.302  15.168  0.9883  2.1152  2.9223
 4522TIP3    H234982   2.384   2.294  15.170  0.9538  1.8064  0.3446
 4523TIP3   OH234983   4.989   3.238  14.153  0.3342  0.4356 -0.2694
 4523TIP3    H134984   4.900   3.266  14.174 -0.1600 -1.8805  0.9402
 4523TIP3    H234985   4.978   3.173  14.084  1.1952  0.8877 -0.8455
 4524TIP3   OH234986   0.004   2.719  16.753 -0.1893 -0.0572  0.6297
 4524TIP3    H134987  -0.006   2.643  16.811  0.2295  0.9878  2.0957
 4524TIP3    H234988  -0.057   2.784  16.789 -1.9024 -0.3082 -1.6957
 4525TIP3   OH234989   2.469   5.772   2.977 -0.2081  0.3311  0.1198
 4525TIP3    H134990   2.417   5.851   2.964  0.2112  0.4546 -0.7686
 4525TIP3    H234991   2.560   5.800   2.970  0.0159  0.1608  1.9275
 4526TIP3   OH234992   3.584   5.735   6.680  0.6583  0.0915  0.2122
 4526TIP3    H134993   3.499   5.772   6.655  0.5507 -0.1749  0.1824
 4526TIP3    H234994   3.564   5.676   6.753  0.8179  0.0373  0.2115
 4527TIP3   OH234995   6.107   6.687   1.282 -0.1706  0.0213 -0.0767
 4527TIP3    H134996   6.126   6.678   1.188  1.5228 -0.4760  0.2990
 4527TIP3    H234997   6.042   6.618   1.299 -0.6445  0.2493 -0.9181
 4528TIP3   OH234998   4.611   2.949  13.916  0.0306  0.1434 -0.3397
 4528TIP3    H134999   4.653   3.028  13.881 -0.1796  0.1131 -0.6556
 4528TIP3    H235000   4.674   2.879  13.898  0.7764  0.4318  1.0385
 4529TIP3   OH235001   2.180   3.883   2.268  0.3884 -0.4251 -0.2624
 4529TIP3    H135002   2.099   3.868   2.317  0.9645 -1.9191  0.2507
 4529TIP3    H235003   2.153   3.890   2.177 -0.5224  0.8673  0.1002
 4530TIP3   OH235004   5.051   1.964   4.268 -0.0565  0.0009 -0.2177
 4530TIP3    H135005   4.960   1.991   4.261  0.0649  0.5375  0.1312
 4530TIP3    H235006   5.059   1.929   4.357 -0.0118 -0.3995 -0.3785
 4531TIP3   OH235007   5.124   3.642  13.136 -0.0131  0.1107 -0.5188
 4531TIP3    H135008   5.100   3.731  13.110  0.1142  0.0934 -0.6914
 4531TIP3    H235009   5.181   3.653  13.213  0.2259  0.1882 -0.7065
 4532TIP3   OH235010   0.322   5.386   3.421  0.0279 -0.6176  0.3437
 4532TIP3    H135011   0.332   5.473   3.459 -0.5321 -0.3562 -0.0875
 4532TIP3    H235012   0.377   5.387   3.342 -0.2245 -0.5394  0.1654
 4533TIP3   OH235013   2.683   4.414   0.971  0.2914 -0.4947  0.1669
 4533TIP3    H135014   2.602   4.397   1.019 -0.4905 -0.2834 -1.0854
 4533TIP3    H235015   2.718   4.327   0.953  1.3326 -0.5687  2.3481
 4534TIP3   OH235016   4.400   1.354   2.756 -0.7547  0.1813  0.0625
 4534TIP3    H135017   4.461   1.401   2.700 -0.0949  1.4054  1.7805
 4534TIP3    H235018   4.423   1.262   2.745  1.6915  0.6429  0.9759
 4535TIP3   OH235019   3.581   0.432   4.467  0.4530  0.3072 -0.2684
 4535TIP3    H135020   3.521   0.498   4.433 -0.6940  0.1298  1.3627
 4535TIP3    H235021   3.653   0.431   4.404 -1.8294 -0.4048 -3.0065
 4536TIP3   OH235022   0.252   1.785   3.140  0.3734  0.9323 -0.4711
 4536TIP3    H135023   0.198   1.794   3.061 -1.4636 -0.5246  0.5798
 4536TIP3    H235024   0.225   1.858   3.196 -0.3442  0.3644 -0.0616
 4537TIP3   OH235025   3.882   4.177  15.231 -0.2294  0.0511  0.2089
 4537TIP3    H135026   3.865   4.271  15.225  1.6405  0.3878 -0.3082
 4537TIP3    H235027   3.835   4.139  15.157  0.3513  0.8040 -0.5602
 4538TIP3   OH235028   2.030   1.666   5.857 -0.6196 -0.1470  0.3229
 4538TIP3    H135029   2.055   1.744   5.907 -2.5303  0.2737  0.6576
 4538TIP3    H235030   2.071   1.593   5.905  1.2522  0.6182 -0.0463
 4539TIP3   OH235031   3.466   6.289   5.475  0.2803  0.5636 -0.2390
 4539TIP3    H135032   3.519   6.343   5.416  1.8512 -1.2786 -0.5823
 4539TIP3    H235033   3.528   6.225   5.510 -1.2352 -0.1144  1.2441
 4540TIP3   OH235034   6.492   0.520   1.666  0.1259 -0.0043  0.3597
 4540TIP3    H135035   6.498   0.445   1.725  1.1087  0.7277  1.2132
 4540TIP3    H235036   6.399   0.530   1.649 -0.0392 -1.2399  0.4581
 4541TIP3   OH235037   1.325   4.893   4.485 -0.7007 -0.2200 -0.0262
 4541TIP3    H135038   1.406   4.944   4.480 -0.7570 -0.1708 -0.4144
 4541TIP3    H235039   1.340   4.833   4.558  0.7760 -2.0507 -1.7683
 4542TIP3   OH235040   4.883   4.133   3.741 -0.4590 -0.3449  0.0979
 4542TIP3    H135041   4.899   4.059   3.799 -0.4653 -0.7868 -0.4627
 4542TIP3    H235042   4.934   4.205   3.779 -0.5148 -0.6144  0.6836
 4543TIP3   OH235043   2.170   6.294   3.034  0.5240 -0.2491  0.0968
 4543TIP3    H135044   2.178   6.258   3.123  1.4806 -0.8562 -0.2297
 4543TIP3    H235045   2.242   6.254   2.985  0.1094  0.2210 -0.9121
 4544TIP3   OH235046   6.485   4.306   2.445  0.3442 -0.2029 -0.4204
 4544TIP3    H135047   6.409   4.251   2.464 -1.4076  2.8266  1.7338
 4544TIP3    H235048   6.469   4.338   2.356 -0.8614  0.3807  0.0038
 4545TIP3   OH235049   4.642   6.370  13.869 -1.1318  0.2550 -0.0193
 4545TIP3    H135050   4.563   6.337  13.826 -1.4645  3.8768 -2.4032
 4545TIP3    H235051   4.712   6.354  13.805 -0.8185  1.5394 -0.0040
 4546TIP3   OH235052   2.019   2.961  11.817  0.4301  0.4756  0.8231
 4546TIP3    H135053   2.098   2.978  11.867  0.6280 -1.5421  1.2452
 4546TIP3    H235054   2.039   2.991  11.728  1.1220  1.3426  1.2615
 4547TIP3   OH235055   1.052   2.920  11.429  0.0409  0.3348 -0.3516
 4547TIP3    H135056   1.074   2.895  11.518  1.1113 -1.3891 -1.0541
 4547TIP3    H235057   0.993   2.994  11.438 -1.9038 -1.4169  1.8477
 4548TIP3   OH235058   4.101   3.456  16.285  0.2567  0.1233  0.2699
 4548TIP3    H135059   4.115   3.379  16.228 -0.0295 -0.3347  0.8219
 4548TIP3    H235060   4.169   3.448  16.352 -0.3623 -0.1525  0.8657
 4549TIP3   OH235061   1.695   3.416   1.883 -0.6683  0.3969 -0.2652
 4549TIP3    H135062   1.726   3.393   1.795 -0.4990  1.6480 -0.5435
 4549TIP3    H235063   1.775   3.434   1.932 -0.7665 -0.2376  0.1400
 4550TIP3   OH235064   5.135   0.952   2.873  0.2398 -0.2295 -0.2185
 4550TIP3    H135065   5.076   0.888   2.911 -1.6374  1.6172  0.0820
 4550TIP3    H235066   5.089   0.985   2.796  1.2098  0.6821 -0.4231
 4551TIP3   OH235067   1.494   1.761  12.178 -0.4221 -0.0388  0.0224
 4551TIP3    H135068   1.491   1.754  12.274  1.1615  0.5672  0.1191
 4551TIP3    H235069   1.459   1.848  12.160 -0.1335  0.0871  0.0797
 4552TIP3   OH235070   1.578   6.046  11.223 -0.2862 -0.1769 -0.5178
 4552TIP3    H135071   1.636   5.970  11.225 -0.3171 -0.1857  0.3771
 4552TIP3    H235072   1.613   6.104  11.290 -0.9128  0.1196 -0.4437
 4553TIP3   OH235073   0.324   3.156  12.230  0.3474  0.5638 -0.0216
 4553TIP3    H135074   0.313   3.144  12.136  1.3667 -0.0286 -0.0732
 4553TIP3    H235075   0.263   3.094  12.270  1.4566 -0.7140 -0.2949
 4554TIP3   OH235076   0.205   4.202  13.311  0.3821  0.3979 -0.1588
 4554TIP3    H135077   0.119   4.244  13.316  0.4580  0.5732 -0.3529
 4554TIP3    H235078   0.238   4.223  13.224  0.3767 -0.1463 -0.2987
 4555TIP3   OH235079   2.404   6.351   0.410  1.1253  0.0904  0.5827
 4555TIP3    H135080   2.377   6.383   0.496 -0.8352  0.0099  0.0137
 4555TIP3    H235081   2.348   6.275   0.393  0.2488  1.1508 -1.5041
 4556TIP3   OH235082   4.548   5.556   4.794 -0.6944 -0.6528 -0.4028
 4556TIP3    H135083   4.454   5.570   4.788 -0.4121  1.3436 -0.7073
 4556TIP3    H235084   4.567   5.558   4.888 -1.0243 -1.5494 -0.3188
 4557TIP3   OH235085   3.071   6.765   0.720  0.3723 -0.0427  0.2204
 4557TIP3    H135086   3.065   6.728   0.631 -2.3859  0.2752  0.2343
 4557TIP3    H235087   3.000   6.723   0.768 -0.8740  2.9715  1.1035
 4558TIP3   OH235088   0.313   5.342  15.959  0.1490 -0.3935 -0.0595
 4558TIP3    H135089   0.219   5.338  15.940 -0.1613 -1.6673  1.6592
 4558TIP3    H235090   0.349   5.398  15.890 -1.3081 -2.8273 -2.8824
 4559TIP3   OH235091   1.319   5.350  16.663  0.3840 -0.0318 -0.0039
 4559TIP3    H135092   1.268   5.273  16.637  0.8568 -0.9349  1.6691
 4559TIP3    H235093   1.302   5.414  16.594 -2.5916 -0.4949  0.2114
 4560TIP3   OH235094   4.527   5.031   2.292 -0.3286 -0.0209 -0.2313
 4560TIP3    H135095   4.483   5.017   2.375 -0.2749 -1.5309 -0.4391
 4560TIP3    H235096   4.501   4.957   2.238  0.0146  0.6896 -1.4004
 4561TIP3   OH235097   0.069   0.812  12.185  0.0946 -0.3355  0.4417
 4561TIP3    H135098   0.006   0.881  12.208 -0.3144 -1.1399  1.7579
 4561TIP3    H235099   0.048   0.790  12.094  0.5404  1.6035 -0.1649
 4562TIP3   OH235100   2.051   3.869  12.024  0.6528  0.3271  0.3317
 4562TIP3    H135101   1.977   3.876  11.963  1.2299  2.7159 -0.1532
 4562TIP3    H235102   2.071   3.775  12.027 -1.1045 -0.1233 -1.0747
 4563TIP3   OH235103   6.464   1.465  15.453 -0.2590 -0.5033 -0.2396
 4563TIP3    H135104   6.502   1.436  15.535 -0.2531 -0.2646 -0.1590
 4563TIP3    H235105   6.532   1.450  15.388 -0.3092 -0.8121 -0.2218
 4564TIP3   OH235106   2.563   6.565  15.778 -0.3525  0.2551 -0.1931
 4564TIP3    H135107   2.657   6.551  15.768 -0.2394  2.0550 -1.6971
 4564TIP3    H235108   2.523   6.486  15.741  0.5288 -0.0925 -0.4117
 4565TIP3   OH235109   4.693   5.602   2.908  0.2415  0.2792  0.0173
 4565TIP3    H135110   4.727   5.545   2.838 -1.1716  0.4785 -0.8426
 4565TIP3    H235111   4.678   5.542   2.981  0.1157 -0.2158 -0.4054
 4566TIP3   OH235112   1.678   6.746  14.656 -0.6809 -0.4415 -0.3920
 4566TIP3    H135113   1.590   6.773  14.629 -0.9018 -0.4590  0.3027
 4566TIP3    H235114   1.667   6.715  14.745 -0.0206 -0.7374 -0.4104
 4567TIP3   OH235115   4.095   6.502  11.966  0.0170  0.1184 -0.3091
 4567TIP3    H135116   4.111   6.424  12.019 -2.7201 -0.0860  0.2761
 4567TIP3    H235117   4.008   6.488  11.929  0.0886  2.2668 -1.3426
 4568TIP3   OH235118   0.054   5.184   2.822 -0.2763 -0.3347 -0.2732
 4568TIP3    H135119   0.128   5.126   2.839  0.5679  0.5652 -0.8315
 4568TIP3    H235120   0.002   5.137   2.757 -0.4498 -1.1825  0.4658
 4569TIP3   OH235121   4.837   0.658  13.967  1.1536 -0.2917  0.1565
 4569TIP3    H135122   4.889   0.738  13.965  0.9879 -0.1922 -1.3186
 4569TIP3    H235123   4.814   0.642  13.875 -0.8598 -0.6898  0.6931
 4570TIP3   OH235124   2.025   5.749   3.989  0.2230  0.0452  0.1004
 4570TIP3    H135125   1.951   5.772   3.932  1.4143  0.7879 -1.1818
 4570TIP3    H235126   2.082   5.696   3.933  0.4718 -0.8649  1.2061
 4571TIP3   OH235127   6.420   1.673   4.939 -0.4000  0.0074  0.1546
 4571TIP3    H135128   6.346   1.629   4.898 -0.7088 -0.2860  1.0056
 4571TIP3    H235129   6.383   1.752   4.978 -0.0936  0.3327 -0.2156
 4572TIP3   OH235130   0.704   1.593   0.306  0.1043  0.4656  0.3500
 4572TIP3    H135131   0.687   1.609   0.399 -0.4668  0.6860  0.2103
 4572TIP3    H235132   0.729   1.679   0.271  0.2109  0.4053  0.2789
 4573TIP3   OH235133   0.198   1.130   5.754 -0.4477  0.0033  0.2420
 4573TIP3    H135134   0.271   1.109   5.812 -1.0296  0.1429  1.0262
 4573TIP3    H235135   0.176   1.046   5.713 -1.7079 -0.6305  2.1557
 4574TIP3   OH235136   5.133   5.696   5.738 -0.0233  0.1998  0.1267
 4574TIP3    H135137   5.110   5.785   5.713  0.3769  0.2904  0.0819
 4574TIP3    H235138   5.229   5.695   5.740  0.0571 -0.9193 -2.4584
 4575TIP3   OH235139   2.865   1.074  16.677 -0.2988  0.0815  0.5874
 4575TIP3    H135140   2.932   1.097  16.612 -0.3843 -3.6610 -0.9662
 4575TIP3    H235141   2.783   1.076  16.628 -0.5767 -1.1560  0.9954
 4576TIP3   OH235142   1.717   6.382   4.108  0.4301  0.0291  0.4012
 4576TIP3    H135143   1.806   6.403   4.082  0.1179  2.7805  1.4488
 4576TIP3    H235144   1.662   6.443   4.059 -0.8645 -1.3231  0.1124
 4577TIP3   OH235145   5.371   3.274  15.308 -0.3843  0.1881  0.6377
 4577TIP3    H135146   5.326   3.276  15.392  0.3451  1.6147  1.0117
 4577TIP3    H235147   5.374   3.366  15.281  0.9156 -0.0732 -0.1185
 4578TIP3   OH235148   5.537   1.349  12.238 -0.6007 -0.2477  0.5842
 4578TIP3    H135149   5.499   1.377  12.322 -0.1648 -0.8391  0.9828
 4578TIP3    H235150   5.544   1.254  12.246 -0.4692 -0.2966 -0.0951
 4579TIP3   OH235151   5.348   1.668   1.489  0.3078  0.5918 -0.0783
 4579TIP3    H135152   5.295   1.590   1.474  0.3956  0.7000 -0.9912
 4579TIP3    H235153   5.345   1.716   1.406  2.4392  0.2237 -0.4022
 4580TIP3   OH235154   1.244   2.388   4.531 -0.1479 -0.6340 -0.2014
 4580TIP3    H135155   1.327   2.379   4.483  0.2184 -2.0967  0.6633
 4580TIP3    H235156   1.192   2.313   4.501 -0.4303 -0.7863  0.6714
 4581TIP3   OH235157   5.960   0.894  12.659  0.0403 -0.3621  0.3038
 4581TIP3    H135158   5.887   0.849  12.615 -0.5007  0.1643  0.6572
 4581TIP3    H235159   5.918   0.962  12.712  0.7815 -0.1461  0.6206
 4582TIP3   OH235160   0.037   3.463  15.111 -0.3750 -0.2116  0.0761
 4582TIP3    H135161   0.026   3.486  15.203  1.4264  0.8761  0.0489
 4582TIP3    H235162  -0.020   3.523  15.064 -0.2406  0.1781  0.4019
 4583TIP3   OH235163   0.656   4.738   6.152  0.4839  0.4436 -0.1961
 4583TIP3    H135164   0.652   4.788   6.233  0.8974  1.3626 -0.7341
 4583TIP3    H235165   0.582   4.771   6.100 -0.4850 -0.9597  0.2594
 4584TIP3   OH235166   4.610   5.818   5.608  0.2124 -0.3984 -0.5770
 4584TIP3    H135167   4.601   5.911   5.584 -1.1415  0.1516  1.9608
 4584TIP3    H235168   4.559   5.772   5.541  2.1038  0.5139 -2.7456
 4585TIP3   OH235169   4.785   6.131   5.470  0.4626 -0.3063  0.2549
 4585TIP3    H135170   4.839   6.210   5.462  1.0425 -0.0912  4.9139
 4585TIP3    H235171   4.830   6.066   5.417  1.5205  1.7094 -1.4253
 4586TIP3   OH235172   2.826   4.823   4.674  0.0457 -0.0303 -0.3122
 4586TIP3    H135173   2.840   4.762   4.746 -0.1219  0.3189  0.0202
 4586TIP3    H235174   2.846   4.772   4.595 -2.6936 -1.3583 -0.2296
 4587TIP3   OH235175   0.481   0.348   2.173 -0.4435  0.2682 -0.3067
 4587TIP3    H135176   0.508   0.390   2.091 -2.2865 -1.2520 -1.7541
 4587TIP3    H235177   0.419   0.409   2.211  1.1350  1.4243  0.4706
 4588TIP3   OH235178   4.635   1.844   3.423 -0.6138  0.0839  0.4778
 4588TIP3    H135179   4.668   1.756   3.444 -0.7024  0.5315  2.6492
 4588TIP3    H235180   4.713   1.898   3.416 -0.4429 -0.4753 -2.6239
 4589TIP3   OH235181   0.864   1.095  13.167  0.1723  0.7479  0.0195
 4589TIP3    H135182   0.938   1.116  13.225  0.3846  0.5404 -0.1781
 4589TIP3    H235183   0.828   1.013  13.202  0.5624  0.3997 -0.3996
 4590TIP3   OH235184   6.621   2.964   0.183  1.1878  0.2665  0.4930
 4590TIP3    H135185   6.602   2.880   0.141 -0.2735  0.9346 -0.2377
 4590TIP3    H235186   6.565   2.966   0.260  1.5479  0.3837  0.7545
 4591TIP3   OH235187   5.592   6.740  15.165 -0.6223 -0.2377  0.3908
 4591TIP3    H135188   5.533   6.796  15.113 -0.5786 -0.3385  0.2318
 4591TIP3    H235189   5.577   6.767  15.255 -0.7749 -0.1319  0.3339
 4592TIP3   OH235190   5.559   3.263   4.392  0.5133  0.0694 -0.7547
 4592TIP3    H135191   5.599   3.350   4.396  0.4621  0.0574  0.0012
 4592TIP3    H235192   5.473   3.278   4.352  0.9603  0.1981 -1.7004
 4593TIP3   OH235193   4.287   5.199  14.471  0.0408 -0.4962  0.4408
 4593TIP3    H135194   4.235   5.140  14.417 -1.6206  2.0764 -0.8990
 4593TIP3    H235195   4.365   5.217  14.417  0.6305 -1.5761  0.9251
 4594TIP3   OH235196   6.536   1.397  15.699 -0.1112 -0.2116 -0.1893
 4594TIP3    H135197   6.471   1.361  15.759 -0.5405  2.0264  0.7567
 4594TIP3    H235198   6.604   1.433  15.757  0.2314  0.5986 -1.0814
 4595TIP3   OH235199   3.244   0.892   3.763  0.0832  0.3627 -0.1911
 4595TIP3    H135200   3.329   0.852   3.782  0.2245 -0.1110 -1.7514
 4595TIP3    H235201   3.262   0.952   3.691 -0.8827  0.3322 -0.4609
 4596TIP3   OH235202   0.192   6.067  16.758 -0.5456 -0.7046  0.1318
 4596TIP3    H135203   0.130   6.114  16.702 -1.0758 -1.8513 -0.2592
 4596TIP3    H235204   0.138   6.006  16.808  0.0516 -0.4141  1.1439
 4597TIP3   OH235205   1.124   1.191   3.674  0.0264  0.5872 -0.3718
 4597TIP3    H135206   1.147   1.280   3.647 -2.4951  1.1431 -0.8284
 4597TIP3    H235207   1.055   1.203   3.740  1.6007 -0.9650  1.6015
 4598TIP3   OH235208   0.192   2.502   5.129  0.0566 -0.5236  0.7393
 4598TIP3    H135209   0.179   2.438   5.059 -1.3829  1.2144 -0.5931
 4598TIP3    H235210   0.107   2.505   5.175 -0.6225  2.0846 -0.6203
 4599TIP3   OH235211   5.771   4.006   6.802  0.5256 -0.4041  0.5704
 4599TIP3    H135212   5.807   3.930   6.848  0.0540 -0.5582  0.6905
 4599TIP3    H235213   5.700   4.037   6.859 -0.4700 -0.9645 -0.3401
 4600TIP3   OH235214   0.297   5.183  14.773 -0.1091 -0.1761 -0.2731
 4600TIP3    H135215   0.311   5.251  14.839 -0.7440 -0.6061  0.3139
 4600TIP3    H235216   0.203   5.166  14.776 -0.1451 -0.2040 -1.2925
 4601TIP3   OH235217   5.622   6.728   1.385 -0.6913  0.0251  0.0513
 4601TIP3    H135218   5.658   6.781   1.315 -0.3055 -1.5872 -0.9961
 4601TIP3    H235219   5.698   6.690   1.429 -1.0057 -0.9307 -0.2169
 4602TIP3   OH235220   6.513   6.626   0.196 -0.4204 -0.2127 -0.3814
 4602TIP3    H135221   6.487   6.546   0.243  0.0731  0.0495  0.3397
 4602TIP3    H235222   6.478   6.614   0.108 -1.4669 -0.6554  0.0850
 4603TIP3   OH235223   0.323   1.495  13.595  0.4345 -0.3417  0.1370
 4603TIP3    H135224   0.403   1.539  13.565  0.2115 -0.7048 -1.0070
 4603TIP3    H235225   0.252   1.544  13.554  0.0017  0.5128  1.8356
 4604TIP3   OH235226   1.297   1.867  14.629  0.3161  0.0076  0.3387
 4604TIP3    H135227   1.250   1.918  14.564 -1.5303 -0.7863  0.9986
 4604TIP3    H235228   1.297   1.922  14.708  2.3673  0.8827 -0.2445
 4605TIP3   OH235229   1.270   1.988   3.283 -0.0530 -0.3232 -0.4977
 4605TIP3    H135230   1.328   1.975   3.358  0.0350  0.3011 -0.4544
 4605TIP3    H235231   1.258   2.083   3.278 -3.2276 -0.5631  1.1328
 4606TIP3   OH235232   0.468   4.935   1.418 -0.2289  0.4489  0.2551
 4606TIP3    H135233   0.484   4.859   1.475 -0.9287  0.9271  1.1043
 4606TIP3    H235234   0.373   4.947   1.421 -0.1521  1.1734 -0.1163
 4607TIP3   OH235235   6.349   2.487   4.909  0.2822  0.0847 -0.0975
 4607TIP3    H135236   6.445   2.485   4.915  0.1605  1.5958  3.4439
 4607TIP3    H235237   6.319   2.449   4.991 -2.1757  1.0059 -0.5185
 4608TIP3   OH235238   0.007   6.057  17.087  0.1605  0.0570 -0.4111
 4608TIP3    H135239  -0.019   5.965  17.091  2.2108 -0.5470 -0.7256
 4608TIP3    H235240  -0.047   6.094  17.017 -0.4290 -0.9706 -0.5053
 4609TIP3   OH235241   6.381   3.519   5.294  0.2571 -0.1662  0.0017
 4609TIP3    H135242   6.346   3.434   5.321 -0.6863  0.0066 -0.6276
 4609TIP3    H235243   6.476   3.508   5.296  0.2356 -0.1035  3.4637
 4610TIP3   OH235244   1.929   4.743  13.461  0.2011 -0.3873 -0.3697
 4610TIP3    H135245   1.859   4.708  13.517  0.6679 -0.1926  0.3402
 4610TIP3    H235246   1.901   4.722  13.372 -1.5842  1.1460 -0.2004
 4611TIP3   OH235247   5.557   0.112   0.519 -0.0604  0.1709 -0.6573
 4611TIP3    H135248   5.637   0.069   0.488  0.0741 -1.3699  1.6863
 4611TIP3    H235249   5.565   0.112   0.615 -3.0494 -0.3794 -0.3533
 4612TIP3   OH235250   5.797   3.418  16.080 -0.2574 -0.1591  0.1458
 4612TIP3    H135251   5.703   3.403  16.083 -0.0821 -0.9949  2.1550
 4612TIP3    H235252   5.806   3.514  16.085 -0.9922 -0.1184  0.8944
 4613TIP3   OH235253   6.127   4.612  12.822 -0.1360  0.2364  0.2912
 4613TIP3    H135254   6.220   4.592  12.807  0.0475  0.8337  0.6052
 4613TIP3    H235255   6.127   4.667  12.901 -0.6525  1.2251 -0.3797
 4614TIP3   OH235256   2.765   0.401  15.359  0.2462  0.0138  0.0739
 4614TIP3    H135257   2.688   0.455  15.374 -0.7770 -1.3933  0.0137
 4614TIP3    H235258   2.754   0.367  15.270  1.2873  0.3653 -0.1971
 4615TIP3   OH235259   5.045   6.093  12.398  0.7907  0.2836  0.4057
 4615TIP3    H135260   5.020   6.121  12.310  2.4554  0.4066 -0.0421
 4615TIP3    H235261   5.031   6.170  12.452 -0.6198  0.0925  0.3350
 4616TIP3   OH235262   4.029   1.666   3.040  0.7064 -0.9290  0.4593
 4616TIP3    H135263   4.050   1.615   3.118  0.6484 -3.2418 -0.9802
 4616TIP3    H235264   4.112   1.677   2.994  0.6721  0.0512  0.6193
 4617TIP3   OH235265   2.014   3.211   3.703  0.2011  0.5625  0.0915
 4617TIP3    H135266   1.985   3.122   3.723 -0.1863  0.1829 -1.9780
 4617TIP3    H235267   1.964   3.235   3.625 -1.4460  3.5036  1.9475
 4618TIP3   OH235268   2.840   3.315  17.001  0.1849  0.3615 -0.8812
 4618TIP3    H135269   2.888   3.398  17.005  1.6140 -0.3507 -2.8020
 4618TIP3    H235270   2.886   3.257  17.061 -1.2808  1.1475  1.0665
 4619TIP3   OH235271   1.973   3.325   1.796  0.5521  0.2005 -0.2240
 4619TIP3    H135272   1.898   3.297   1.744 -0.5358  0.6640  1.0723
 4619TIP3    H235273   2.049   3.296   1.746 -0.4696  0.7511 -2.1371
 4620TIP3   OH235274   2.145   3.096  14.265 -0.2355 -0.1405 -0.0511
 4620TIP3    H135275   2.190   3.038  14.204  1.3808  1.0668 -0.0538
 4620TIP3    H235276   2.206   3.106  14.338 -2.4958 -2.2282  2.1847
 4621TIP3   OH235277   6.710   3.582   1.488  0.5023 -0.2774  0.2311
 4621TIP3    H135278   6.740   3.504   1.441  1.6301 -0.3443  1.0268
 4621TIP3    H235279   6.704   3.554   1.579 -0.0693  0.2890  0.3669
 4622TIP3   OH235280   0.228   2.951   5.595 -0.0741  0.7342  0.3656
 4622TIP3    H135281   0.175   3.003   5.656  0.7512  3.0669 -0.8500
 4622TIP3    H235282   0.305   2.927   5.646 -1.3656 -1.0142  1.5405
 4623TIP3   OH235283   6.780   2.809   1.256 -0.2090  0.4495  0.1537
 4623TIP3    H135284   6.700   2.790   1.306  0.3140  1.8219  1.5225
 4623TIP3    H235285   6.848   2.818   1.322  1.6093 -3.0066 -1.1277
 4624TIP3   OH235286   4.183   3.468  13.656 -0.0638  0.1628 -0.1562
 4624TIP3    H135287   4.219   3.380  13.671 -0.3256  0.1530  0.4287
 4624TIP3    H235288   4.104   3.471  13.710 -1.2031  0.0223 -1.7835
 4625TIP3   OH235289   5.492   3.281   2.077 -0.4269  0.3954 -0.4243
 4625TIP3    H135290   5.454   3.303   2.162  1.4322  1.2014  0.2079
 4625TIP3    H235291   5.569   3.228   2.097 -0.3184  0.0784 -1.6325
 4626TIP3   OH235292   6.387   2.502  11.588  0.0961  0.1443  0.2357
 4626TIP3    H135293   6.397   2.561  11.662  0.4919  1.8413 -1.1454
 4626TIP3    H235294   6.345   2.555  11.520  0.4185 -1.1637 -1.0144
 4627TIP3   OH235295   4.672   6.178  15.622 -0.0738  0.8760 -0.8179
 4627TIP3    H135296   4.717   6.262  15.625  0.8963  0.2923  1.4312
 4627TIP3    H235297   4.581   6.200  15.602 -0.1472  2.6057  1.2950
 4628TIP3   OH235298   1.613   1.943   1.017  0.6909  0.4703  0.8984
 4628TIP3    H135299   1.689   1.929   1.073  1.6493  0.4745 -0.3736
 4628TIP3    H235300   1.602   2.038   1.014 -1.1109  0.3743  3.3484
 4629TIP3   OH235301   1.263   1.832  16.146 -0.5626  0.7197  0.4817
 4629TIP3    H135302   1.341   1.831  16.202  0.0396 -1.5704 -0.3244
 4629TIP3    H235303   1.289   1.884  16.070 -0.8482  2.4926  1.5735
 4630TIP3   OH235304   1.935   2.466   0.464 -0.2218 -0.6927 -0.8750
 4630TIP3    H135305   1.983   2.384   0.446 -0.7420 -1.1131 -0.3737
 4630TIP3    H235306   1.850   2.453   0.423 -0.0851 -0.1494 -1.3260
 4631TIP3   OH235307   6.566   1.956   2.807 -0.4319 -0.3724 -0.4048
 4631TIP3    H135308   6.583   1.941   2.900 -0.0182 -2.4203 -0.7750
 4631TIP3    H235309   6.609   1.883   2.762 -1.9339 -0.2844 -2.0913
 4632TIP3   OH235310   3.023   1.561  10.506 -0.2815  0.7881 -0.5242
 4632TIP3    H135311   2.952   1.497  10.515  1.1140 -0.7206 -0.0268
 4632TIP3    H235312   3.036   1.567  10.411  1.8335 -2.2641 -0.5058
 4633TIP3   OH235313   3.105   2.374   6.065 -0.1165  0.0680 -0.2842
 4633TIP3    H135314   3.092   2.315   6.139 -1.3951 -0.2883 -0.7700
 4633TIP3    H235315   3.065   2.456   6.092  0.1275  0.1755 -0.2596
 4634TIP3   OH235316   2.979   1.156  12.844 -0.3885 -0.6596  0.4011
 4634TIP3    H135317   2.930   1.077  12.863  0.2666 -0.8424  1.3507
 4634TIP3    H235318   3.060   1.125  12.804 -0.4101 -0.4258  0.1687
 4635TIP3   OH235319   0.794   5.597  16.219 -0.4046  0.1332 -0.6307
 4635TIP3    H135320   0.754   5.640  16.295  0.3477  0.4676 -0.4102
 4635TIP3    H235321   0.726   5.594  16.153 -1.0529 -0.0998  0.0421
 4636TIP3   OH235322   6.253   1.724   1.143  0.0281  0.0617  0.4638
 4636TIP3    H135323   6.256   1.705   1.050 -2.4484 -1.6858  0.7056
 4636TIP3    H235324   6.174   1.776   1.155  0.7456  0.9469  1.5065
 4637TIP3   OH235325   2.532   3.764   0.672 -0.3445  0.4101  0.0050
 4637TIP3    H135326   2.462   3.700   0.686 -0.7815  0.7587 -0.5165
 4637TIP3    H235327   2.523   3.826   0.744  2.4588 -2.1450  2.6921
 4638TIP3   OH235328   2.507   5.090  15.390  0.1370  0.1137  0.5964
 4638TIP3    H135329   2.559   5.011  15.402  0.0211 -0.0475  0.0559
 4638TIP3    H235330   2.463   5.103  15.474 -2.0532 -1.9813 -0.1531
 4639TIP3   OH235331   5.684   6.208  10.572  0.4543  0.1991 -0.3513
 4639TIP3    H135332   5.645   6.125  10.547 -0.5569  0.4496  0.3011
 4639TIP3    H235333   5.689   6.258  10.491  0.2719 -0.1867 -0.6008
 4640TIP3   OH235334   5.242   2.923   0.605 -0.1192  0.0484  0.0542
 4640TIP3    H135335   5.283   2.972   0.675 -0.5736 -0.0152  0.3658
 4640TIP3    H235336   5.185   2.859   0.649  0.6067 -0.8873 -0.3355
 4641TIP3   OH235337   0.385   0.595   1.194  0.2524  0.1709  0.2873
 4641TIP3    H135338   0.347   0.656   1.130  0.3888 -2.2708 -2.1967
 4641TIP3    H235339   0.351   0.509   1.169  0.8750 -0.9548  3.1075
 4642TIP3   OH235340   4.240   0.304  15.677  0.4573 -0.0357 -0.7678
 4642TIP3    H135341   4.248   0.264  15.591 -0.7953  1.1994 -1.4782
 4642TIP3    H235342   4.328   0.301  15.714  1.2196  0.4269 -2.5284
 4643TIP3   OH235343   0.219   0.593  11.940  0.8312 -0.2465  0.1730
 4643TIP3    H135344   0.254   0.634  12.019  2.5917 -1.3895  0.0061
 4643TIP3    H235345   0.282   0.525  11.918  0.1822 -0.1657 -2.0492
 4644TIP3   OH235346   6.537   4.584  13.052 -0.4989  0.4531 -0.2494
 4644TIP3    H135347   6.461   4.588  13.110 -0.7712  1.0683 -0.6405
 4644TIP3    H235348   6.499   4.588  12.964  0.0638  2.1741 -0.4259
 4645TIP3   OH235349   1.861   2.386  12.864 -0.1989 -0.7387 -0.3730
 4645TIP3    H135350   1.856   2.312  12.804  1.5334 -1.0715 -0.1431
 4645TIP3    H235351   1.932   2.362  12.925 -0.9323  0.2462  0.8854
 4646TIP3   OH235352   1.442   4.826  16.067  0.3981  0.4798 -0.1694
 4646TIP3    H135353   1.422   4.757  16.131 -2.5361  1.9126  0.5693
 4646TIP3    H235354   1.447   4.906  16.120  0.1687  1.3484 -1.4514
 4647TIP3   OH235355   2.009   5.251   5.897  0.2379 -0.2603 -0.3821
 4647TIP3    H135356   2.009   5.347   5.905  1.1580 -0.4073  1.9466
 4647TIP3    H235357   2.077   5.222   5.959 -0.9910 -2.4774 -0.0130
 4648TIP3   OH235358   1.118   6.304  15.610 -0.1322  0.0945 -0.1103
 4648TIP3    H135359   1.074   6.349  15.538  1.7869 -0.2059 -1.5172
 4648TIP3    H235360   1.134   6.216  15.577 -0.2950 -0.4116  1.1306
 4649TIP3   OH235361   5.068   1.274  13.645  0.4699  0.3394 -0.3435
 4649TIP3    H135362   5.149   1.267  13.596  1.7792  0.1637  1.8017
 4649TIP3    H235363   5.033   1.184  13.646  1.1893  0.0648  0.3004
 4650TIP3   OH235364   2.710   6.559  15.430 -0.4012  0.6555  0.1713
 4650TIP3    H135365   2.797   6.592  15.453  0.1887 -0.0403 -0.9985
 4650TIP3    H235366   2.728   6.478  15.382 -1.6917  0.7309 -0.4364
 4651TIP3   OH235367   6.641   5.259   0.958 -0.2470  0.0414  0.1514
 4651TIP3    H135368   6.656   5.304   1.041 -0.9589 -1.0735  0.9109
 4651TIP3    H235369   6.561   5.297   0.924  0.3551  0.9051 -0.3172
 4652TIP3   OH235370   2.035   4.541   0.255 -0.3267 -0.3782  0.3533
 4652TIP3    H135371   2.024   4.633   0.230 -0.4342  0.3194  2.8491
 4652TIP3    H235372   1.997   4.492   0.182 -2.0504  1.6037 -0.1238
 4653TIP3   OH235373   5.292   3.643  14.534  0.6701 -0.4063  0.0653
 4653TIP3    H135374   5.355   3.681  14.596  0.3388  0.7891 -0.3239
 4653TIP3    H235375   5.332   3.559  14.509  2.2409  0.4521 -0.3765
 4654TIP3   OH235376   3.527   3.560   0.594  0.4441  0.4674  0.8051
 4654TIP3    H135377   3.576   3.483   0.621  2.8078  0.8146 -2.2364
 4654TIP3    H235378   3.592   3.630   0.589 -1.0016  1.8143  0.0805
 4655TIP3   OH235379   2.728   5.022  14.950  0.4119  0.3117  0.3039
 4655TIP3    H135380   2.657   5.043  15.011  0.8432 -0.4104  1.0695
 4655TIP3    H235381   2.697   4.944  14.904  1.5306 -1.1803  2.0391
 4656TIP3   OH235382   6.118   4.242  11.821  0.2335 -0.3533  0.0545
 4656TIP3    H135383   6.174   4.300  11.872 -0.5746  0.1466  0.3833
 4656TIP3    H235384   6.178   4.176  11.785  1.0293  0.1927  0.3685
 4657TIP3   OH235385   2.310   3.482  12.227 -0.3462  0.0955  0.2946
 4657TIP3    H135386   2.232   3.461  12.278  1.2456 -1.4283  2.1834
 4657TIP3    H235387   2.350   3.397  12.208 -0.5233  0.6880 -2.9181
 4658TIP3   OH235388   2.664   4.685   2.633 -0.2423  0.5605  0.2884
 4658TIP3    H135389   2.620   4.610   2.591 -0.6973  0.9873  0.0033
 4658TIP3    H235390   2.677   4.657   2.724 -1.3216  0.5280  0.4323
 4659TIP3   OH235391   6.299   4.124   6.078 -0.1645 -0.0025  0.5655
 4659TIP3    H135392   6.291   4.102   6.171 -1.4315  0.7165  0.6389
 4659TIP3    H235393   6.245   4.203   6.068 -0.6207 -0.4944 -0.9201
 4660TIP3   OH235394   4.006   5.388  12.243 -0.0394 -0.1149 -0.1774
 4660TIP3    H135395   3.968   5.426  12.322 -1.0325 -1.6714  0.1133
 4660TIP3    H235396   4.028   5.298  12.268  2.9945  0.4268 -0.6145
 4661TIP3   OH235397   2.020   3.959   1.400  0.4303  0.2563  0.4834
 4661TIP3    H135398   1.992   3.872   1.371  1.0019  0.1725  0.1794
 4661TIP3    H235399   1.938   4.008   1.410  0.0089 -0.7098  1.9714
 4662TIP3   OH235400   2.727   5.757   4.677  0.0629  0.6550  0.2801
 4662TIP3    H135401   2.818   5.753   4.707  0.7054  1.9078 -1.4393
 4662TIP3    H235402   2.685   5.818   4.737  1.1723  2.6148 -0.8721
 4663TIP3   OH235403   3.263   3.820   1.583  0.0365 -0.4012 -0.1245
 4663TIP3    H135404   3.346   3.817   1.537 -0.6176 -2.6436 -1.2133
 4663TIP3    H235405   3.286   3.809   1.675  1.1181  1.2839 -0.1760
 4664TIP3   OH235406   1.381   5.587  14.033  0.6266  0.1223 -0.3306
 4664TIP3    H135407   1.293   5.567  14.065  0.3707  0.4178 -0.8470
 4664TIP3    H235408   1.372   5.670  13.987  1.0962 -0.0482 -0.7343
 4665TIP3   OH235409   2.120   2.346  12.941  0.4566  0.0345 -0.0797
 4665TIP3    H135410   2.101   2.266  12.989  1.6023 -0.7311 -0.8811
 4665TIP3    H235411   2.207   2.372  12.969 -0.3641  1.6688  1.0498
 4666TIP3   OH235412   4.947   6.784  14.952 -0.0014 -0.3935  0.2475
 4666TIP3    H135413   4.976   6.845  15.020  0.1077 -0.1067 -0.0521
 4666TIP3    H235414   5.022   6.778  14.892  0.4751 -1.8479  0.9756
 4667TIP3   OH235415   2.225   2.873  10.457  0.8122 -0.1210  0.2992
 4667TIP3    H135416   2.179   2.800  10.416  2.2311 -1.9255  1.8229
 4667TIP3    H235417   2.216   2.946  10.395 -1.1433 -1.4023 -0.9569
 4668TIP3   OH235418   5.311   6.477   5.740  0.8587 -0.3165 -0.1519
 4668TIP3    H135419   5.277   6.518   5.820 -0.0939 -1.5082  0.0604
 4668TIP3    H235420   5.292   6.384   5.751  1.7397 -0.6374 -1.2692
 4669TIP3   OH235421   3.610   6.264  12.452  0.3100  0.0911 -0.2867
 4669TIP3    H135422   3.675   6.330  12.473  0.7491 -0.2899 -0.4566
 4669TIP3    H235423   3.577   6.234  12.537  1.0288 -0.3913 -0.1786
 4670TIP3   OH235424   1.288   2.140   3.700 -0.6616 -0.0220 -0.3837
 4670TIP3    H135425   1.377   2.119   3.727 -0.3448  2.8080  0.9070
 4670TIP3    H235426   1.298   2.196   3.623 -1.2144  2.3414  1.2227
 4671TIP3   OH235427   2.808   1.062  16.319  0.2598 -0.0649 -0.7362
 4671TIP3    H135428   2.747   0.991  16.341  0.2956  0.2171  0.3267
 4671TIP3    H235429   2.766   1.141  16.352  0.4365  0.3533 -1.5037
 4672TIP3   OH235430   6.449   4.161  15.974 -0.2930  0.5570 -0.2212
 4672TIP3    H135431   6.431   4.131  16.063 -0.3420 -0.8534 -0.6924
 4672TIP3    H235432   6.432   4.085  15.919  1.6280  0.8225 -1.2358
 4673TIP3   OH235433   1.659   1.086  16.215  0.1151  0.0176 -0.1413
 4673TIP3    H135434   1.631   1.009  16.165 -0.8704  0.2876  0.0001
 4673TIP3    H235435   1.661   1.056  16.306  1.5786 -0.3752 -0.2811
 4674TIP3   OH235436   0.187   4.434  16.335  0.0602 -0.2949  0.2774
 4674TIP3    H135437   0.238   4.440  16.254 -2.5247 -0.9791 -1.4759
 4674TIP3    H235438   0.232   4.367  16.387  0.9854 -0.8108 -1.1603
 4675TIP3   OH235439   6.019   4.549  10.504 -0.3880 -0.6547  0.5803
 4675TIP3    H135440   5.924   4.558  10.495 -0.3380  0.8284  1.4356
 4675TIP3    H235441   6.049   4.637  10.527  0.8765 -1.6360  2.8381
 4676TIP3   OH235442   4.463   2.953  16.334 -0.4377 -0.4203 -0.9217
 4676TIP3    H135443   4.428   2.876  16.288 -1.7637  0.0130 -0.6738
 4676TIP3    H235444   4.491   3.011  16.263 -0.5426 -0.6281 -1.1383
 4677TIP3   OH235445   6.256   4.490   1.651 -0.2861  0.0147  0.3987
 4677TIP3    H135446   6.248   4.544   1.573  1.6954 -0.8482 -0.4464
 4677TIP3    H235447   6.308   4.544   1.712 -0.1833 -0.0748  0.3904
 4678TIP3   OH235448   3.303   6.777  11.748 -0.0826  0.3752  0.0049
 4678TIP3    H135449   3.356   6.822  11.814  0.2708 -0.2578  0.1621
 4678TIP3    H235450   3.367   6.735  11.690 -0.3989 -1.8038  1.1674
 4679TIP3   OH235451   5.266   5.075  16.180 -0.2843 -0.3632 -0.4020
 4679TIP3    H135452   5.215   5.085  16.100 -0.3826 -0.6195 -0.3712
 4679TIP3    H235453   5.315   5.157  16.187 -1.7299  0.4737  0.2948
 4680TIP3   OH235454   0.579   2.357   6.010 -0.0676  0.1500 -0.0960
 4680TIP3    H135455   0.514   2.305   5.964 -0.9970  0.2944  1.0219
 4680TIP3    H235456   0.602   2.305   6.087 -1.0505  1.3811  1.0629
 4681TIP3   OH235457   1.422   3.773  16.713 -0.6607 -0.1132  0.1455
 4681TIP3    H135458   1.356   3.753  16.778  0.1129 -1.1561  0.6239
 4681TIP3    H235459   1.376   3.825  16.647 -2.1179 -1.4451  0.0959
 4682TIP3   OH235460   5.030   5.649  13.568  0.4235 -0.5552 -0.0266
 4682TIP3    H135461   5.091   5.655  13.494 -0.3860  1.3984 -0.5380
 4682TIP3    H235462   5.087   5.651  13.645  1.2985 -2.8956 -0.5391
 4683TIP3   OH235463   0.374   0.176  14.006 -0.3739  0.0673  0.4000
 4683TIP3    H135464   0.389   0.206  13.917 -2.1527  1.1053  0.4291
 4683TIP3    H235465   0.288   0.134  14.003 -0.6485  0.5066  1.6979
 4684TIP3   OH235466   2.294   0.084   4.921 -0.1021  0.4073 -0.5826
 4684TIP3    H135467   2.319   0.088   5.014  0.9127 -2.6124 -0.6498
 4684TIP3    H235468   2.223   0.147   4.913 -0.6967  0.2272  2.4224
 4685TIP3   OH235469   2.015   5.965  11.187  0.4456 -0.6768 -0.4679
 4685TIP3    H135470   2.095   5.926  11.153  0.0043 -0.7529 -1.4483
 4685TIP3    H235471   1.950   5.952  11.117 -0.2037  0.1110 -0.0266
 4686TIP3   OH235472   4.929   5.464   0.644  0.0608  0.1391  0.0225
 4686TIP3    H135473   4.986   5.390   0.622 -1.1079 -0.3506 -1.4864
 4686TIP3    H235474   4.948   5.529   0.577 -0.7367  0.1889 -0.1679
 4687TIP3   OH235475   5.125   2.684  16.295  0.0415  0.6691  0.1205
 4687TIP3    H135476   5.141   2.720  16.208  1.2180  0.7052  0.3465
 4687TIP3    H235477   5.079   2.754  16.342 -1.8046  0.1670 -0.8623
 4688TIP3   OH235478   1.977   1.808  14.362  0.3115 -0.4574 -0.2721
 4688TIP3    H135479   1.930   1.806  14.278 -0.8435 -0.7953  0.3744
 4688TIP3    H235480   1.912   1.838  14.425  1.7016  1.6440  0.1983
 4689TIP3   OH235481   2.655   5.855  15.884 -0.0463  0.2152  0.1626
 4689TIP3    H135482   2.581   5.849  15.943  0.5971 -0.3864  0.9139
 4689TIP3    H235483   2.688   5.945  15.896  1.3982 -0.5599  2.3433
 4690TIP3   OH235484   6.549   5.242   1.351 -0.3097  0.1117 -0.3001
 4690TIP3    H135485   6.463   5.267   1.317 -0.3841  1.4444  0.7879
 4690TIP3    H235486   6.532   5.166   1.407 -0.6755 -0.0291 -0.6027
 4691TIP3   OH235487   2.081   3.026   5.386  0.5820  0.5662 -0.1983
 4691TIP3    H135488   2.047   3.063   5.305  0.9119 -0.1373 -0.6627
 4691TIP3    H235489   2.145   3.090   5.417 -1.1924  1.9417  0.7308
 4692TIP3   OH235490   2.956   5.534  15.934 -0.1872  0.3401  0.0016
 4692TIP3    H135491   2.995   5.463  15.985  1.6270  1.0939 -0.2619
 4692TIP3    H235492   3.016   5.545  15.859 -0.0059  2.6158  0.4381
 4693TIP3   OH235493   3.276   5.171   3.335 -0.1449 -0.1667 -0.2327
 4693TIP3    H135494   3.369   5.152   3.347 -0.2604 -0.5545  0.0348
 4693TIP3    H235495   3.246   5.196   3.422  0.1291  1.7761 -0.6610
 4694TIP3   OH235496   2.840   2.427   4.213 -0.4081  0.3871 -0.0194
 4694TIP3    H135497   2.788   2.454   4.289 -0.3452  2.7672 -0.7765
 4694TIP3    H235498   2.807   2.481   4.141  1.6957  0.4815 -0.9589
 4695TIP3   OH235499   3.786   1.067  13.904  0.6631  0.1660  0.2826
 4695TIP3    H135500   3.819   1.152  13.874  0.9162 -0.3645 -0.9984
 4695TIP3    H235501   3.823   1.004  13.842 -1.4351 -0.6226 -0.2234
 4696TIP3   OH235502   0.889   5.386  13.139 -0.2048 -0.3849 -0.8023
 4696TIP3    H135503   0.800   5.409  13.164  0.5163  0.3647  1.2101
 4696TIP3    H235504   0.936   5.379  13.223  2.2112  1.6994 -1.9129
 4697TIP3   OH235505   0.431   6.095  16.048 -0.5180  0.2211 -0.1269
 4697TIP3    H135506   0.344   6.123  16.077 -0.5743 -2.3246  2.3788
 4697TIP3    H235507   0.417   6.005  16.017  1.2744 -0.3175  0.5985
 4698TIP3   OH235508   2.365   0.367  14.565 -0.1065  0.3205 -0.4566
 4698TIP3    H135509   2.436   0.431  14.563 -0.4194  0.6874  0.1586
 4698TIP3    H235510   2.408   0.284  14.588  0.1379  0.5098 -0.2389
 4699TIP3   OH235511   3.143   3.315  14.509  0.5092 -0.1173  0.0610
 4699TIP3    H135512   3.101   3.400  14.497  2.0893  0.4175 -1.9011
 4699TIP3    H235513   3.070   3.254  14.521 -0.7159  1.2028 -0.4739
 4700TIP3   OH235514   5.925   6.333  12.538  0.2603 -0.2827  0.0267
 4700TIP3    H135515   5.966   6.252  12.508  1.2502 -0.3144  1.3977
 4700TIP3    H235516   5.917   6.321  12.633 -1.4627  0.3920 -0.0119
 4701TIP3   OH235517   0.240   0.614   5.147 -0.2383  0.5468  0.1470
 4701TIP3    H135518   0.185   0.643   5.220  0.6800  1.8351  0.3614
 4701TIP3    H235519   0.211   0.667   5.073  0.4698  0.9944  0.1809
 4702TIP3   OH235520   2.181   5.071   3.795 -0.3796  0.4747  0.0105
 4702TIP3    H135521   2.162   5.152   3.841  1.0815  0.6834  0.2899
 4702TIP3    H235522   2.217   5.012   3.862  0.8145  0.4373 -0.6467
 4703TIP3   OH235523   5.938   0.930   3.373  0.1668  0.3379  0.0301
 4703TIP3    H135524   5.932   1.025   3.361 -0.9073  0.2043 -0.5780
 4703TIP3    H235525   5.977   0.897   3.293  0.7986  0.2967  0.3560
 4704TIP3   OH235526   0.364   1.063  12.481 -0.1220  0.2647  0.2805
 4704TIP3    H135527   0.368   1.034  12.390  0.2795 -0.6073  0.5718
 4704TIP3    H235528   0.327   0.988  12.528  0.0937  0.5484  0.9071
 4705TIP3   OH235529   5.881   1.018   1.230  0.0387  0.6013  0.4016
 4705TIP3    H135530   5.938   1.016   1.306  0.4153 -0.8470  0.1058
 4705TIP3    H235531   5.934   0.983   1.158  0.2617  3.5727 -0.9617
 4706TIP3   OH235532   4.680   1.609   1.690  0.0420 -0.2080 -0.7365
 4706TIP3    H135533   4.632   1.598   1.608 -4.0607 -0.5694  1.5937
 4706TIP3    H235534   4.726   1.526   1.702 -0.5382 -0.7046 -1.9151
 4707TIP3   OH235535   0.354   5.074  13.538  0.6815 -0.1163 -0.0605
 4707TIP3    H135536   0.440   5.038  13.514 -0.3306 -2.1946 -0.6590
 4707TIP3    H235537   0.299   5.056  13.462 -1.0211 -1.3786  1.4462
 4708TIP3   OH235538   6.211   2.795  13.028  0.1549  0.5770  0.1440
 4708TIP3    H135539   6.298   2.780  13.066  0.1177  1.0423  0.4110
 4708TIP3    H235540   6.220   2.768  12.937  1.1489  2.5857 -0.3733
 4709TIP3   OH235541   0.894   2.754   1.524 -0.4006  0.5214 -0.7482
 4709TIP3    H135542   0.838   2.810   1.470  0.8213  1.5705 -0.9627
 4709TIP3    H235543   0.840   2.732   1.600 -1.5018  0.5351 -1.5262
 4710TIP3   OH235544   2.290   6.138   6.095  0.4019  0.1015 -0.0597
 4710TIP3    H135545   2.345   6.200   6.143  2.2419 -1.8612  0.4625
 4710TIP3    H235546   2.349   6.101   6.029 -0.5667 -1.3398 -0.1352
 4711TIP3   OH235547   2.231   2.281  14.744  0.2965  0.0347  0.2522
 4711TIP3    H135548   2.254   2.214  14.680  0.0024  0.8088 -0.6809
 4711TIP3    H235549   2.142   2.259  14.771  0.3443 -0.1716  0.2415
 4712TIP3   OH235550   5.983   2.572  15.897 -0.3726 -0.2962 -0.6354
 4712TIP3    H135551   5.983   2.559  15.802 -1.0323  0.9748 -0.8116
 4712TIP3    H235552   6.059   2.628  15.914  0.4125 -1.4486 -0.2735
 4713TIP3   OH235553   0.622   5.783  15.949  0.7735  0.4946  0.3609
 4713TIP3    H135554   0.619   5.692  15.976  1.7123  0.9214  1.9921
 4713TIP3    H235555   0.530   5.806  15.934  0.5625 -0.7912 -0.3549
 4714TIP3   OH235556   3.007   1.725  10.740  0.0335  0.0606  0.9630
 4714TIP3    H135557   3.094   1.761  10.724 -0.2141  0.1645 -0.1957
 4714TIP3    H235558   2.990   1.669  10.664 -0.4555 -0.8439  1.7233
 4715TIP3   OH235559   3.416   6.555   6.631  0.3456 -0.4295  0.1007
 4715TIP3    H135560   3.430   6.469   6.592  0.5270 -0.6363  0.6208
 4715TIP3    H235561   3.499   6.602   6.618  0.3093 -0.3998 -0.0198
 4716TIP3   OH235562   6.703   4.930  11.963 -0.0735  0.0423 -0.6754
 4716TIP3    H135563   6.650   4.929  12.043  0.4911  1.0239 -0.2845
 4716TIP3    H235564   6.794   4.923  11.994  0.2741  2.2627 -1.1088
 4717TIP3   OH235565   5.336   6.029   5.662  0.3737  0.5251  0.3256
 4717TIP3    H135566   5.261   5.971   5.672  0.6542  0.0942 -0.0615
 4717TIP3    H235567   5.303   6.115   5.689 -0.3625  0.4122 -0.2080
 4718TIP3   OH235568   0.271   0.802   0.599 -0.5935 -0.0281  0.2085
 4718TIP3    H135569   0.334   0.731   0.584 -0.8076  0.1187 -1.4109
 4718TIP3    H235570   0.196   0.780   0.544 -1.1053  0.8974  0.5240
 4719TIP3   OH235571   3.396   5.113  13.724  0.0807 -0.4114  0.2467
 4719TIP3    H135572   3.363   5.043  13.667  2.4230 -2.3610  1.2345
 4719TIP3    H235573   3.446   5.169  13.666 -1.5499  0.3231 -0.4917
 4720TIP3   OH235574   0.978   0.349   2.801 -0.0697 -0.0675  0.1790
 4720TIP3    H135575   0.886   0.338   2.779 -0.4110  3.3821 -0.3763
 4720TIP3    H235576   1.019   0.377   2.719  1.1131  0.3041  0.8864
 4721TIP3   OH235577   2.030   0.006  13.707 -0.2426  0.4017 -0.4301
 4721TIP3    H135578   2.011  -0.038  13.625  0.7319  1.3391 -1.1793
 4721TIP3    H235579   2.024  -0.062  13.774 -0.3532 -0.5120 -1.3713
 4722TIP3   OH235580   1.682   2.975  11.522 -0.1185  0.1668 -0.7427
 4722TIP3    H135581   1.727   2.896  11.494  0.4636  0.0740  0.4173
 4722TIP3    H235582   1.737   3.046  11.489  0.5627  0.0563  0.1114
 4723TIP3   OH235583   3.977   5.693   4.175 -0.1240 -0.1490  0.0871
 4723TIP3    H135584   4.068   5.719   4.189 -0.0010 -0.4583 -0.1314
 4723TIP3    H235585   3.939   5.689   4.263  0.5749 -1.8504  0.3273
 4724TIP3   OH235586   1.020   0.385   0.284 -0.2409 -0.2848 -0.2032
 4724TIP3    H135587   0.968   0.321   0.333 -0.0312 -0.2620  0.0468
 4724TIP3    H235588   0.957   0.426   0.225 -0.2839 -1.0326 -0.6764
 4725TIP3   OH235589   2.671   2.869  14.871 -0.2169  0.0880 -0.1777
 4725TIP3    H135590   2.644   2.785  14.835  1.1156 -2.6292  4.6788
 4725TIP3    H235591   2.614   2.882  14.947 -0.2637  3.4910 -0.7307
 4726TIP3   OH235592   1.084   3.333   4.373 -0.3119  0.1350  0.2514
 4726TIP3    H135593   1.138   3.381   4.437  0.5330  2.0787 -1.8719
 4726TIP3    H235594   1.137   3.256   4.351 -0.4097 -0.3160  1.5197
 4727TIP3   OH235595   0.937   4.799  14.324  0.5282  0.2989 -0.4757
 4727TIP3    H135596   0.951   4.775  14.416 -0.7243  1.0864 -0.0655
 4727TIP3    H235597   0.977   4.728  14.275  0.1643 -0.7478  0.6993
 4728TIP3   OH235598   0.048   0.379   3.898  0.5615 -0.4911  0.0898
 4728TIP3    H135599   0.136   0.415   3.893  0.3893  0.3258  2.3203
 4728TIP3    H235600   0.052   0.316   3.970 -0.4311 -1.1492 -0.4229
 4729TIP3   OH235601   6.337   0.301  14.824 -0.9122 -0.0642 -0.0708
 4729TIP3    H135602   6.329   0.255  14.907 -0.1797  1.0269  0.6047
 4729TIP3    H235603   6.345   0.393  14.847  2.7771 -0.0502 -1.1784
 4730TIP3   OH235604   6.524   0.927  14.791  0.6181 -0.2118 -0.1876
 4730TIP3    H135605   6.572   0.844  14.797 -1.8352 -1.7833 -1.6109
 4730TIP3    H235606   6.494   0.943  14.881 -1.3841 -2.4550 -0.3904
 4731TIP3   OH235607   3.515   5.778   6.203  0.7496 -0.1832 -0.6106
 4731TIP3    H135608   3.486   5.825   6.124 -0.9296 -1.5238 -0.8229
 4731TIP3    H235609   3.600   5.742   6.179  1.4470  1.5991 -0.9054
 4732TIP3   OH235610   1.674   0.438  12.737 -0.1514  0.7297  0.2150
 4732TIP3    H135611   1.685   0.526  12.702 -1.2011  1.6162  2.0344
 4732TIP3    H235612   1.580   0.421  12.729  0.3087 -1.1023 -2.0634
 4733TIP3   OH235613   0.095   5.133  16.369 -0.9675  0.0110  0.7432
 4733TIP3    H135614   0.013   5.130  16.418 -1.3064  1.0030  0.2655
 4733TIP3    H235615   0.158   5.088  16.425 -1.8500 -0.8381  1.0761
 4734TIP3   OH235616   3.251   6.093  15.626  0.5131  0.2023 -0.1695
 4734TIP3    H135617   3.274   6.119  15.715 -2.0780 -0.1269  0.6339
 4734TIP3    H235618   3.287   6.163  15.571  1.5526  0.7563  1.1757
 4735TIP3   OH235619   2.414   6.267  16.533 -0.9046 -0.3214  0.2509
 4735TIP3    H135620   2.424   6.343  16.591  0.2603  0.6885 -1.2269
 4735TIP3    H235621   2.394   6.305  16.447  1.3059 -1.5760 -0.8755
 4736TIP3   OH235622   5.846   3.740  10.720  0.3434  0.3298 -0.2957
 4736TIP3    H135623   5.938   3.765  10.732  0.8311 -0.9228 -1.2551
 4736TIP3    H235624   5.827   3.684  10.795  0.3515  0.6217 -0.0743
 4737TIP3   OH235625   5.694   3.583   3.974  0.4253 -0.3357  0.6967
 4737TIP3    H135626   5.672   3.660   3.923  1.7293  0.4342  1.2756
 4737TIP3    H235627   5.622   3.574   4.036 -0.0829 -0.0092  0.1520
 4738TIP3   OH235628   5.779   1.467   2.524  0.1929  0.5698 -0.0759
 4738TIP3    H135629   5.840   1.483   2.451 -1.6437 -0.7217 -1.9274
 4738TIP3    H235630   5.720   1.542   2.522 -0.6302 -0.0826 -0.7436
 4739TIP3   OH235631   1.493   5.546  11.746  0.3817  0.1341 -0.3510
 4739TIP3    H135632   1.587   5.534  11.735  0.2471 -1.1470 -0.0688
 4739TIP3    H235633   1.484   5.590  11.831  0.6364 -0.9352  0.2288
 4740TIP3   OH235634   1.264   0.618  14.572 -0.3483  0.2639  0.1854
 4740TIP3    H135635   1.355   0.647  14.583 -0.8867  1.5399  1.4256
 4740TIP3    H235636   1.241   0.646  14.483  0.2222  0.6375  0.1471
 4741TIP3   OH235637   4.226   5.529  10.683 -0.0618 -0.0744  0.3415
 4741TIP3    H135638   4.233   5.624  10.674  0.8191  0.0399  2.0321
 4741TIP3    H235639   4.136   5.509  10.660 -0.2048  1.1566 -0.1922
 4742TIP3   OH235640   0.296   6.448   0.404 -0.0530  0.2746  0.1610
 4742TIP3    H135641   0.205   6.418   0.392 -0.1986  1.2507 -1.3976
 4742TIP3    H235642   0.346   6.367   0.414 -1.0852 -0.2852  0.9949
 4743TIP3   OH235643   5.458   5.997   3.775 -0.1000 -0.2565  0.3210
 4743TIP3    H135644   5.540   5.961   3.809  0.2148 -0.2447 -0.4178
 4743TIP3    H235645   5.403   6.008   3.853  0.8752  0.4574  0.9308
 4744TIP3   OH235646   2.441   1.276  13.107  0.2776  0.6379 -0.0806
 4744TIP3    H135647   2.428   1.367  13.135 -0.9259  0.9217 -1.5158
 4744TIP3    H235648   2.397   1.223  13.174 -1.1768  1.2281 -0.5566
 4745TIP3   OH235649   3.342   0.151  15.492  0.5168  0.6886 -0.2629
 4745TIP3    H135650   3.408   0.156  15.562  0.8522  0.5810 -0.5709
 4745TIP3    H235651   3.336   0.058  15.471 -0.4305  0.5885  0.4240
 4746TIP3   OH235652   6.644   4.164   5.750  0.7116  0.5586 -0.2160
 4746TIP3    H135653   6.634   4.117   5.667  1.5191 -0.7977  0.4228
 4746TIP3    H235654   6.724   4.127   5.788  0.6605  1.5791  0.8909
 4747TIP3   OH235655   0.319   0.422  13.865  0.0372 -0.1668  0.4864
 4747TIP3    H135656   0.385   0.476  13.909 -0.4750  1.5970 -0.8488
 4747TIP3    H235657   0.246   0.481  13.850 -0.3649 -1.1117 -1.4149
 4748TIP3   OH235658   2.343   2.715  16.488 -0.3285  0.4946  0.0977
 4748TIP3    H135659   2.401   2.674  16.553 -2.3107 -0.4394  1.3240
 4748TIP3    H235660   2.341   2.807  16.512 -0.5012  0.2730  0.9428
 4749TIP3   OH235661   3.811   4.438   2.148 -0.1610 -0.4296 -0.4459
 4749TIP3    H135662   3.904   4.447   2.172 -0.3539  0.3394  0.0150
 4749TIP3    H235663   3.795   4.344   2.150  0.3190 -0.4968  0.5938
 4750TIP3   OH235664   1.631   3.747   5.801  0.7208  0.1038 -0.2223
 4750TIP3    H135665   1.548   3.784   5.770  0.7843  0.2872 -0.1791
 4750TIP3    H235666   1.605   3.672   5.855  0.4721  1.3374  1.4212
 4751TIP3   OH235667   6.141   5.970   4.815 -0.1252 -0.0172  0.3083
 4751TIP3    H135668   6.204   5.910   4.855  1.2021  1.7965  0.9760
 4751TIP3    H235669   6.070   5.976   4.879 -0.5351 -1.2810 -0.0058
 4752TIP3   OH235670   0.825   3.997  16.320 -0.5394  0.0429  0.6666
 4752TIP3    H135671   0.784   3.941  16.254  1.3583 -0.6666  0.0436
 4752TIP3    H235672   0.773   3.984  16.399 -3.3017  1.4612 -0.8514
 4753TIP3   OH235673   6.293   2.909   6.150 -0.4321 -0.2933 -0.2459
 4753TIP3    H135674   6.321   2.934   6.062  0.8669 -0.2869  0.1615
 4753TIP3    H235675   6.321   2.981   6.206 -1.1394 -0.3567  0.1982
 4754TIP3   OH235676   2.612   1.848   4.134  0.1400 -0.2200 -0.0632
 4754TIP3    H135677   2.658   1.870   4.053  0.2831  0.0899  0.1009
 4754TIP3    H235678   2.521   1.874   4.118 -0.3340 -2.3369 -0.9860
 4755TIP3   OH235679   0.098   5.055  14.108 -0.2562 -0.0148  0.1947
 4755TIP3    H135680   0.087   5.051  14.203 -0.3973 -0.9137  0.1446
 4755TIP3    H235681   0.038   4.988  14.074  1.4293 -1.2825 -0.3858
 4756TIP3   OH235682   2.488   5.469   3.738 -0.1950 -0.5856  0.2199
 4756TIP3    H135683   2.510   5.434   3.652 -0.6364 -2.6313  0.9102
 4756TIP3    H235684   2.559   5.438   3.794  0.3496  1.1536  0.4940
 4757TIP3   OH235685   2.550   6.595   5.398 -0.0691  0.1797  0.3031
 4757TIP3    H135686   2.582   6.609   5.487  0.7865  0.9387 -0.1124
 4757TIP3    H235687   2.463   6.556   5.409  0.7875 -1.4500  1.4590
 4758TIP3   OH235688   4.504   0.823  14.056  0.0657  0.2170  0.0178
 4758TIP3    H135689   4.492   0.828  14.151 -0.3355 -2.1409  0.1230
 4758TIP3    H235690   4.530   0.911  14.030 -0.5923  1.0861  2.2106
 4759TIP3   OH235691   1.408   3.964  16.067 -0.0168 -0.6086  0.3564
 4759TIP3    H135692   1.386   4.057  16.068 -1.3672 -0.9065 -0.6756
 4759TIP3    H235693   1.440   3.946  16.156  1.6558  1.1482  0.1234
 4760TIP3   OH235694   5.070   0.162   2.714  0.0484 -0.5686  0.1256
 4760TIP3    H135695   5.072   0.184   2.621  0.3634  1.6926  0.6506
 4760TIP3    H235696   4.982   0.126   2.728 -0.8613  1.2939 -0.5837
 4761TIP3   OH235697   2.015   3.405  14.395  0.4243  0.2797 -0.2179
 4761TIP3    H135698   2.054   3.324  14.429 -0.6764  0.1291  0.6835
 4761TIP3    H235699   1.948   3.375  14.334  1.5208  0.5406 -1.5780
 4762TIP3   OH235700   0.624   1.229   1.273 -0.3494  0.4544 -0.0555
 4762TIP3    H135701   0.717   1.215   1.288 -0.2451 -0.1062 -1.2111
 4762TIP3    H235702   0.618   1.317   1.237 -0.3669  0.8588  0.9166
 4763TIP3   OH235703   4.806   0.184  15.753 -0.1342  0.7598  0.0176
 4763TIP3    H135704   4.803   0.136  15.836  1.1655  2.2865  0.9761
 4763TIP3    H235705   4.717   0.181  15.720 -0.5219 -0.4305  1.1593
 4764TIP3   OH235706   6.355   1.954   4.960  0.2398  0.0768 -0.0086
 4764TIP3    H135707   6.318   1.945   5.048 -0.5570  0.2199 -0.3283
 4764TIP3    H235708   6.280   1.947   4.902  0.5038  1.8475 -0.5982
 4765TIP3   OH235709   1.659   4.270   3.998 -0.0249  0.5499  0.7696
 4765TIP3    H135710   1.594   4.317   3.947  0.4109  0.9970  0.6204
 4765TIP3    H235711   1.680   4.193   3.945  0.0366  0.7400  0.5163
 4766TIP3   OH235712   2.408   4.071   3.248 -0.1205 -0.0402  0.0280
 4766TIP3    H135713   2.446   3.985   3.264 -1.0064 -0.6510 -1.0448
 4766TIP3    H235714   2.480   4.122   3.210 -0.5898 -1.5089 -3.0095
 4767TIP3   OH235715   5.120   4.592   1.223  0.0167 -0.6513 -0.0905
 4767TIP3    H135716   5.173   4.515   1.206  1.1728 -0.0873  0.8731
 4767TIP3    H235717   5.106   4.631   1.136  1.0120 -0.9187 -0.3774
 4768TIP3   OH235718   1.256   3.049  17.089 -0.1124 -0.6790 -0.1889
 4768TIP3    H135719   1.242   3.122  17.029  2.0773 -0.7765 -0.8500
 4768TIP3    H235720   1.217   3.078  17.172  0.0102  0.9012 -0.6769
 4769TIP3   OH235721   2.636   2.037   1.057  0.5191  0.0217 -0.2818
 4769TIP3    H135722   2.660   2.128   1.040  0.9728 -0.0540 -0.0669
 4769TIP3    H235723   2.547   2.029   1.023  0.0120  0.8697  0.8124
 4770TIP3   OH235724   3.656   1.022  16.416  0.4249 -0.0995 -0.0368
 4770TIP3    H135725   3.588   1.068  16.366 -0.6318 -0.1681  1.2963
 4770TIP3    H235726   3.615   1.004  16.501  1.0044 -2.9146 -0.2806
 4771TIP3   OH235727   6.606   4.700   1.854  0.6792 -0.1749 -0.1571
 4771TIP3    H135728   6.552   4.778   1.838  1.4688  0.5132  0.4935
 4771TIP3    H235729   6.555   4.650   1.919  0.6359  0.2935  0.1793
 4772TIP3   OH235730   5.997   5.571  15.601 -0.2150 -0.0803  0.0679
 4772TIP3    H135731   6.090   5.567  15.578 -0.4751 -0.4311 -0.9267
 4772TIP3    H235732   5.992   5.523  15.684  0.3501 -0.8705 -0.3419
 4773TIP3   OH235733   4.918   6.131  15.181 -0.5818  0.1317 -0.2459
 4773TIP3    H135734   5.003   6.163  15.211 -0.7351  0.9253 -0.6373
 4773TIP3    H235735   4.910   6.044  15.220  1.6155 -1.1081 -2.4101
 4774TIP3   OH235736   5.374   5.861   6.143  0.3893  0.8051 -0.1058
 4774TIP3    H135737   5.322   5.933   6.108  1.3021  2.0100  0.9319
 4774TIP3    H235738   5.399   5.810   6.066 -1.1543  0.9865 -0.7475
 4775TIP3   OH235739   4.101   2.195   4.697  0.5547  0.3923 -0.2487
 4775TIP3    H135740   4.123   2.253   4.769  0.7521 -0.2126  0.1822
 4775TIP3    H235741   4.182   2.189   4.646  0.3791  0.9221 -0.6015
 4776TIP3   OH235742   4.288   1.616  13.797 -0.0533 -0.2809  0.9277
 4776TIP3    H135743   4.355   1.617  13.865  0.4667 -2.5979  0.5074
 4776TIP3    H235744   4.218   1.562  13.833 -1.2215  1.1943  0.9079
 4777TIP3   OH235745   2.916   5.827   2.495 -0.1638 -0.0973 -0.2462
 4777TIP3    H135746   2.981   5.796   2.558 -0.1322 -0.5730 -0.5124
 4777TIP3    H235747   2.967   5.846   2.416 -0.0717  1.3451  0.1440
 4778TIP3   OH235748   2.364   2.325   4.677 -0.1929  0.3855 -0.1241
 4778TIP3    H135749   2.380   2.244   4.725 -0.5659  1.6476  2.2010
 4778TIP3    H235750   2.446   2.344   4.632 -0.2988 -1.5854 -1.2008
 4779TIP3   OH235751   1.645   3.872  12.221  0.4676  0.2142  0.4377
 4779TIP3    H135752   1.729   3.917  12.237  1.0633 -0.1600 -1.4214
 4779TIP3    H235753   1.643   3.860  12.126 -1.4966 -0.2080  0.5139
 4780TIP3   OH235754   2.794   5.961   5.356 -0.3699  0.1517  0.4345
 4780TIP3    H135755   2.840   6.034   5.314 -0.8031 -0.2348 -0.7342
 4780TIP3    H235756   2.780   5.991   5.446  0.6202  0.9735  0.3286
 4781TIP3   OH235757   0.911   5.542   4.954 -0.2446  0.2740  0.0259
 4781TIP3    H135758   0.889   5.530   4.862 -0.7391  0.2969  0.1408
 4781TIP3    H235759   1.006   5.528   4.958 -0.4796 -1.4349 -0.2023
 4782TIP3   OH235760   2.208   2.947   0.670 -0.0414  0.0121  0.0946
 4782TIP3    H135761   2.134   2.889   0.685  0.2374 -0.3030  0.2485
 4782TIP3    H235762   2.240   2.924   0.582 -0.4533  0.5121 -0.1907
 4783TIP3   OH235763   3.683   5.757   3.226  0.2621  0.2229 -0.4735
 4783TIP3    H135764   3.668   5.710   3.144  0.1032 -0.9219  0.2015
 4783TIP3    H235765   3.772   5.733   3.251 -0.1330 -0.4369  0.3284
 4784TIP3   OH235766   1.596   6.028  14.243 -0.5886  0.0734  0.6531
 4784TIP3    H135767   1.634   5.947  14.278  0.3855  0.0000 -0.5484
 4784TIP3    H235768   1.602   6.019  14.148 -0.8707  1.3802  0.4952
 4785TIP3   OH235769   1.100   5.351  11.306 -0.0277 -0.4299 -0.0419
 4785TIP3    H135770   1.055   5.270  11.282 -2.5370  0.4401  1.5837
 4785TIP3    H235771   1.083   5.410  11.232 -1.5519 -0.1285  0.5303
 4786TIP3   OH235772   3.820   1.303  13.678 -0.2232  0.6314  0.0610
 4786TIP3    H135773   3.763   1.378  13.694 -2.3257 -0.8652 -0.2391
 4786TIP3    H235774   3.763   1.236  13.641  1.3581 -1.5618  1.4079
 4787TIP3   OH235775   1.935   1.292  15.867 -0.0791 -0.0797 -0.4590
 4787TIP3    H135776   1.921   1.265  15.958 -0.6062  0.1070 -0.4825
 4787TIP3    H235777   1.904   1.218  15.815 -0.8343  0.2630 -0.5073
 4788TIP3   OH235778   0.591   6.372   0.146  0.4671 -0.4674  0.1854
 4788TIP3    H135779   0.547   6.294   0.113  0.3982 -0.1372 -0.5109
 4788TIP3    H235780   0.600   6.428   0.070 -1.6170  1.2219  1.1211
 4789TIP3   OH235781   2.161   2.687   2.003 -0.0800 -0.1969 -0.1313
 4789TIP3    H135782   2.247   2.650   2.022 -0.1530 -0.4486 -0.2859
 4789TIP3    H235783   2.105   2.611   1.988 -0.5607 -0.0648  0.9560
 4790TIP3   OH235784   0.937   4.609   0.386 -0.0690  0.3355  0.1658
 4790TIP3    H135785   0.906   4.700   0.386 -0.4664  0.2434  2.7455
 4790TIP3    H235786   0.863   4.559   0.421  0.1990 -0.9821 -1.0923
 4791TIP3   OH235787   2.577   2.676   1.084 -0.6955  0.6388  0.0748
 4791TIP3    H135788   2.640   2.627   1.030  0.6835  2.5067 -0.0453
 4791TIP3    H235789   2.531   2.732   1.021 -0.5495  1.2818  0.5341
 4792TIP3   OH235790   4.441   1.144  14.964 -0.2122 -0.7060  0.6554
 4792TIP3    H135791   4.530   1.162  14.996  0.6125 -0.5722 -1.6322
 4792TIP3    H235792   4.396   1.228  14.970  1.2906  0.4274 -2.6291
 4793TIP3   OH235793   6.493   6.344  15.227  0.2919 -0.6182  0.2265
 4793TIP3    H135794   6.522   6.433  15.206 -0.6662 -0.6900 -1.4918
 4793TIP3    H235795   6.495   6.340  15.322  0.1478  1.3040  0.3333
 4794TIP3   OH235796   4.413   3.582  16.210 -0.0387  0.0793 -0.7702
 4794TIP3    H135797   4.371   3.535  16.282  1.0955  0.4297  0.1356
 4794TIP3    H235798   4.346   3.587  16.142 -0.9694 -0.6745  0.0788
 4795TIP3   OH235799   4.765   1.702   4.963 -0.1758  0.1006 -0.0533
 4795TIP3    H135800   4.684   1.730   5.007 -0.4950 -0.8963  0.0186
 4795TIP3    H235801   4.830   1.768   4.988 -0.9767  0.9308 -0.1431
 4796TIP3   OH235802   6.642   0.398   0.801 -0.1145 -0.3364 -0.0393
 4796TIP3    H135803   6.601   0.427   0.882  1.2421 -1.7579  1.1686
 4796TIP3    H235804   6.635   0.303   0.803  1.8529 -0.4975 -0.5600
 4797TIP3   OH235805   1.219   4.667  14.569  0.3360  0.1073 -0.0570
 4797TIP3    H135806   1.226   4.725  14.494  2.6206 -0.7097 -0.5133
 4797TIP3    H235807   1.216   4.725  14.645  0.3162  0.8666 -0.6383
 4798TIP3   OH235808   4.479   4.997   1.318  0.4381  0.2898 -0.2458
 4798TIP3    H135809   4.420   5.014   1.245 -0.4028  0.9889  0.5727
 4798TIP3    H235810   4.510   4.907   1.303 -0.1630  0.2239 -1.1507
 4799TIP3   OH235811   3.972   0.928   0.506 -0.3939  0.1320  0.2574
 4799TIP3    H135812   4.027   0.864   0.461  0.4445 -0.7681  2.5083
 4799TIP3    H235813   4.021   1.010   0.501 -0.7318  0.2558 -1.2368
 4800TIP3   OH235814   5.839   5.059   0.312  0.0242 -0.2336 -0.2610
 4800TIP3    H135815   5.923   5.026   0.344 -0.0667 -0.0219  0.2024
 4800TIP3    H235816   5.824   5.139   0.363 -0.8698 -0.7319  0.2564
 4801TIP3   OH235817   2.202   4.021  14.552  0.0568 -0.5590 -0.0415
 4801TIP3    H135818   2.294   4.000  14.537 -0.1427 -0.6257 -1.1686
 4801TIP3    H235819   2.187   4.101  14.503 -0.7542 -1.1280 -0.7352
 4802TIP3   OH235820   0.889   0.008  13.625 -0.3008  0.2495  0.0497
 4802TIP3    H135821   0.808  -0.038  13.647 -1.3049  1.4591 -1.0536
 4802TIP3    H235822   0.908   0.062  13.702 -1.4257  1.1774 -0.3133
 4803TIP3   OH235823   6.632   0.500   2.777  0.1241 -0.2355  0.0513
 4803TIP3    H135824   6.701   0.475   2.715 -0.3476  1.2174 -1.0993
 4803TIP3    H235825   6.664   0.471   2.862  2.2041  0.4765 -0.4464
 4804TIP3   OH235826   3.864   2.169  13.369  0.0430 -0.1493  0.4159
 4804TIP3    H135827   3.923   2.213  13.430  1.3151  0.0344 -0.9209
 4804TIP3    H235828   3.811   2.112  13.424  2.3116 -1.2478  1.5452
 4805TIP3   OH235829   0.717   3.435   2.041  0.0336  0.0291 -0.1377
 4805TIP3    H135830   0.736   3.379   1.966  3.4785  1.9937 -0.8752
 4805TIP3    H235831   0.726   3.378   2.117  1.3337 -0.9220 -0.9808
 4806TIP3   OH235832   1.691   2.377  15.331  0.1490 -0.3503  0.1573
 4806TIP3    H135833   1.678   2.308  15.396  0.2016 -0.6170 -0.1132
 4806TIP3    H235834   1.622   2.441  15.350 -0.1445 -0.6659  0.1582
 4807TIP3   OH235835   3.924   0.312  12.339  0.1444 -0.0789 -0.6735
 4807TIP3    H135836   3.875   0.391  12.316 -0.1125  0.3232  1.1947
 4807TIP3    H235837   3.858   0.244  12.346  0.3770 -0.5069 -2.3825
 4808TIP3   OH235838   4.578   2.259  16.529  0.5914  0.1829  0.7932
 4808TIP3    H135839   4.486   2.235  16.544  0.2869  0.3047 -0.7873
 4808TIP3    H235840   4.592   2.335  16.586 -0.2187  0.0449  1.1916
 4809TIP3   OH235841   4.087   5.533   1.865  0.2751 -0.7175  0.2517
 4809TIP3    H135842   4.091   5.556   1.958  0.4312 -0.0434  0.0741
 4809TIP3    H235843   4.119   5.443   1.862  1.0743 -0.4549  0.7446
 4810TIP3   OH235844   1.860   2.367   5.262  0.4439 -0.2187  0.2204
 4810TIP3    H135845   1.934   2.339   5.315  0.3305 -1.0901 -0.0716
 4810TIP3    H235846   1.864   2.462   5.262  0.1579 -0.1914  2.2002
 4811TIP3   OH235847   1.140   6.680   5.459 -0.0627  0.2977 -0.0668
 4811TIP3    H135848   1.047   6.658   5.452  0.1026 -0.4869  0.2823
 4811TIP3    H235849   1.170   6.639   5.540  0.0812  2.3632  0.9677
 4812TIP3   OH235850   3.490   0.162   5.141  0.1286 -0.2894 -0.0725
 4812TIP3    H135851   3.450   0.218   5.074 -1.5071 -0.2661  0.9048
 4812TIP3    H235852   3.419   0.106   5.171  1.2067 -1.3210  0.6026
 4813TIP3   OH235853   2.845   1.249  13.683  0.7836 -0.1188 -0.6415
 4813TIP3    H135854   2.935   1.279  13.692  0.8767 -0.5699 -0.0387
 4813TIP3    H235855   2.834   1.235  13.589  1.4163 -0.2900 -0.6927
 4814TIP3   OH235856   0.539   1.586  13.246  0.0424  0.3444 -0.0991
 4814TIP3    H135857   0.465   1.646  13.243  0.4572  0.8366 -0.7631
 4814TIP3    H235858   0.583   1.598  13.162  1.1931  0.4675  0.5034
 4815TIP3   OH235859   5.451   3.380  14.066 -0.0987  0.2014 -0.4618
 4815TIP3    H135860   5.485   3.462  14.101 -0.0367  0.0028 -0.0541
 4815TIP3    H235861   5.362   3.374  14.100  0.3272 -0.5151  0.5473
 4816TIP3   OH235862   1.401   1.949  11.902 -0.2602 -0.4013  0.1871
 4816TIP3    H135863   1.416   2.038  11.873 -0.6830 -0.1984  0.5808
 4816TIP3    H235864   1.483   1.923  11.945  0.1253 -0.4673 -0.5911
 4817TIP3   OH235865   1.433   5.666   0.358  0.1210 -0.9779 -0.2644
 4817TIP3    H135866   1.344   5.639   0.380 -0.0632  0.7153  1.1283
 4817TIP3    H235867   1.479   5.584   0.339 -1.4364 -1.9426  0.0520
 4818TIP3   OH235868   2.907   2.001   0.889  0.3567  0.2946 -0.1994
 4818TIP3    H135869   2.887   2.023   0.981 -2.6967  2.0966 -1.2133
 4818TIP3    H235870   2.971   2.067   0.863 -0.5023  1.2368  0.0101
 4819TIP3   OH235871   5.346   2.295   4.066  0.0725  0.1432 -0.5132
 4819TIP3    H135872   5.253   2.312   4.080  0.5348  2.4642 -0.0575
 4819TIP3    H235873   5.368   2.227   4.130 -1.3236 -0.4990 -0.7049
 4820TIP3   OH235874   6.705   5.504   0.627  0.4100 -0.4616 -0.1255
 4820TIP3    H135875   6.748   5.436   0.574  1.0407 -1.0476  1.1046
 4820TIP3    H235876   6.613   5.479   0.627  0.8538 -2.2155  1.5694
 4821TIP3   OH235877   1.021   3.953   5.747  0.3115 -0.4336  0.2052
 4821TIP3    H135878   0.964   3.923   5.817 -0.2857 -1.9322 -0.9032
 4821TIP3    H235879   0.968   3.945   5.668  0.3120  3.0514 -0.2144
 4822TIP3   OH235880   2.768   6.417   5.523  0.5453 -0.1412  0.2856
 4822TIP3    H135881   2.677   6.407   5.494  0.3281  0.2154  0.8342
 4822TIP3    H235882   2.801   6.491   5.473  0.3349  0.1376  0.5573
 4823TIP3   OH235883   5.517   6.476   6.287 -0.2064  0.5416  0.3494
 4823TIP3    H135884   5.436   6.428   6.303 -0.8003  2.0019  1.8021
 4823TIP3    H235885   5.582   6.407   6.269 -2.1367 -0.5520 -2.7635
 4824TIP3   OH235886   4.085   4.477   1.139  0.0724  0.6086  0.1592
 4824TIP3    H135887   4.181   4.483   1.140  0.0144  1.9884  4.2213
 4824TIP3    H235888   4.055   4.567   1.142 -1.3488  0.1247  0.8783
 4825TIP3   OH235889   2.547   5.349   6.149 -0.2872  0.2639 -0.4287
 4825TIP3    H135890   2.622   5.291   6.133 -0.5903  0.2814 -1.9443
 4825TIP3    H235891   2.489   5.298   6.205 -1.1222 -1.4019 -2.7401
 4826TIP3   OH235892   5.054   3.651  14.952 -0.3490 -0.3922  0.4324
 4826TIP3    H135893   5.120   3.581  14.947  0.6192  0.5997 -0.7720
 4826TIP3    H235894   5.008   3.648  14.868  1.7929  2.4407 -0.9090
 4827TIP3   OH235895   0.359   5.835  14.187  0.3944  0.6860 -0.6599
 4827TIP3    H135896   0.407   5.912  14.219  0.4323  0.4780 -0.2071
 4827TIP3    H235897   0.377   5.767  14.252 -2.6359  1.3480  0.9573
 4828TIP3   OH235898   4.729   4.362   0.603  0.1841  0.6041  0.1135
 4828TIP3    H135899   4.824   4.373   0.600  0.1643  0.6993 -0.2284
 4828TIP3    H235900   4.695   4.450   0.623  0.1885  0.4823  0.6691
 4829TIP3   OH235901   0.565   1.194  17.159  0.3138 -0.0055 -0.2559
 4829TIP3    H135902   0.523   1.112  17.133  0.7306 -0.0365 -0.8263
 4829TIP3    H235903   0.646   1.197  17.108  0.6767  0.3901  0.3283
 4830TIP3   OH235904   3.330   3.166   5.177  0.2098 -0.0318 -0.5386
 4830TIP3    H135905   3.341   3.239   5.238  1.4769 -0.3315 -0.4081
 4830TIP3    H235906   3.235   3.158   5.167 -0.0846 -1.1794  2.8054
 4831TIP3   OH235907   2.915   5.903  15.120 -0.6899  0.0933  0.5123
 4831TIP3    H135908   2.952   5.889  15.033 -1.8777 -1.8470  0.2898
 4831TIP3    H235909   2.925   5.997  15.136  0.8911  0.2073 -1.0833
 4832TIP3   OH235910   2.335   3.683   6.835 -0.5986  0.2777 -0.6471
 4832TIP3    H135911   2.259   3.695   6.892  0.3296  0.9225  0.4649
 4832TIP3    H235912   2.341   3.765   6.786 -0.2111  0.4836 -0.2506
 4833TIP3   OH235913   3.322   5.408   0.775  0.3579  0.0557 -0.1091
 4833TIP3    H135914   3.379   5.339   0.743  0.7425  0.6508 -0.7138
 4833TIP3    H235915   3.250   5.411   0.712 -1.2883 -1.8963  1.6083
 4834TIP3   OH235916   3.540   3.224   1.478 -0.3339  0.1478 -0.5536
 4834TIP3    H135917   3.582   3.310   1.468 -2.3391  1.1364 -0.8256
 4834TIP3    H235918   3.610   3.166   1.509  0.7918  2.1530  0.7947
 4835TIP3   OH235919   4.638   4.086  11.869  0.3049  0.0918  0.3907
 4835TIP3    H135920   4.567   4.124  11.818 -0.8733 -0.9306  1.2418
 4835TIP3    H235921   4.700   4.157  11.881 -0.7264  1.0859 -0.0963
 4836TIP3   OH235922   5.446   0.177   3.401 -0.4316 -0.3291  0.5985
 4836TIP3    H135923   5.454   0.084   3.381  0.9938 -1.2034  4.6528
 4836TIP3    H235924   5.537   0.208   3.407 -0.8759  1.6781 -1.8700
 4837TIP3   OH235925   0.215   3.093   3.507  0.5108  0.1786 -0.2917
 4837TIP3    H135926   0.257   3.031   3.447  0.2494 -0.0328 -0.2541
 4837TIP3    H235927   0.124   3.065   3.511  1.1517 -1.7365  2.6606
 4838TIP3   OH235928   6.637   3.965   0.394 -0.6277 -0.1987  0.1697
 4838TIP3    H135929   6.597   3.963   0.307 -1.3002 -0.4473  0.4762
 4838TIP3    H235930   6.589   3.899   0.444  0.2378 -0.5682  0.5254
 4839TIP3   OH235931   2.766   2.829  15.844 -0.0209 -0.3476 -0.2393
 4839TIP3    H135932   2.754   2.782  15.927 -0.7094 -1.7519 -1.1095
 4839TIP3    H235933   2.685   2.879  15.832 -0.2360 -0.7313 -0.4156
 4840TIP3   OH235934   4.030   5.543   0.529 -0.0808 -0.0733 -0.5350
 4840TIP3    H135935   3.956   5.550   0.590  0.2671  1.4247 -0.2537
 4840TIP3    H235936   4.096   5.494   0.578 -1.1636 -2.1795 -1.0947
 4841TIP3   OH235937   6.519   2.489  14.651 -0.0500  0.8567 -0.0521
 4841TIP3    H135938   6.560   2.576  14.642  2.4962 -0.4428 -1.5806
 4841TIP3    H235939   6.591   2.430  14.672 -1.1343 -1.4759 -2.5480
 4842TIP3   OH235940   3.577   2.867  13.923 -0.2625 -0.1761  0.1641
 4842TIP3    H135941   3.624   2.822  13.854 -2.0516 -0.4221 -0.9265
 4842TIP3    H235942   3.646   2.901  13.981  1.2585  0.1042 -1.7629
 4843TIP3   OH235943   4.637   0.308   0.047 -0.4596 -0.3463  0.0557
 4843TIP3    H135944   4.585   0.288   0.125  0.2234 -1.0868  0.3195
 4843TIP3    H235945   4.727   0.289   0.072  0.0118  1.4157 -0.2419
 4844TIP3   OH235946   2.097   3.012   2.096 -0.2614  0.5551  0.5161
 4844TIP3    H135947   2.153   2.950   2.049  0.9337  2.0419 -0.0730
 4844TIP3    H235948   2.070   2.965   2.175 -1.1686 -1.4717 -0.9628
 4845TIP3   OH235949   4.864   2.443   5.246 -0.5839 -0.1338 -0.4088
 4845TIP3    H135950   4.848   2.534   5.271 -1.3965 -0.0534 -1.1700
 4845TIP3    H235951   4.841   2.440   5.153  0.6458 -0.8298 -0.7017
 4846TIP3   OH235952   0.379   3.181   4.639  0.2635  0.2321  0.0713
 4846TIP3    H135953   0.326   3.252   4.676  1.4736 -0.3894  3.1634
 4846TIP3    H235954   0.468   3.216   4.637  0.6184 -0.6428  0.1585
 4847TIP3   OH235955   1.991   0.130   0.063 -0.1133 -0.1289 -0.5918
 4847TIP3    H135956   1.906   0.170   0.076 -0.3375 -0.2993 -1.5249
 4847TIP3    H235957   2.041   0.194   0.012 -0.7890 -1.4118 -2.9131
 4848TIP3   OH235958   1.561   6.397  15.305  0.2796  0.5106 -0.0993
 4848TIP3    H135959   1.516   6.416  15.388 -1.1876 -0.2320 -0.6990
 4848TIP3    H235960   1.647   6.363  15.332 -0.1937  0.2550  1.1257
 4849TIP3   OH235961   4.397   3.717   2.534 -0.0254 -0.7210  1.0703
 4849TIP3    H135962   4.431   3.629   2.550 -1.7818 -1.3245  1.6462
 4849TIP3    H235963   4.371   3.749   2.620 -1.6467 -0.6141  0.5637
 4850TIP3   OH235964   6.062   5.658   4.050 -0.0555 -0.2440  0.0741
 4850TIP3    H135965   6.140   5.713   4.050  0.2950 -0.7397 -0.0753
 4850TIP3    H235966   6.031   5.662   3.959  0.7942 -1.4575 -0.2697
 4851TIP3   OH235967   4.727   2.025  13.238  0.1791 -0.3291  0.0260
 4851TIP3    H135968   4.659   1.958  13.224  0.7640 -0.8288 -0.4598
 4851TIP3    H235969   4.807   1.974  13.251  0.5334  0.2700  0.1648
 4852TIP3   OH235970   1.035   1.177  13.370  0.5724  0.5944  0.2498
 4852TIP3    H135971   1.039   1.108  13.437 -0.0855  0.1023 -0.2151
 4852TIP3    H235972   1.016   1.257  13.420  0.6844  0.3275  0.7243
 4853TIP3   OH235973   4.251   4.746   2.644 -0.2928  0.3609 -0.3802
 4853TIP3    H135974   4.291   4.799   2.712 -0.3235 -0.2738  0.1404
 4853TIP3    H235975   4.201   4.680   2.692  1.0687 -1.1454 -0.9939
 4854TIP3   OH235976   0.307   2.888   5.876 -0.7552  0.6145  0.5630
 4854TIP3    H135977   0.330   2.943   5.952 -0.8865  0.3877  0.7674
 4854TIP3    H235978   0.215   2.909   5.859 -0.4323  1.4326 -0.1801
 4855TIP3   OH235979   6.526   0.300  13.295 -0.1808  0.4870 -0.7968
 4855TIP3    H135980   6.538   0.321  13.388 -1.0221  1.0142 -0.7955
 4855TIP3    H235981   6.550   0.381  13.250 -1.9140  0.9653 -0.8949
 4856TIP3   OH235982   5.709   2.942   4.333 -1.1157 -0.0090  0.0562
 4856TIP3    H135983   5.787   2.909   4.290 -1.2375 -0.7129  0.3446
 4856TIP3    H235984   5.701   3.033   4.306 -0.1981  0.0605  0.0290
 4857TIP3   OH235985   1.260   0.561   2.410 -0.2243  0.1876  0.3818
 4857TIP3    H135986   1.267   0.634   2.349 -1.1101 -2.0131 -2.5023
 4857TIP3    H235987   1.322   0.495   2.376 -0.7392 -1.0796  1.8379
 4858TIP3   OH235988   0.072   4.470  16.596  0.2374 -0.0168 -0.1256
 4858TIP3    H135989   0.068   4.385  16.641  1.1716  0.6311  1.2100
 4858TIP3    H235990   0.092   4.448  16.505 -0.5461 -1.2811 -0.0087
 4859TIP3   OH235991   0.243   5.196   4.380 -0.3639 -0.2152  0.1062
 4859TIP3    H135992   0.281   5.217   4.295 -0.5266  0.9741  0.3095
 4859TIP3    H235993   0.243   5.101   4.384  0.6131 -0.2589 -0.7847
 4860TIP3   OH235994   0.944   3.760   0.459 -0.0436  0.0169 -0.4696
 4860TIP3    H135995   0.901   3.839   0.491 -2.8608 -1.2699 -0.8658
 4860TIP3    H235996   0.948   3.702   0.535 -0.6354 -0.5417 -0.8632
 4861TIP3   OH235997   3.976   0.819  14.936  0.6486  0.5436 -0.0280
 4861TIP3    H135998   3.882   0.803  14.929  0.7975 -0.0755 -0.7186
 4861TIP3    H235999   4.009   0.743  14.984  0.5868  1.5054  1.5695
 4862TIP3   OH236000   3.301   1.438   1.543  0.7636 -0.2669 -0.0050
 4862TIP3    H136001   3.208   1.425   1.563  0.6366  2.2248  1.2067
 4862TIP3    H236002   3.347   1.402   1.619  0.8082 -1.4959 -0.6026
 4863TIP3   OH236003   1.698   4.866   3.019  0.2657 -0.7979 -0.3042
 4863TIP3    H136004   1.785   4.850   3.056 -0.6617 -0.8288  1.8947
 4863TIP3    H236005   1.678   4.956   3.042 -0.4271 -0.8850 -0.5543
 4864TIP3   OH236006   3.631   2.475   5.771  0.0999 -0.3754 -0.2131
 4864TIP3    H136007   3.716   2.432   5.779  1.3284  1.7499 -1.3305
 4864TIP3    H236008   3.572   2.407   5.737  1.6704 -1.4898 -0.7419
 4865TIP3   OH236009   5.828   0.257   4.921 -0.3903  0.3757 -0.3618
 4865TIP3    H136010   5.889   0.330   4.932  0.6683 -0.6938  1.0973
 4865TIP3    H236011   5.742   0.296   4.937  0.3480  0.8786  2.7585
 4866TIP3   OH236012   5.479   5.320  11.979 -0.0339  1.2339 -0.1588
 4866TIP3    H136013   5.477   5.325  11.884  0.1070  1.0849 -0.1718
 4866TIP3    H236014   5.536   5.392  12.006  0.0436  1.1859 -0.1955
 4867TIP3   OH236015   4.620   2.348   5.441  0.0086  0.0701 -0.2273
 4867TIP3    H136016   4.676   2.358   5.364  1.9369  2.3534  1.3789
 4867TIP3    H236017   4.584   2.435   5.456 -1.1504 -0.5805  0.8840
 4868TIP3   OH236018   4.485   4.360  16.324 -0.1333 -0.2939 -0.3436
 4868TIP3    H136019   4.411   4.305  16.351 -0.3905  0.4701  0.5244
 4868TIP3    H236020   4.552   4.297  16.297 -0.9412 -1.0028 -0.7604
 4869TIP3   OH236021   2.217   0.895  15.624 -0.4601 -0.1086  0.3462
 4869TIP3    H136022   2.192   0.837  15.552  1.1358  0.1095 -0.4148
 4869TIP3    H236023   2.286   0.951  15.587 -0.8262  1.1654  1.5444
 4870TIP3   OH236024   3.113   5.963  16.943 -0.0661  0.3959 -0.0353
 4870TIP3    H136025   3.177   5.979  16.874 -0.9446  1.0029 -0.7176
 4870TIP3    H236026   3.068   6.047  16.954  0.2856  0.4052  1.5155
 4871TIP3   OH236027   5.513   5.177   3.040 -0.0676  0.1023  0.3456
 4871TIP3    H136028   5.548   5.260   3.071 -1.0216  0.3940  0.6829
 4871TIP3    H236029   5.570   5.151   2.969  1.5877 -0.0716  1.7067
 4872TIP3   OH236030   1.676   0.405  13.581  0.5302  0.3967 -0.1494
 4872TIP3    H136031   1.683   0.374  13.491  0.3724 -2.2449  0.7166
 4872TIP3    H236032   1.766   0.402  13.614  0.3200 -0.4473  0.3545
 4873TIP3   OH236033   5.886   1.463  15.749 -0.6743 -0.4568 -0.0270
 4873TIP3    H136034   5.926   1.407  15.816 -1.5372  1.7445  2.4428
 4873TIP3    H236035   5.801   1.486  15.786 -0.1801  2.7685 -0.7664
 4874TIP3   OH236036   1.879   2.673   2.858 -0.1323  0.3649 -0.0849
 4874TIP3    H136037   1.881   2.719   2.942 -0.3232  1.3857 -0.6464
 4874TIP3    H236038   1.895   2.740   2.793 -0.5967 -0.3294 -0.9225
 4875TIP3   OH236039   5.386   1.407  14.994  0.4330  0.7252  0.0984
 4875TIP3    H136040   5.394   1.406  14.899 -1.0199  0.4351 -0.0250
 4875TIP3    H236041   5.317   1.471  15.013 -0.8212 -0.7954  0.8173
 4876TIP3   OH236042   1.773   0.387  11.378  0.1617 -0.1305 -0.3492
 4876TIP3    H136043   1.758   0.418  11.468  2.2639 -1.4071  0.4679
 4876TIP3    H236044   1.738   0.298  11.378  1.7421 -0.7669 -0.2733
 4877TIP3   OH236045   3.000   4.371   5.484 -0.0355 -0.1147 -0.5659
 4877TIP3    H136046   3.043   4.394   5.566 -1.3799 -1.3013  0.5113
 4877TIP3    H236047   3.007   4.450   5.430 -0.5662  1.2504  1.3149
 4878TIP3   OH236048   5.024   2.753   0.704 -0.8300  0.5020  0.2555
 4878TIP3    H136049   4.997   2.672   0.746 -0.5992 -0.0114 -0.5815
 4878TIP3    H236050   4.943   2.804   0.696 -0.8464  0.6570  1.4433
 4879TIP3   OH236051   2.318   5.919   0.082  0.2426  0.4091 -0.2178
 4879TIP3    H136052   2.333   5.863   0.006 -1.5711 -0.2141 -0.1519
 4879TIP3    H236053   2.228   5.952   0.071 -0.0962  0.2307  1.6886
 4880TIP3   OH236054   4.761   2.789   3.583 -0.0215  0.4524  0.1995
 4880TIP3    H136055   4.681   2.819   3.540  0.4183  0.5560 -0.5535
 4880TIP3    H236056   4.810   2.744   3.515  2.6903  4.3683 -0.5920
 4881TIP3   OH236057   0.965   6.321   0.933  0.1076 -0.3199 -0.1137
 4881TIP3    H136058   0.986   6.415   0.928  0.5280 -0.2732  1.9930
 4881TIP3    H236059   1.025   6.280   0.871  1.3717  0.6107  0.4721
 4882TIP3   OH236060   0.671   5.627   4.457 -0.3186  0.8541  0.0399
 4882TIP3    H136061   0.686   5.536   4.485  3.4847  1.0453 -1.0639
 4882TIP3    H236062   0.661   5.621   4.362 -0.5197  1.5334  0.0168
 4883TIP3   OH236063   6.267   2.879  16.433  0.7260  0.1913  0.7982
 4883TIP3    H136064   6.264   2.958  16.486  1.7705  0.1181  0.9692
 4883TIP3    H236065   6.187   2.832  16.457 -0.2715  1.5330  0.1357
 4884TIP3   OH236066   1.790   2.884   6.473  0.1127 -0.4373 -0.3431
 4884TIP3    H136067   1.699   2.857   6.477 -1.0258  2.7896 -2.2755
 4884TIP3    H236068   1.805   2.930   6.555  0.4972 -2.3296  0.6625
 4885TIP3   OH236069   0.308   2.678  11.220  0.3969  0.7162  0.1407
 4885TIP3    H136070   0.338   2.658  11.308 -0.6056  0.4526  0.4250
 4885TIP3    H236071   0.273   2.767  11.226 -1.3023  0.0481  0.4318
 4886TIP3   OH236072   6.787   2.243  16.711  0.3919  0.4256  0.4758
 4886TIP3    H136073   6.876   2.209  16.722  0.2764  0.0511  0.2539
 4886TIP3    H236074   6.779   2.312  16.777  0.8275  0.4171  0.5323
 4887TIP3   OH236075   5.757   0.639  11.256  0.8524  0.1035 -0.5547
 4887TIP3    H136076   5.847   0.606  11.260  1.4957  1.9401  1.1489
 4887TIP3    H236077   5.702   0.564  11.277  2.0466 -0.8320 -0.7343
 4888TIP3   OH236078   0.164   5.264   5.134  0.1472 -0.1223  0.0068
 4888TIP3    H136079   0.128   5.193   5.187  0.0739 -1.0653 -1.2674
 4888TIP3    H236080   0.113   5.262   5.053  0.2321  1.3139 -0.0939
 4889TIP3   OH236081   5.657   1.928   0.390 -0.1768 -0.2827 -0.3382
 4889TIP3    H136082   5.566   1.958   0.393 -0.0035  0.5543 -2.5822
 4889TIP3    H236083   5.708   2.002   0.423 -0.3209 -0.9568  1.4672
 4890TIP3   OH236084   0.323   3.460  13.007 -0.5444  0.0904  0.1961
 4890TIP3    H136085   0.294   3.476  12.917 -1.9500 -1.0670  0.4296
 4890TIP3    H236086   0.305   3.543  13.052  0.1530  0.6702 -0.5708
 4891TIP3   OH236087   0.742   1.366  17.000 -0.4890  0.0755 -0.3698
 4891TIP3    H136088   0.834   1.392  16.996 -0.2108 -1.0767 -1.8736
 4891TIP3    H236089   0.743   1.273  16.977 -2.0784  0.1503 -0.7351
 4892TIP3   OH236090   5.144   5.445  10.568 -0.3016 -0.1530  0.1427
 4892TIP3    H136091   5.194   5.519  10.602 -0.2644  0.1533 -0.5877
 4892TIP3    H236092   5.204   5.400  10.509 -0.2472 -0.9044  0.7656
 4893TIP3   OH236093   5.920   1.886  13.592 -0.2432  0.5403 -0.3331
 4893TIP3    H136094   5.885   1.925  13.512 -2.1319 -1.7141 -0.6679
 4893TIP3    H236095   5.940   1.796  13.568 -0.1773  0.0347  1.5371
 4894TIP3   OH236096   0.525   1.616   6.171 -0.4365  0.2754 -0.1988
 4894TIP3    H136097   0.443   1.662   6.192 -0.4502  0.1642 -0.0053
 4894TIP3    H236098   0.497   1.536   6.127 -0.4442  0.0935  0.1377
 4895TIP3   OH236099   2.289   1.735   4.237 -0.2547 -0.0389 -0.8253
 4895TIP3    H136100   2.196   1.744   4.256  0.2200  0.3994  1.4040
 4895TIP3    H236101   2.303   1.790   4.159 -1.0363  3.4503  1.3943
 4896TIP3   OH236102   5.677   2.888   4.605  0.2145  0.0618 -0.3589
 4896TIP3    H136103   5.726   2.959   4.645 -1.3636  2.1996 -2.1205
 4896TIP3    H236104   5.717   2.876   4.519  0.6650 -1.4253  0.0343
 4897TIP3   OH236105   1.934   0.142  14.657  0.0146  0.0152  0.0680
 4897TIP3    H136106   1.985   0.086  14.716 -0.0665 -0.7981 -0.6404
 4897TIP3    H236107   1.853   0.094  14.642  0.2478 -0.0110 -1.1119
 4898TIP3   OH236108   0.177   0.366   3.188 -0.3676  0.8485 -0.0807
 4898TIP3    H136109   0.253   0.388   3.242  0.6622  0.1957 -1.2254
 4898TIP3    H236110   0.177   0.432   3.120  0.8254 -0.7164 -1.6619
 4899TIP3   OH236111   1.772   1.476  13.644 -0.5861  0.0591 -0.3247
 4899TIP3    H136112   1.733   1.454  13.560 -1.1078  0.3783 -0.1708
 4899TIP3    H236113   1.763   1.396  13.697 -1.3757  0.2569 -0.1650
 4900TIP3   OH236114   1.544   4.326   0.272  0.3987 -0.1820 -0.2144
 4900TIP3    H136115   1.601   4.380   0.326 -0.7865  0.3053  0.5851
 4900TIP3    H236116   1.556   4.238   0.306 -1.4839  0.3305  1.9281
 4901TIP3   OH236117   6.249   4.189  13.526 -0.4695 -0.2948  0.4558
 4901TIP3    H136118   6.336   4.199  13.564 -0.9199  0.9071  1.1960
 4901TIP3    H236119   6.250   4.101  13.488  0.8926 -0.4857  0.8834
 4902TIP3   OH236120   1.927   6.207   6.052  0.0027  0.6414  0.7583
 4902TIP3    H136121   1.891   6.271   5.990 -0.0934 -0.8999 -0.8122
 4902TIP3    H236122   1.851   6.155   6.079  0.9043 -2.5486 -2.4730
 4903TIP3   OH236123   3.037   3.053   1.454 -0.4241  0.3438 -0.4819
 4903TIP3    H136124   3.118   3.062   1.404  0.0111  1.5177  0.4238
 4903TIP3    H236125   3.048   2.969   1.500  0.2236  0.4366 -0.4551
 4904TIP3   OH236126   6.714   0.050   1.063  0.1995  0.4304 -0.1466
 4904TIP3    H136127   6.653   0.122   1.050  0.2819  0.3293 -1.1463
 4904TIP3    H236128   6.659  -0.028   1.072  0.0370  0.8265  2.6141
 4905TIP3   OH236129   3.102   5.805  17.181  0.3025  0.2606  0.2008
 4905TIP3    H136130   3.117   5.843  17.094 -1.2485  0.2829 -0.0648
 4905TIP3    H236131   3.009   5.817  17.197  0.4060 -0.5559  1.4908
 4906TIP3   OH236132   5.019   4.030   2.359 -0.4640  0.1683  0.1047
 4906TIP3    H136133   4.947   4.085   2.389  0.0332  0.2226  1.2149
 4906TIP3    H236134   5.069   4.011   2.438  0.3871 -0.3876 -0.5641
 4907TIP3   OH236135   3.232   1.409  15.203  0.4663  0.0660  0.5353
 4907TIP3    H136136   3.274   1.405  15.289  0.9476  1.3785  0.3646
 4907TIP3    H236137   3.274   1.338  15.154  1.4387  0.4130  0.8453
 4908TIP3   OH236138   1.904   2.895   5.884  0.4809  0.1186  0.3270
 4908TIP3    H136139   1.954   2.973   5.862  0.2150  0.3037  0.3737
 4908TIP3    H236140   1.813   2.922   5.875  0.3942 -0.6837 -1.4811
 4909TIP3   OH236141   3.875   2.345  15.562 -0.0993  0.4181 -0.7018
 4909TIP3    H136142   3.884   2.359  15.656  0.5378  3.6986 -1.1706
 4909TIP3    H236143   3.883   2.251  15.550 -1.4890 -0.1778  2.6400
 4910TIP3   OH236144   3.161   3.120  12.202 -0.4530  0.2534 -0.2557
 4910TIP3    H136145   3.131   3.202  12.164  0.0289 -0.3103 -1.8984
 4910TIP3    H236146   3.109   3.053  12.158  1.1349 -0.5193 -1.0000
 4911TIP3   OH236147   4.845   6.455   4.867 -0.4050 -0.6130 -0.0509
 4911TIP3    H136148   4.773   6.397   4.842 -0.5236 -0.8458  0.8164
 4911TIP3    H236149   4.913   6.395   4.898 -0.9962 -0.2456  2.0548
 4912TIP3   OH236150   1.904   1.493  14.187  0.5450 -0.4866 -0.2064
 4912TIP3    H136151   1.884   1.491  14.094  0.1547 -1.5036 -0.1064
 4912TIP3    H236152   1.861   1.573  14.219  0.8693 -0.0228 -0.9373
 4913TIP3   OH236153   3.549   2.570  12.668 -0.1678 -0.1136  0.4294
 4913TIP3    H136154   3.597   2.581  12.585  1.4602  0.4007  1.4138
 4913TIP3    H236155   3.477   2.510  12.646  0.9901 -1.0027 -1.0836
 4914TIP3   OH236156   5.610   0.054  11.355  0.1185 -0.1367 -0.9029
 4914TIP3    H136157   5.689   0.109  11.347  0.5038 -0.3808  0.9633
 4914TIP3    H236158   5.560   0.095  11.425  0.8897 -2.6970  1.2224
 4915TIP3   OH236159   3.944   4.149   4.284  0.0015 -0.3259 -0.5382
 4915TIP3    H136160   3.950   4.221   4.221  0.9385 -1.9318 -2.3476
 4915TIP3    H236161   3.920   4.191   4.367 -0.9260  1.8669 -1.8894
 4916TIP3   OH236162   0.544   1.169   1.989  0.1439  0.5199 -0.1224
 4916TIP3    H136163   0.608   1.221   1.940 -2.1698  0.8378 -2.9530
 4916TIP3    H236164   0.529   1.092   1.934  0.3288 -1.0597  1.9840
 4917TIP3   OH236165   6.734   4.451  14.145 -0.1301 -0.2625 -0.2794
 4917TIP3    H136166   6.715   4.530  14.094 -1.3225  0.3612  1.0876
 4917TIP3    H236167   6.650   4.426  14.183  0.8426 -0.3201  1.8932
 4918TIP3   OH236168   5.887   5.615   0.117  0.2229 -0.3532 -0.0254
 4918TIP3    H136169   5.962   5.627   0.175 -0.1528 -1.0663  0.6234
 4918TIP3    H236170   5.896   5.684   0.051 -0.4256  1.7424  2.0030
 4919TIP3   OH236171   4.016   3.571   1.742 -0.5265 -0.2293 -0.2332
 4919TIP3    H136172   4.021   3.656   1.786 -1.9571 -0.1929 -0.1221
 4919TIP3    H236173   4.067   3.512   1.797 -0.6471  0.2640  0.4025
 4920TIP3   OH236174   1.418   3.495  15.432 -0.7824 -0.2089  0.0092
 4920TIP3    H136175   1.454   3.506  15.520  1.8144 -1.0806 -0.9005
 4920TIP3    H236176   1.341   3.440  15.444  0.1097 -1.1421  1.6360
 4921TIP3   OH236177   0.921   0.475   1.185  0.3591 -0.2380 -0.2294
 4921TIP3    H136178   1.001   0.503   1.229  0.1164  0.1818 -0.0530
 4921TIP3    H236179   0.940   0.483   1.092  0.2921  0.4971 -0.1794
 4922TIP3   OH236180   1.251   2.960   2.423  0.5686  0.1218  0.2368
 4922TIP3    H136181   1.312   3.033   2.412  0.3255  0.2770 -0.0709
 4922TIP3    H236182   1.189   2.969   2.351  0.0719  0.0648  0.6597
 4923TIP3   OH236183   5.896   1.284   1.097  0.3075  0.3496 -0.1690
 4923TIP3    H136184   5.872   1.209   1.152  0.3990  0.2851 -0.2166
 4923TIP3    H236185   5.973   1.322   1.141  1.2978 -0.5855 -1.0503
 4924TIP3   OH236186   0.401   4.248   3.872  0.2783  0.0785 -0.1470
 4924TIP3    H136187   0.436   4.182   3.812  3.5964  0.0994  1.6618
 4924TIP3    H236188   0.364   4.198   3.944 -0.0912  0.1479 -0.2862
 4925TIP3   OH236189   6.406   6.482   2.254  0.4891 -0.0635 -0.4342
 4925TIP3    H136190   6.467   6.436   2.196  0.7319 -0.5447  0.1918
 4925TIP3    H236191   6.347   6.528   2.195  1.8096  0.8709 -1.0305
 4926TIP3   OH236192   1.482   5.261   3.298 -0.1455 -0.7363 -0.0544
 4926TIP3    H136193   1.464   5.353   3.277  3.1523 -0.0088  0.0800
 4926TIP3    H236194   1.412   5.236   3.359 -0.8327  1.8186  0.2542
 4927TIP3   OH236195   0.925   4.916   4.543  0.1765  0.1243 -0.0042
 4927TIP3    H136196   0.932   4.829   4.503  2.4364  0.5539 -0.6438
 4927TIP3    H236197   0.866   4.964   4.484 -1.6387 -1.1414  0.7258
 4928TIP3   OH236198   6.388   1.350   0.641 -0.0369 -0.7872  0.5740
 4928TIP3    H136199   6.461   1.315   0.589  0.2212  0.6911 -0.1020
 4928TIP3    H236200   6.314   1.353   0.580 -0.8634 -2.8862  1.4345
 4929TIP3   OH236201   5.822   2.498   5.561  0.1273  0.0536  0.2644
 4929TIP3    H136202   5.789   2.522   5.474 -1.3871 -3.0300 -0.0978
 4929TIP3    H236203   5.816   2.578   5.613 -0.5541  1.5087 -2.0058
 4930TIP3   OH236204   2.745   1.667  14.447  0.3673 -0.0166  0.1460
 4930TIP3    H136205   2.672   1.692  14.390 -0.5459 -2.8934 -0.0255
 4930TIP3    H236206   2.703   1.631  14.525  1.6187  0.5272  1.0861
 4931TIP3   OH236207   1.828   6.553  14.476 -1.0593  0.0441  0.4754
 4931TIP3    H136208   1.788   6.640  14.485  0.0810  0.6389 -0.1909
 4931TIP3    H236209   1.753   6.494  14.464 -1.6661  1.4016 -2.9166
 4932TIP3   OH236210   2.945   0.731   0.050 -0.1533  0.4446 -0.2186
 4932TIP3    H136211   2.920   0.716   0.142  1.7095  0.3246  0.2851
 4932TIP3    H236212   2.974   0.822   0.048 -2.4543  1.1992 -1.2358
 4933TIP3   OH236213   5.582   1.857   4.434  0.5918 -0.2669  0.0931
 4933TIP3    H136214   5.587   1.772   4.478  2.7967  0.3964  1.1921
 4933TIP3    H236215   5.537   1.913   4.497 -0.2805 -0.4330 -0.3691
 4934TIP3   OH236216   3.882   5.398  13.645 -0.4598 -0.0751 -0.0730
 4934TIP3    H136217   3.808   5.409  13.705 -1.0193 -2.4702 -0.2431
 4934TIP3    H236218   3.957   5.383  13.702  0.0815  3.0259  0.1194
 4935TIP3   OH236219   1.740   0.797   2.871  0.6511  0.3014 -0.0802
 4935TIP3    H136220   1.827   0.836   2.872  0.8172 -0.0772  0.7112
 4935TIP3    H236221   1.757   0.702   2.872  0.2431  0.2190 -0.8693
 4936TIP3   OH236222   0.483   5.146   4.866 -0.0823 -0.4720  0.4788
 4936TIP3    H136223   0.419   5.144   4.937 -0.1330 -0.4053  0.4339
 4936TIP3    H236224   0.547   5.078   4.891 -0.9422 -1.5602 -0.2082
 4937TIP3   OH236225   2.840   5.626  15.085 -0.6286 -0.1990 -0.0759
 4937TIP3    H136226   2.852   5.721  15.087  2.1848 -0.4133 -2.3551
 4937TIP3    H236227   2.878   5.595  15.167 -0.7887  0.6073  0.3015
 4938TIP3   OH236228   3.852   4.335   1.068  0.0168  0.3162 -0.1089
 4938TIP3    H136229   3.930   4.391   1.067 -0.2792  0.7595  1.0010
 4938TIP3    H236230   3.813   4.349   1.155 -2.0359  1.1148 -1.1299
 4939TIP3   OH236231   2.235   4.208   0.279  0.2346 -0.5616 -0.5964
 4939TIP3    H136232   2.243   4.116   0.305  0.6302 -0.4896 -0.4591
 4939TIP3    H236233   2.306   4.252   0.326  0.5634 -0.3255 -1.3141
 4940TIP3   OH236234   2.571   4.339  14.924 -0.0479  0.4764 -0.1169
 4940TIP3    H136235   2.615   4.264  14.884 -1.3463  0.9665 -2.5467
 4940TIP3    H236236   2.636   4.409  14.922  1.5355 -0.7802  3.1129
 4941TIP3   OH236237   5.509   6.289  14.642 -0.3502  0.4614 -0.2089
 4941TIP3    H136238   5.534   6.213  14.696  2.3474  3.1179  2.5231
 4941TIP3    H236239   5.592   6.324  14.611 -1.7530  0.5414 -4.0826
 4942TIP3   OH236240   2.925   5.865  16.146  0.1021  0.0614  0.0560
 4942TIP3    H136241   2.972   5.894  16.068 -0.1430 -1.0485 -0.5172
 4942TIP3    H236242   2.958   5.776  16.163 -0.1163  0.1533  0.9883
 4943TIP3   OH236243   4.969   0.810   5.119  0.4675 -0.0177  0.6081
 4943TIP3    H136244   5.006   0.780   5.202  0.4477 -0.1581  0.5656
 4943TIP3    H236245   5.006   0.898   5.107 -2.4622  1.5892  2.6363
 4944TIP3   OH236246   0.962   5.056   2.126 -0.0492  0.4053  0.3260
 4944TIP3    H136247   0.924   4.993   2.065  2.7025 -0.7071 -0.2906
 4944TIP3    H236248   1.003   5.003   2.194  1.3749  1.5312  0.3758
 4945TIP3   OH236249   5.130   5.503   1.329 -0.6334  0.0919  0.1640
 4945TIP3    H136250   5.197   5.551   1.378 -1.7995  2.0894 -0.1307
 4945TIP3    H236251   5.179   5.439   1.278  0.9948  1.0722  0.4584
 4946TIP3   OH236252   4.222   0.078  16.089 -0.0453 -0.5162  0.4878
 4946TIP3    H136253   4.238   0.172  16.104 -0.1365 -0.5223  0.6239
 4946TIP3    H236254   4.291   0.034  16.139  0.8292 -0.4916 -0.6780
 4947TIP3   OH236255   6.358   4.150  14.005  0.4617 -0.2344 -0.6289
 4947TIP3    H136256   6.290   4.191  13.951 -0.6454 -1.4935 -0.2172
 4947TIP3    H236257   6.405   4.223  14.044 -1.1689  0.6602 -0.2947
 4948TIP3   OH236258   1.653   2.053  14.574  0.1914 -0.1351 -0.1033
 4948TIP3    H136259   1.629   1.965  14.546  0.1461 -0.4131  0.7778
 4948TIP3    H236260   1.741   2.044  14.611  0.2460  0.2131 -0.1455
 4949TIP3   OH236261   5.514   3.635  14.912  0.5877 -0.2548 -0.0664
 4949TIP3    H136262   5.505   3.552  14.958  1.0831 -0.0403  0.4254
 4949TIP3    H236263   5.546   3.696  14.979  3.4221 -0.4466 -1.1639
 4950TIP3   OH236264   0.701   6.187  16.010 -0.0809  0.0257 -0.6651
 4950TIP3    H136265   0.613   6.157  16.033 -1.0751  3.3223  0.1477
 4950TIP3    H236266   0.724   6.249  16.079  2.5625 -0.2177 -1.2845
 4951TIP3   OH236267   5.741   1.660   5.307 -0.0694 -0.4424  0.2038
 4951TIP3    H136268   5.679   1.734   5.303 -0.4111 -0.6073  1.8282
 4951TIP3    H236269   5.774   1.651   5.218 -1.4089  0.4995 -0.4031
 4952TIP3   OH236270   3.060   5.279  16.900 -0.2079 -0.2736 -0.3672
 4952TIP3    H136271   3.052   5.262  16.994 -1.3568 -1.9062 -0.7374
 4952TIP3    H236272   2.972   5.305  16.873 -0.1148 -0.7875 -1.1735
 4953TIP3   OH236273   0.475   4.653  12.817 -0.1686  0.1765 -0.1453
 4953TIP3    H136274   0.395   4.606  12.839 -1.1981  0.9106 -2.1768
 4953TIP3    H236275   0.492   4.709  12.892 -0.3918 -1.4894  1.1731
 4954TIP3   OH236276   0.748   6.316   3.939 -0.2818 -0.0457  0.0279
 4954TIP3    H136277   0.715   6.248   3.880 -0.5495 -0.7035  0.9192
 4954TIP3    H236278   0.724   6.285   4.026  0.3521  0.7825  0.5016
 4955TIP3   OH236279   6.716   5.340  12.410 -0.3757 -0.2911  0.0944
 4955TIP3    H136280   6.803   5.335  12.450 -0.6021  0.4706  0.7025
 4955TIP3    H236281   6.656   5.317  12.481 -0.7372  0.3073 -0.0151
 4956TIP3   OH236282   2.135   0.422   2.459  0.2408 -0.0095 -0.0157
 4956TIP3    H136283   2.092   0.423   2.374  1.1243  2.5937 -0.4761
 4956TIP3    H236284   2.087   0.485   2.511  0.6449 -0.4789  0.9381
 4957TIP3   OH236285   1.218   0.465   4.192 -0.1323 -0.1552  0.4254
 4957TIP3    H136286   1.160   0.525   4.240 -0.8999 -1.2256  0.8591
 4957TIP3    H236287   1.161   0.393   4.166  0.8704 -0.8925  0.2681
 4958TIP3   OH236288   4.829   2.490   4.222 -0.1300  0.4904  0.1592
 4958TIP3    H136289   4.773   2.565   4.201  0.8754  1.1233 -0.2609
 4958TIP3    H236290   4.800   2.463   4.309 -0.2687  1.5669  0.4559
 4959TIP3   OH236291   2.638   6.601  12.249 -0.2556 -0.5436 -0.0319
 4959TIP3    H136292   2.671   6.511  12.259 -1.1443 -0.8297  0.3751
 4959TIP3    H236293   2.717   6.655  12.250  0.3265 -1.3599 -0.7943
 4960TIP3   OH236294   1.183   1.808   0.244 -0.3750 -0.2945 -0.1636
 4960TIP3    H136295   1.106   1.778   0.196 -0.7302  0.4835 -0.0887
 4960TIP3    H236296   1.147   1.848   0.324  0.1196 -0.1450 -0.0147
 4961TIP3   OH236297   5.356   5.420   6.464 -0.6810 -0.2137 -0.1985
 4961TIP3    H136298   5.298   5.483   6.420  0.1381  0.5496 -0.2081
 4961TIP3    H236299   5.411   5.475   6.520 -2.0442 -1.2231  2.1658
 4962TIP3   OH236300   2.739   0.008  16.685  0.1849  0.2816 -0.3857
 4962TIP3    H136301   2.778   0.041  16.766  0.1149  1.6146 -0.8706
 4962TIP3    H236302   2.650  -0.014  16.709  0.2517  0.3941 -0.0269
 4963TIP3   OH236303   3.301   0.185  16.943  0.5237  0.1475  0.8069
 4963TIP3    H136304   3.274   0.276  16.929  1.6748  0.2788 -0.7051
 4963TIP3    H236305   3.223   0.133  16.923  0.0109  0.7620  1.1736
 4964TIP3   OH236306   3.491   6.647   4.852 -0.9098  0.2189 -0.0743
 4964TIP3    H136307   3.503   6.696   4.934  2.3616  0.4507 -0.5989
 4964TIP3    H236308   3.498   6.555   4.878 -1.0194  0.2517  0.0719
 4965TIP3   OH236309   4.312   0.454  15.924  0.2163  0.5397 -0.0261
 4965TIP3    H136310   4.222   0.436  15.950  0.0153  2.0965  0.3954
 4965TIP3    H236311   4.366   0.402  15.984 -0.3460  1.0993  0.9622
 4966TIP3   OH236312   0.362   6.321   3.567 -0.3452  0.6679 -0.1671
 4966TIP3    H136313   0.370   6.363   3.481 -0.6329 -0.7240 -0.8791
 4966TIP3    H236314   0.268   6.316   3.583 -0.2745  1.7761  0.6633
 4967TIP3   OH236315   4.548   0.770   2.729  0.2449 -0.7171 -0.3168
 4967TIP3    H136316   4.558   0.800   2.639  2.4076  0.1558  0.2072
 4967TIP3    H236317   4.470   0.816   2.761  0.5705  0.4087 -1.1355
 4968TIP3   OH236318   0.883   5.057  11.881 -0.3224 -0.2169  0.2642
 4968TIP3    H136319   0.975   5.062  11.857 -0.7846  1.4746 -1.3295
 4968TIP3    H236320   0.883   5.021  11.970  1.9895  1.5376  1.0398
 4969TIP3   OH236321   5.843   2.793   0.190 -0.4691  0.4246 -0.3139
 4969TIP3    H136322   5.906   2.835   0.249 -0.8497  0.4680  0.0680
 4969TIP3    H236323   5.880   2.804   0.103  0.2620  0.0837 -0.0526
 4970TIP3   OH236324   2.828   0.264  11.478  0.7046  0.6220  0.1697
 4970TIP3    H136325   2.780   0.273  11.560  0.0328 -0.9143 -0.0385
 4970TIP3    H236326   2.918   0.288  11.500  0.1495  2.0466  0.9066
 4971TIP3   OH236327   2.504   5.547   0.863  0.1355  0.0218  0.0003
 4971TIP3    H136328   2.499   5.451   0.857 -1.2466  0.0222  0.7810
 4971TIP3    H236329   2.584   5.570   0.816 -1.4238 -1.2296 -3.4379
 4972TIP3   OH236330   0.247   1.218   3.115  0.3421  0.4833  0.1831
 4972TIP3    H136331   0.222   1.135   3.156  0.0024  0.7992  0.6191
 4972TIP3    H236332   0.337   1.204   3.084  1.7057  1.1719  3.6237
 4973TIP3   OH236333   0.886   0.468  12.858  0.0169 -0.3144 -0.1601
 4973TIP3    H136334   0.822   0.511  12.916 -0.5005 -0.3752 -0.6861
 4973TIP3    H236335   0.840   0.391  12.825  0.3603 -0.3522 -0.5511
 4974TIP3   OH236336   5.622   2.806   0.334  0.0510 -0.1985 -0.2244
 4974TIP3    H136337   5.691   2.796   0.269 -1.1742  1.0167 -1.7520
 4974TIP3    H236338   5.571   2.725   0.327 -0.4655  0.1971 -1.2917
 4975TIP3   OH236339   4.134   0.864   0.154 -0.6024 -0.3337  0.1645
 4975TIP3    H136340   4.076   0.938   0.172  0.1305  0.0002  1.2447
 4975TIP3    H236341   4.125   0.807   0.230  0.5030 -0.2526  0.3738
 4976TIP3   OH236342   0.281   6.386   2.908 -0.0405 -0.0505 -0.4747
 4976TIP3    H136343   0.222   6.400   2.834  0.5932  2.4120 -0.5540
 4976TIP3    H236344   0.363   6.355   2.869  0.0695  0.5791 -0.7456
 4977TIP3   OH236345   1.181   3.854   6.229 -0.1872 -0.4036 -0.0551
 4977TIP3    H136346   1.205   3.907   6.304 -1.9438  0.9305 -0.4184
 4977TIP3    H236347   1.109   3.799   6.260 -0.7863  0.0095 -0.6819
 4978TIP3   OH236348   1.920   3.813   3.277  0.0720 -0.2408 -0.4876
 4978TIP3    H136349   1.887   3.900   3.256 -1.5539 -0.9874 -1.0970
 4978TIP3    H236350   1.953   3.778   3.194  1.8030  0.2330 -0.0161
 4979TIP3   OH236351   2.713   2.260   0.701  0.3540  0.1651  0.1001
 4979TIP3    H136352   2.795   2.251   0.653 -0.1244 -0.5749 -0.5965
 4979TIP3    H236353   2.712   2.186   0.762 -1.2344 -1.7120 -2.0952
 4980TIP3   OH236354   4.551   2.658   2.474 -0.1423 -0.3197  0.2862
 4980TIP3    H136355   4.525   2.733   2.528  0.5086  0.0394  0.1034
 4980TIP3    H236356   4.472   2.636   2.424  0.3229  1.7712 -1.4421
 4981TIP3   OH236357   2.949   5.633  16.453 -0.2921  0.2937 -0.6130
 4981TIP3    H136358   3.033   5.589  16.442  0.7826  2.1660 -0.1272
 4981TIP3    H236359   2.898   5.607  16.377  0.8571 -0.5732 -1.1038
 4982TIP3   OH236360   6.231   1.806  12.775 -0.7517 -0.3686  0.4135
 4982TIP3    H136361   6.198   1.887  12.736 -0.0407  0.8165  2.2181
 4982TIP3    H236362   6.234   1.744  12.702 -1.5522  1.1419 -0.9365
 4983TIP3   OH236363   5.579   6.215   4.813 -0.1817 -0.4227  0.2011
 4983TIP3    H136364   5.531   6.155   4.756  0.3153  0.7008 -1.4600
 4983TIP3    H236365   5.517   6.286   4.832  0.0515 -0.1641  0.0098
 4984TIP3   OH236366   6.471   3.839  14.181  0.2375  0.1720  0.0994
 4984TIP3    H136367   6.456   3.870  14.091 -0.3157  1.0074  0.4797
 4984TIP3    H236368   6.504   3.916  14.228 -0.5606  0.0326  0.8954
 4985TIP3   OH236369   2.774   6.492   2.092  0.7525  0.4066 -0.0617
 4985TIP3    H136370   2.815   6.473   2.008 -1.1518 -1.7981 -0.5364
 4985TIP3    H236371   2.732   6.410   2.118 -1.2036  1.8688  1.6057
 4986TIP3   OH236372   6.714   3.739  17.072  0.2537 -0.0587 -0.3711
 4986TIP3    H136373   6.718   3.660  17.018 -1.0734 -0.9158  0.7582
 4986TIP3    H236374   6.673   3.804  17.015 -0.0226 -0.6078 -0.8103
 4987TIP3   OH236375   1.705   5.999  14.632  0.3308 -0.1790 -0.1099
 4987TIP3    H136376   1.693   5.932  14.565 -0.6387 -0.1827  0.0592
 4987TIP3    H236377   1.643   5.976  14.701  0.0070  0.8748 -0.0307
 4988TIP3   OH236378   3.491   4.276   0.445 -0.4094 -0.2041 -0.5771
 4988TIP3    H136379   3.538   4.199   0.477 -0.8571 -1.1831 -2.1726
 4988TIP3    H236380   3.542   4.306   0.369 -0.6433  0.6272 -0.4137
 4989TIP3   OH236381   4.994   3.774  10.699  0.0267 -0.0071 -0.1205
 4989TIP3    H136382   5.043   3.850  10.730 -1.3879  0.2028  1.6907
 4989TIP3    H236383   4.921   3.812  10.650 -0.6152 -0.1900  0.6856
 4990TIP3   OH236384   2.908   5.226   2.012 -0.3778  0.1677  0.5382
 4990TIP3    H136385   2.813   5.224   2.017 -0.4679  2.0547  0.0075
 4990TIP3    H236386   2.929   5.315   1.983  1.5432 -0.2166  0.6522
 4991TIP3   OH236387   6.342   4.647   6.373  0.0583 -0.2949 -0.3972
 4991TIP3    H136388   6.382   4.612   6.293  2.0013 -1.2442  0.9597
 4991TIP3    H236389   6.395   4.724   6.394 -0.3129 -0.1801  0.1247
 4992TIP3   OH236390   2.496   4.630   6.125  0.4448 -0.2422 -0.1805
 4992TIP3    H136391   2.529   4.567   6.189  1.9767 -0.1644 -0.8719
 4992TIP3    H236392   2.524   4.715   6.157  2.9702 -0.3632 -1.9609
 4993TIP3   OH236393   6.598   3.262   3.253  0.1865  0.3078 -0.0403
 4993TIP3    H136394   6.528   3.228   3.308 -0.0110  0.8529  0.0427
 4993TIP3    H236395   6.667   3.289   3.314  0.4304 -0.1320 -0.1167
 4994TIP3   OH236396   5.124   1.747  15.429 -0.0644 -0.0330 -0.2533
 4994TIP3    H136397   5.197   1.781  15.376  0.9188 -0.2591  0.9244
 4994TIP3    H236398   5.079   1.824  15.461  0.2255  0.1199 -0.2148
 4995TIP3   OH236399   5.060   3.088  16.617  0.3456  0.2333  0.3252
 4995TIP3    H136400   5.150   3.101  16.588  0.0679  0.6749 -0.3522
 4995TIP3    H236401   5.066   3.083  16.713  1.0914  0.2316  0.2818
 4996TIP3   OH236402   0.128   3.774  11.142  0.3092  0.6050 -0.2042
 4996TIP3    H136403   0.074   3.698  11.121 -0.0067  0.9204 -0.5393
 4996TIP3    H236404   0.190   3.780  11.070  1.8571 -0.7312  0.9975
 4997TIP3   OH236405   4.077   5.430   6.119 -0.3842  0.4444  0.0334
 4997TIP3    H136406   4.170   5.407   6.114 -0.0384  2.1659 -2.1021
 4997TIP3    H236407   4.040   5.399   6.036 -1.8399 -0.6184  1.0469
 4998TIP3   OH236408   4.734   0.003   4.875  0.0052 -0.2452  0.1970
 4998TIP3    H136409   4.768   0.006   4.965 -2.5834 -0.9527  1.2544
 4998TIP3    H236410   4.786  -0.065   4.832  1.5695  0.4048  1.0138
 4999TIP3   OH236411   0.362   3.396   0.697 -0.7669  0.0685  0.0032
 4999TIP3    H136412   0.449   3.395   0.656 -0.6938  1.1850  0.1044
 4999TIP3    H236413   0.363   3.321   0.757  0.0848 -0.0064 -0.0903
 5000TIP3   OH236414   1.215   3.152  15.715 -0.3662  0.3104  0.5400
 5000TIP3    H136415   1.169   3.118  15.638  0.4737  0.1913  0.0821
 5000TIP3    H236416   1.289   3.093  15.727 -0.3298  0.5018  1.2658
 5001TIP3   OH236417   3.593   0.292   4.914  0.3825  0.0563  0.0994
 5001TIP3    H136418   3.666   0.328   4.862  1.5176 -1.8982  0.2742
 5001TIP3    H236419   3.547   0.369   4.947 -0.2658  1.4048 -3.6143
 5002TIP3   OH236420   4.180   6.075   1.175  0.4006 -0.1339 -0.3018
 5002TIP3    H136421   4.213   5.988   1.152 -0.8175 -0.4319 -0.9774
 5002TIP3    H236422   4.187   6.080   1.270  2.0566 -0.3117 -0.3946
 5003TIP3   OH236423   3.562   1.609  14.600 -0.8607 -0.5684 -0.2445
 5003TIP3    H136424   3.617   1.650  14.534  0.2452 -0.6186  0.6301
 5003TIP3    H236425   3.499   1.557  14.550  0.6289 -1.4553 -1.2276
 5004TIP3   OH236426   3.204   0.765   0.854  0.4985  0.5269 -0.4528
 5004TIP3    H136427   3.146   0.818   0.908  0.3714 -0.0988  0.0310
 5004TIP3    H236428   3.157   0.682   0.842  0.9534  0.2987 -0.6942
 5005TIP3   OH236429   1.903   6.333  11.723 -0.1297  0.0982 -0.2474
 5005TIP3    H136430   1.956   6.347  11.801  2.4690 -0.9985 -1.7696
 5005TIP3    H236431   1.962   6.292  11.661 -2.9932 -1.9185 -1.7336
 5006TIP3   OH236432   6.447   0.217  16.017  0.3512  0.1542 -0.7413
 5006TIP3    H136433   6.379   0.175  15.963 -1.4951 -0.6322  2.0879
 5006TIP3    H236434   6.501   0.144  16.047 -0.4717  0.2172  0.9345
 5007TIP3   OH236435   6.371   3.760   4.032  0.1024  0.4704  0.3541
 5007TIP3    H136436   6.457   3.785   4.065 -0.4654  2.0385  0.6960
 5007TIP3    H236437   6.329   3.843   4.010 -0.5418 -0.3724 -1.7943
 5008TIP3   OH236438   6.249   5.096   3.158  0.3318 -0.1204  0.6559
 5008TIP3    H136439   6.286   5.019   3.115  2.4210 -0.1919  2.4700
 5008TIP3    H236440   6.311   5.117   3.228 -1.2633  1.9663  1.5268
 5009TIP3   OH236441   3.048   3.959  12.857 -0.7326  0.1646 -0.5386
 5009TIP3    H136442   3.059   4.050  12.831 -1.6824  0.0351 -1.4352
 5009TIP3    H236443   3.097   3.909  12.791 -0.6055  0.0016 -0.3214
 5010TIP3   OH236444   5.521   5.709   0.004 -0.4647  0.2348 -0.2203
 5010TIP3    H136445   5.550   5.773  -0.061  0.5052 -0.9785 -1.0020
 5010TIP3    H236446   5.425   5.717   0.004 -0.4124  0.9488 -1.0616
 5011TIP3   OH236447   6.104   6.604  17.215 -0.0111  0.4469 -0.3356
 5011TIP3    H136448   6.070   6.515  17.223  1.0484  0.2144  2.0990
 5011TIP3    H236449   6.090   6.627  17.123 -2.6190 -1.2787 -0.4343
 5012TIP3   OH236450   3.460   2.312  16.280 -0.1213 -0.9556  0.4617
 5012TIP3    H136451   3.454   2.312  16.184 -0.2792 -0.0315  0.4718
 5012TIP3    H236452   3.410   2.236  16.307 -2.4044  0.3197 -0.0452
 5013TIP3   OH236453   1.661   3.582  14.158 -0.7269  0.0944  0.0860
 5013TIP3    H136454   1.739   3.635  14.142 -0.4563 -0.1234  0.6740
 5013TIP3    H236455   1.610   3.591  14.078  1.1863 -1.9948 -1.4556
 5014TIP3   OH236456   2.258   4.326  16.485 -0.4691 -0.2950  0.3166
 5014TIP3    H136457   2.183   4.370  16.526 -1.7011 -2.1533  0.1179
 5014TIP3    H236458   2.238   4.328  16.391  0.2166  0.0609  0.1741
 5015TIP3   OH236459   2.770   5.040  11.934 -0.3742  0.1476  0.5557
 5015TIP3    H136460   2.846   5.041  11.992  0.2826 -1.8882 -0.2420
 5015TIP3    H236461   2.807   5.042  11.846 -1.2708 -0.2543  0.1687
 5016TIP3   OH236462   2.942   6.460  14.781 -0.2920 -0.4519 -0.5025
 5016TIP3    H136463   2.903   6.545  14.763 -1.0807 -0.5238  0.8168
 5016TIP3    H236464   2.905   6.434  14.865  1.0791 -1.4356 -0.1945
 5017TIP3   OH236465   3.369   5.706   5.749 -0.1873 -0.2168 -0.6655
 5017TIP3    H136466   3.432   5.636   5.733 -1.7382 -1.2497 -2.3985
 5017TIP3    H236467   3.384   5.769   5.678 -1.7313 -0.9374 -1.6511
 5018TIP3   OH236468   1.040   3.867   3.320 -0.0310 -0.5450  0.7724
 5018TIP3    H136469   1.127   3.830   3.308  0.1989 -0.4484  2.0276
 5018TIP3    H236470   0.984   3.818   3.260  0.9502 -0.3476 -0.3234
 5019TIP3   OH236471   3.315   2.630  11.523  0.0791  0.1205  0.3744
 5019TIP3    H136472   3.341   2.539  11.512 -3.1245 -0.6951 -0.9519
 5019TIP3    H236473   3.353   2.675  11.447  0.3114 -0.4082  0.1700
 5020TIP3   OH236474   6.060   0.498   1.188 -0.3289 -0.1605  0.4437
 5020TIP3    H136475   6.109   0.422   1.157  1.3851  0.9292  0.4281
 5020TIP3    H236476   6.021   0.469   1.271 -1.3933 -1.6963 -0.5692
 5021TIP3   OH236477   3.542   0.613  12.308  0.7315  0.4252  0.0615
 5021TIP3    H136478   3.636   0.593  12.309  1.0364  1.7056 -1.6296
 5021TIP3    H236479   3.536   0.702  12.342  0.1185  0.2911  0.3052
 5022TIP3   OH236480   4.797   4.009   1.649 -0.0514 -0.4217  0.0290
 5022TIP3    H136481   4.776   3.917   1.636 -3.5054  0.1284  1.0578
 5022TIP3    H236482   4.759   4.054   1.573 -0.3436  0.3602  0.6223
 5023TIP3   OH236483   0.871   5.086  17.142  0.2489  0.2244 -0.2850
 5023TIP3    H136484   0.802   5.056  17.202 -0.0803  2.7371  0.6235
 5023TIP3    H236485   0.953   5.067  17.189  0.0789  0.0385 -0.0621
 5024TIP3   OH236486   3.092   6.413  12.218  0.3490  0.7995  0.3586
 5024TIP3    H136487   3.086   6.483  12.153  1.4328  0.3074 -0.2888
 5024TIP3    H236488   3.150   6.448  12.286 -0.5980  1.2256  0.9595
 5025TIP3   OH236489   5.616   1.252  11.063  1.0888  0.1928 -0.6099
 5025TIP3    H136490   5.561   1.318  11.020  1.6865 -0.7196 -2.8268
 5025TIP3    H236491   5.694   1.300  11.089 -0.5055  1.4215  2.2403
 5026TIP3   OH236492   1.013   6.347   0.463  0.0046  0.0522  0.2094
 5026TIP3    H136493   1.032   6.441   0.466  0.3702  0.0505 -1.7241
 5026TIP3    H236494   1.031   6.317   0.552 -2.6091  2.2759  1.5625
 5027TIP3   OH236495   2.785   2.875  12.813  0.6673 -0.2924  0.1419
 5027TIP3    H136496   2.802   2.834  12.898  1.1267  0.9747  0.6764
 5027TIP3    H236497   2.872   2.899  12.781  0.3203  1.3006  0.3707
 5028TIP3   OH236498   4.592   1.662   2.437 -0.2347 -0.1305  0.7880
 5028TIP3    H136499   4.627   1.719   2.369  1.5474 -2.3823 -0.2358
 5028TIP3    H236500   4.499   1.655   2.416  0.2029 -0.4210 -1.1442
 5029TIP3   OH236501   1.833   6.496   6.164  0.6088 -0.4750 -0.3761
 5029TIP3    H136502   1.880   6.444   6.098 -2.8463 -2.4907 -1.3895
 5029TIP3    H236503   1.815   6.434   6.234 -0.4946  0.2788  0.0029
 5030TIP3   OH236504   4.811   1.178   0.615 -0.5806 -0.3048  0.1627
 5030TIP3    H136505   4.806   1.210   0.705 -1.6178 -0.2607  0.1001
 5030TIP3    H236506   4.752   1.236   0.566  1.0465  0.5739 -0.8163
 5031TIP3   OH236507   2.497   4.002   2.685 -0.8103 -0.9403  0.3529
 5031TIP3    H136508   2.445   4.000   2.604 -3.1198 -1.0437  1.8056
 5031TIP3    H236509   2.545   3.919   2.685 -1.2741 -1.2148 -0.5855
 5032TIP3   OH236510   3.511   0.537  15.220 -0.3981  0.1964 -0.3239
 5032TIP3    H136511   3.460   0.476  15.167  0.9396  0.9504 -2.5402
 5032TIP3    H236512   3.567   0.481  15.274 -1.7799 -0.5743  0.3378
 5033TIP3   OH236513   0.114   4.094   2.817  1.0017  0.0905  0.0190
 5033TIP3    H136514   0.069   4.165   2.864  1.2755  0.1378  0.2126
 5033TIP3    H236515   0.108   4.019   2.877  0.3173 -0.1781 -0.3762
 5034TIP3   OH236516   1.387   6.194   6.013 -0.2906 -0.4792 -0.1318
 5034TIP3    H136517   1.376   6.151   5.928  3.5683  0.0354 -0.9791
 5034TIP3    H236518   1.413   6.123   6.072  0.9761 -0.2174 -0.3490
 5035TIP3   OH236519   3.386   5.062   5.642 -0.1011  0.0850 -0.1120
 5035TIP3    H136520   3.452   5.091   5.580  1.5004 -1.8019  0.6671
 5035TIP3    H236521   3.415   5.098   5.726 -0.9452  0.5729 -0.0152
 5036TIP3   OH236522   6.088   2.523  14.901 -0.2339  0.3795 -0.1781
 5036TIP3    H136523   6.182   2.511  14.914 -0.6066 -1.3919  0.9482
 5036TIP3    H236524   6.070   2.610  14.937  0.7320  0.1549  0.8565
 5037TIP3   OH236525   1.874   4.205  16.505  0.2360  0.1796  0.2206
 5037TIP3    H136526   1.944   4.203  16.570  0.5623 -2.0992 -0.1403
 5037TIP3    H236527   1.916   4.176  16.424 -0.3935  2.0334 -0.7998
 5038TIP3   OH236528   5.205   4.256   5.679  1.3671  0.5275 -0.5839
 5038TIP3    H136529   5.261   4.190   5.719  1.5522  0.7892 -0.4007
 5038TIP3    H236530   5.170   4.306   5.754 -1.0172 -1.1332 -0.5618
 5039TIP3   OH236531   4.709   2.067  15.284 -0.5875 -0.3850 -0.1592
 5039TIP3    H136532   4.785   2.104  15.330  0.0555 -1.8700 -0.0081
 5039TIP3    H236533   4.634   2.114  15.320  0.0638 -0.4029  1.2397
 5040TIP3   OH236534   5.678   4.058   3.490  0.1434  0.0610 -0.3900
 5040TIP3    H136535   5.600   4.070   3.545 -0.3994  1.7157 -1.4870
 5040TIP3    H236536   5.653   3.992   3.426 -0.2655  0.4024 -0.5813
 5041TIP3   OH236537   5.678   1.343  12.539 -0.1400 -0.1047 -0.5064
 5041TIP3    H136538   5.694   1.356  12.632  1.5624  0.5417 -0.8578
 5041TIP3    H236539   5.611   1.408  12.517  1.6185  1.8270 -0.3305
 5042TIP3   OH236540   0.418   2.173   2.360 -0.3571 -0.6470 -0.2297
 5042TIP3    H136541   0.432   2.100   2.299  0.2307 -0.4605 -0.3174
 5042TIP3    H236542   0.472   2.151   2.436 -1.8243 -1.3537  0.6290
 5043TIP3   OH236543   1.692   5.368  13.662 -0.7128  0.1915 -0.2531
 5043TIP3    H136544   1.762   5.425  13.692 -0.8105  0.2595 -0.1509
 5043TIP3    H236545   1.617   5.392  13.716 -0.1855 -1.5356  1.2990
 5044TIP3   OH236546   1.938   0.033   4.827  0.2509 -0.0317  0.0978
 5044TIP3    H136547   1.931  -0.058   4.798 -0.3022 -0.1073  0.4539
 5044TIP3    H236548   1.878   0.081   4.770  0.5832  0.1146 -0.1244
 5045TIP3   OH236549   0.891   1.343   0.424 -0.0813 -0.1281 -0.2579
 5045TIP3    H136550   0.934   1.395   0.356  1.8054 -1.5508 -0.1953
 5045TIP3    H236551   0.852   1.269   0.377 -0.4968 -0.0483 -0.0374
 5046TIP3   OH236552   3.760   6.177   4.467 -0.0499  0.0067  0.6705
 5046TIP3    H136553   3.702   6.238   4.513  1.5505  3.5960 -1.8627
 5046TIP3    H236554   3.736   6.186   4.375  0.7956 -2.6328  0.1544
 5047TIP3   OH236555   4.852   1.863  13.740 -0.0304 -0.4721 -0.3170
 5047TIP3    H136556   4.794   1.867  13.664  0.7462  0.4534 -0.8715
 5047TIP3    H236557   4.915   1.794  13.719 -1.6682 -2.3911  0.8419
 5048TIP3   OH236558   4.719   1.575   0.742  0.9455 -0.1797 -0.0171
 5048TIP3    H136559   4.771   1.610   0.670  1.0878 -0.1390  0.1047
 5048TIP3    H236560   4.677   1.498   0.706 -0.9124  1.1904 -0.8692
 5049TIP3   OH236561   4.802   5.800   2.340 -0.2474  0.5039  0.2198
 5049TIP3    H136562   4.773   5.793   2.249 -2.2983  2.0362  0.7106
 5049TIP3    H236563   4.793   5.893   2.361  0.8669  0.2843  1.7846
 5050TIP3   OH236564   6.614   2.813   3.473  0.2685  0.0310  0.2205
 5050TIP3    H136565   6.533   2.854   3.505 -0.8036 -1.2883 -0.7840
 5050TIP3    H236566   6.609   2.722   3.502  1.3925 -0.0674  0.1404
 5051TIP3   OH236567   2.289   6.521   0.112  0.0022 -0.3368  0.8184
 5051TIP3    H136568   2.334   6.439   0.092  0.9685  0.2598  0.4933
 5051TIP3    H236569   2.356   6.575   0.154 -0.3602  0.6242  0.1756
 5052TIP3   OH236570   1.283   4.257  13.241 -0.0793 -0.0331 -0.4508
 5052TIP3    H136571   1.373   4.259  13.274  0.1860 -0.3504 -1.1415
 5052TIP3    H236572   1.290   4.212  13.156 -0.9828 -0.6776 -0.1908
 5053TIP3   OH236573   3.704   5.333   1.679 -0.2450  0.2591 -0.0398
 5053TIP3    H136574   3.700   5.390   1.756  1.3550  2.1140 -1.3081
 5053TIP3    H236575   3.771   5.372   1.623 -0.9509 -1.4124 -2.1141
 5054TIP3   OH236576   2.704   6.527  10.778 -0.6508  0.1583  0.4856
 5054TIP3    H136577   2.794   6.509  10.808 -0.4032  1.4618  0.5479
 5054TIP3    H236578   2.678   6.447  10.732  0.8177  0.0357 -0.1601
 5055TIP3   OH236579   0.401   5.819   2.776 -1.0471 -0.1603  0.1612
 5055TIP3    H136580   0.337   5.747   2.781 -1.3922  0.0479 -1.1074
 5055TIP3    H236581   0.387   5.857   2.690 -0.1680  0.7979  0.4371
 5056TIP3   OH236582   3.687   6.657  12.767  0.0889 -0.0685 -0.2438
 5056TIP3    H136583   3.716   6.745  12.793  2.3241 -0.5516 -0.9847
 5056TIP3    H236584   3.726   6.599  12.833 -0.9879 -0.5524 -0.0314
 5057TIP3   OH236585   4.543   1.601   5.596 -0.3779 -0.9012  0.1028
 5057TIP3    H136586   4.534   1.541   5.522 -1.6704 -0.8478  0.2053
 5057TIP3    H236587   4.544   1.545   5.673 -0.2149 -0.8721  0.1233
 5058TIP3   OH236588   5.192   0.571   2.766 -0.2510  0.1637 -0.2312
 5058TIP3    H136589   5.159   0.649   2.811  1.3141 -0.2980  1.8200
 5058TIP3    H236590   5.282   0.593   2.743 -0.2709 -0.5076 -0.9736
 5059TIP3   OH236591   5.172   1.653  17.205  0.1841  0.9800 -0.4301
 5059TIP3    H136592   5.084   1.616  17.218  0.7522  0.9116  4.5388
 5059TIP3    H236593   5.157   1.746  17.190 -0.7743  1.1834  1.5892
 5060TIP3   OH236594   5.843   3.875  11.900  0.4349 -0.4449 -0.4387
 5060TIP3    H136595   5.797   3.838  11.824 -1.8167 -0.5644  0.9150
 5060TIP3    H236596   5.866   3.963  11.873  0.2549 -0.7140 -1.5084
 5061TIP3   OH236597   4.575   2.334   2.043  1.0893  0.1077 -0.5842
 5061TIP3    H136598   4.530   2.296   1.967  1.4583 -1.0068 -0.2464
 5061TIP3    H236599   4.515   2.321   2.116  1.8545 -1.1754 -0.1787
 5062TIP3   OH236600   3.390   1.311  13.996  0.0265 -0.2761  0.8710
 5062TIP3    H136601   3.417   1.291  13.907  0.4890  1.4139  0.6184
 5062TIP3    H236602   3.472   1.329  14.042 -0.4391  2.0001  0.8330
 5063TIP3   OH236603   6.672   6.536  13.621 -0.1557  0.0332 -0.3646
 5063TIP3    H136604   6.727   6.469  13.660 -0.2290  0.6726  0.8664
 5063TIP3    H236605   6.693   6.534  13.527  0.2376 -1.3126 -0.2461
 5064TIP3   OH236606   3.355   1.138  10.376  0.6008  0.3619  0.1925
 5064TIP3    H136607   3.403   1.074  10.324  2.7626  0.7812  1.5815
 5064TIP3    H236608   3.362   1.106  10.466 -0.6667  1.0966  0.5644
 5065TIP3   OH236609   5.710   0.964  13.665  0.0958 -0.1078 -0.2126
 5065TIP3    H136610   5.649   0.898  13.632 -0.3835  0.5757 -0.7017
 5065TIP3    H236611   5.782   0.964  13.602  0.2431 -0.3833 -0.0443
 5066TIP3   OH236612   4.789   4.917  15.731 -0.0385  0.2540  0.1093
 5066TIP3    H136613   4.705   4.961  15.719 -0.1485 -0.2235 -0.9859
 5066TIP3    H236614   4.854   4.987  15.724 -0.2574  0.3777 -0.8228
 5067TIP3   OH236615   2.294   5.342   2.964 -0.3063  0.1789  0.0561
 5067TIP3    H136616   2.339   5.386   3.036 -1.0448 -0.4229  0.8942
 5067TIP3    H236617   2.203   5.336   2.993 -0.2451 -1.7487 -0.1148
 5068TIP3   OH236618   0.241   4.673   4.951  0.0174  0.1086  0.1651
 5068TIP3    H136619   0.323   4.628   4.972  0.4396  0.9878  0.4298
 5068TIP3    H236620   0.186   4.658   5.027  0.6300  1.1279  0.8285
 5069TIP3   OH236621   2.799   0.095  15.466 -0.5435  0.1856  0.2521
 5069TIP3    H136622   2.705   0.096  15.482 -0.3054  1.5597  1.6255
 5069TIP3    H236623   2.815   0.170  15.409 -0.5595 -1.2845 -1.7386
 5070TIP3   OH236624   1.504   4.931  12.627  0.9191 -0.3029  0.0652
 5070TIP3    H136625   1.599   4.918  12.631  0.9460 -0.4157 -0.7194
 5070TIP3    H236626   1.491   5.022  12.655  1.6172  0.8970 -3.2077
 5071TIP3   OH236627   2.827   6.071  16.309  0.1784  0.3469  0.3140
 5071TIP3    H136628   2.737   6.050  16.333  0.3455 -1.3666 -0.4927
 5071TIP3    H236629   2.847   6.012  16.237  2.3428 -0.0790  1.2274
 5072TIP3   OH236630   1.036   5.578   6.223 -0.3961  0.7753  0.5388
 5072TIP3    H136631   1.096   5.505   6.240  0.4676  1.3942  0.2071
 5072TIP3    H236632   0.949   5.541   6.234  0.0558 -0.0121  1.5541
 5073TIP3   OH236633   4.031   3.214   5.172  0.0279  0.4455 -0.8038
 5073TIP3    H136634   4.021   3.236   5.265 -3.1955 -1.6561 -0.5952
 5073TIP3    H236635   4.105   3.153   5.170  0.8161  1.3430  0.1995
 5074TIP3   OH236636   0.880   4.430  15.072 -0.9114  0.7691 -0.2731
 5074TIP3    H136637   0.869   4.449  14.979  0.4962  0.2004 -0.5669
 5074TIP3    H236638   0.975   4.436  15.087 -1.0644  0.2236  0.9827
 5075TIP3   OH236639   5.776   5.218   2.110  0.1107 -0.2318 -0.2881
 5075TIP3    H136640   5.829   5.271   2.050  1.6601 -0.6323  0.6857
 5075TIP3    H236641   5.687   5.225   2.076  0.2306  3.1027 -0.1436
 5076TIP3   OH236642   2.129   4.727   6.271 -0.2924  0.1499 -0.1710
 5076TIP3    H136643   2.060   4.665   6.247  1.2075 -1.6874  0.2056
 5076TIP3    H236644   2.116   4.741   6.365 -0.1933 -0.1665 -0.1081
 5077TIP3   OH236645   3.368   6.191  12.304  0.3315 -0.2248  0.3828
 5077TIP3    H136646   3.452   6.228  12.331  0.8660 -1.1768  0.0332
 5077TIP3    H236647   3.387   6.100  12.283 -0.8129 -0.4771  0.4048
 5078TIP3   OH236648   0.772   5.655   3.700  0.1526  0.1194 -0.0761
 5078TIP3    H136649   0.695   5.682   3.651  0.8672  0.2144 -1.1653
 5078TIP3    H236650   0.820   5.598   3.639  2.3089  2.2242 -0.3963
 5079TIP3   OH236651   0.460   3.614  16.548  0.2996  0.0153 -0.0287
 5079TIP3    H136652   0.431   3.672  16.478  1.0658  1.6978  1.0352
 5079TIP3    H236653   0.531   3.563  16.508  1.9375  2.2094  0.0297
 5080TIP3   OH236654   6.037   0.097  15.691 -0.3074 -0.0793 -0.1533
 5080TIP3    H136655   6.087   0.065  15.766  1.7230  1.0388 -1.0112
 5080TIP3    H236656   6.029   0.021  15.634 -0.2674 -0.4611  0.3413
 5081TIP3   OH236657   0.631   2.816   1.683 -0.5369 -0.1117 -0.4595
 5081TIP3    H136658   0.670   2.729   1.689  2.5112  1.3434  2.3838
 5081TIP3    H236659   0.537   2.800   1.675  0.0579 -3.6449 -1.2968
 5082TIP3   OH236660   3.498   6.479   2.667  0.7373 -0.4685 -0.0163
 5082TIP3    H136661   3.412   6.457   2.702  0.4658  0.7860  0.1226
 5082TIP3    H236662   3.519   6.563   2.706  0.9516  0.3986 -1.9516
 5083TIP3   OH236663   4.709   5.603  16.495 -0.5456 -0.1725 -0.4354
 5083TIP3    H136664   4.668   5.649  16.569 -1.1735 -0.0945 -0.8361
 5083TIP3    H236665   4.705   5.666  16.423 -1.5297 -0.9031 -1.0279
 5084TIP3   OH236666   4.686   3.430  12.607  0.9496  0.0295  0.0947
 5084TIP3    H136667   4.629   3.499  12.643  0.9531 -0.1085  0.3707
 5084TIP3    H236668   4.771   3.445  12.651  0.6652 -0.7859  0.9405
 5085TIP3   OH236669   4.885   4.646   4.630  0.4470 -0.2145 -0.0964
 5085TIP3    H136670   4.793   4.635   4.656  0.6491 -1.6440  0.0392
 5085TIP3    H236671   4.935   4.623   4.708  0.9148  2.2167  0.3805
 5086TIP3   OH236672   4.528   0.913  16.716 -0.4877  0.2073 -0.1793
 5086TIP3    H136673   4.578   0.980  16.670 -0.9773  0.8694  0.2393
 5086TIP3    H236674   4.580   0.894  16.794 -0.6146  0.5069 -0.0176
 5087TIP3   OH236675   4.079   4.263   3.154 -0.3982 -0.0638  0.6265
 5087TIP3    H136676   4.001   4.239   3.205 -0.8844 -0.2264 -0.1850
 5087TIP3    H236677   4.084   4.196   3.086 -1.1895  1.5520 -1.0605
 5088TIP3   OH236678   4.908   3.592   5.643 -0.2754  0.3800  0.5024
 5088TIP3    H136679   4.872   3.651   5.709  0.6056  0.4008  0.9745
 5088TIP3    H236680   4.998   3.575   5.672 -0.9277 -2.2889  1.1350
 5089TIP3   OH236681   5.779   5.642   5.864 -0.9286  0.0554  0.1736
 5089TIP3    H136682   5.834   5.668   5.938  0.3391  1.3278 -1.1657
 5089TIP3    H236683   5.715   5.712   5.855 -1.5688 -0.4805  0.5412
 5090TIP3   OH236684   0.029   5.960   5.741  0.7609 -0.3638  0.2145
 5090TIP3    H136685   0.087   5.997   5.808  1.3965 -0.9106 -0.0209
 5090TIP3    H236686  -0.057   5.955   5.782  0.5692  1.7484  0.1183
 5091TIP3   OH236687   4.417   6.006   2.300 -0.1116 -0.8270  0.1674
 5091TIP3    H136688   4.362   6.084   2.306 -0.2029 -0.8045 -0.8845
 5091TIP3    H236689   4.465   6.017   2.218  1.2293 -0.9969  0.9103
 5092TIP3   OH236690   1.225   4.197  12.556 -0.3047 -0.6137  0.0452
 5092TIP3    H136691   1.305   4.225  12.513 -0.6658  0.3184 -0.0281
 5092TIP3    H236692   1.204   4.113  12.515  0.0229 -0.3271 -0.7263
 5093TIP3   OH236693   4.117   5.249  14.814 -0.1926 -0.2022  0.3416
 5093TIP3    H136694   4.180   5.289  14.754 -0.1969  0.1108  0.5420
 5093TIP3    H236695   4.083   5.323  14.865 -0.0811 -0.4854  0.8290
 5094TIP3   OH236696   1.281   6.629  15.683 -0.2984  0.7613 -0.1970
 5094TIP3    H136697   1.343   6.698  15.707  1.0866 -1.4641  2.9660
 5094TIP3    H236698   1.334   6.564  15.637 -0.1012 -1.4217  3.0196
 5095TIP3   OH236699   1.971   4.166  11.749 -0.3379 -0.0372  0.1361
 5095TIP3    H136700   2.065   4.180  11.754  0.0225 -1.8528 -1.0323
 5095TIP3    H236701   1.960   4.072  11.760 -2.0987  0.2553  1.1387
 5096TIP3   OH236702   4.714   1.000   1.533  0.0928 -0.3677  0.3233
 5096TIP3    H136703   4.800   1.042   1.525 -0.4520  0.5287 -1.1135
 5096TIP3    H236704   4.733   0.911   1.564  1.7356 -0.9674 -2.2675
 5097TIP3   OH236705   3.637   3.362   4.546  0.2156 -0.4153  0.0334
 5097TIP3    H136706   3.601   3.343   4.632 -1.1600  0.4952 -0.3318
 5097TIP3    H236707   3.659   3.275   4.510 -0.2405 -0.8741  0.8490
 5098TIP3   OH236708   1.454   2.326   3.987 -0.0416  0.0447  0.6002
 5098TIP3    H136709   1.467   2.241   4.030 -2.1886 -1.7687 -2.1084
 5098TIP3    H236710   1.374   2.361   4.025 -1.7749 -1.4205 -1.5477
 5099TIP3   OH236711   2.592   2.010  14.238 -0.0816 -0.3537  0.3056
 5099TIP3    H136712   2.653   2.019  14.311 -1.0675 -2.8684  1.4847
 5099TIP3    H236713   2.639   2.045  14.162  1.7840  0.2209  1.7062
 5100TIP3   OH236714   2.508   6.128   4.355 -0.2166  0.1054 -0.0740
 5100TIP3    H136715   2.585   6.137   4.299  1.2441 -2.4370  1.4920
 5100TIP3    H236716   2.536   6.160   4.441 -1.9310  2.2804 -0.2448
 5101TIP3   OH236717   1.116   5.951  11.819  0.0283 -0.2124  0.5370
 5101TIP3    H136718   1.068   5.875  11.785  1.0368 -0.3889 -0.5242
 5101TIP3    H236719   1.087   5.958  11.911 -1.3876 -0.8067  0.1546
 5102TIP3   OH236720   5.050   1.197  16.316  0.7262 -0.2561  0.2217
 5102TIP3    H136721   5.129   1.144  16.308  1.0870  0.3379 -0.3205
 5102TIP3    H236722   5.083   1.287  16.318  0.0998 -0.0381  0.6242
 5103TIP3   OH236723   4.976   0.160   1.167  0.0563  0.8127 -0.5250
 5103TIP3    H136724   4.889   0.124   1.149 -0.4332  2.7366 -2.1457
 5103TIP3    H236725   4.961   0.228   1.233  0.5444  0.1492  0.2759
 5104TIP3   OH236726   2.429   0.774   2.165  0.5361  0.9219  0.1489
 5104TIP3    H136727   2.478   0.710   2.217 -0.4371  1.2720  1.5288
 5104TIP3    H236728   2.434   0.742   2.075  0.7178 -0.6702  0.7228
 5105TIP3   OH236729   1.595   1.878  11.522  0.3088  0.3948 -0.7167
 5105TIP3    H136730   1.636   1.944  11.578 -0.3968  1.5598 -1.5493
 5105TIP3    H236731   1.502   1.882  11.544  0.3368 -0.7333 -0.3657
 5106TIP3   OH236732   2.454   5.978  15.201 -0.2945  0.6024  0.6461
 5106TIP3    H136733   2.487   6.064  15.228  0.5369  1.1047 -1.8648
 5106TIP3    H236734   2.520   5.916  15.232 -0.1863  0.9972  1.2136
 5107TIP3   OH236735   5.376   6.271   0.423 -0.3724  0.3712 -0.0356
 5107TIP3    H136736   5.318   6.340   0.393 -1.7903 -0.6206  0.3731
 5107TIP3    H236737   5.320   6.193   0.429  0.7346 -0.3398  1.4541
 5108TIP3   OH236738   5.441   1.243  16.471  0.1054  0.4903  0.2848
 5108TIP3    H136739   5.416   1.282  16.388 -0.3600 -0.2508  0.0739
 5108TIP3    H236740   5.456   1.317  16.530 -2.6688  0.9358  0.4578
 5109TIP3   OH236741   4.240   2.809   3.247 -0.4078 -0.0543 -0.3936
 5109TIP3    H136742   4.247   2.734   3.307 -0.0246  0.0649 -0.2899
 5109TIP3    H236743   4.277   2.882   3.296  1.3105 -0.2700 -1.3266
 5110TIP3   OH236744   5.797   3.097  11.813 -0.3483  0.4186  0.5345
 5110TIP3    H136745   5.866   3.163  11.806  0.5700 -0.4288  1.5195
 5110TIP3    H236746   5.786   3.064  11.724 -0.0872  1.1555  0.2265
 5111TIP3   OH236747   3.989   6.315   2.748  0.7873 -0.3175 -0.3860
 5111TIP3    H136748   3.939   6.254   2.694  1.1969 -0.5272 -0.5330
 5111TIP3    H236749   3.951   6.401   2.730  0.2673 -0.5160 -0.2479
 5112TIP3   OH236750   0.240   1.977  11.940 -0.2185  0.1417 -0.3699
 5112TIP3    H136751   0.189   1.904  11.976  0.8019 -0.5864 -0.3983
 5112TIP3    H236752   0.280   2.018  12.017  0.1385 -0.0388 -0.4586
 5113TIP3   OH236753   2.156   1.423  15.361  0.0233  0.0006  0.1710
 5113TIP3    H136754   2.068   1.424  15.398 -0.2629 -0.0121 -0.5125
 5113TIP3    H236755   2.155   1.352  15.297  0.7083 -0.3955  0.5861
 5114TIP3   OH236756   2.805   3.142  14.808  0.8583  0.4655  0.6736
 5114TIP3    H136757   2.788   3.051  14.831  1.7448  0.3872  1.0420
 5114TIP3    H236758   2.718   3.181  14.797  0.4894 -0.5308  0.0784
 5115TIP3   OH236759   1.121   0.581   3.657  0.1699 -0.0163 -0.4341
 5115TIP3    H136760   1.043   0.636   3.650 -1.0130 -1.5194  0.4429
 5115TIP3    H236761   1.165   0.591   3.573 -1.9560 -0.5747 -1.6612
 5116TIP3   OH236762   3.872   0.164   3.167 -0.5968  0.3145 -0.0256
 5116TIP3    H136763   3.822   0.098   3.215 -1.7134  2.2021  1.4368
 5116TIP3    H236764   3.928   0.204   3.233 -0.3124  1.2266 -0.8103
 5117TIP3   OH236765   3.405   1.898   1.269 -0.5489  0.0957 -0.4202
 5117TIP3    H136766   3.316   1.864   1.256 -0.6083 -0.8371  2.0244
 5117TIP3    H236767   3.461   1.835   1.224 -0.9677 -0.9451  0.4686
 5118TIP3   OH236768   6.740   2.269  16.089  0.0727 -0.2410  0.5639
 5118TIP3    H136769   6.720   2.184  16.050  0.6060 -0.5796  1.0092
 5118TIP3    H236770   6.833   2.262  16.113  0.6463  1.1675 -1.1663
 5119TIP3   OH236771   3.466   1.397  16.637 -0.2907  0.6924  0.3009
 5119TIP3    H136772   3.401   1.429  16.700  0.5170  3.8201 -0.3665
 5119TIP3    H236773   3.538   1.366  16.691 -2.0800 -2.3633  1.0356
 5120TIP3   OH236774   4.428   1.920  16.043  0.5077  0.6257 -0.4553
 5120TIP3    H136775   4.382   1.839  16.062  1.6236  0.0313 -0.2388
 5120TIP3    H236776   4.426   1.928  15.948  1.3642 -0.2441 -0.5553
 5121TIP3   OH236777   2.483   2.244   3.252  0.4323  0.0923  0.2385
 5121TIP3    H136778   2.475   2.245   3.156  1.0764  2.7462  0.1739
 5121TIP3    H236779   2.407   2.193   3.282 -0.0652 -0.3236 -1.6590
 5122TIP3   OH236780   6.047   6.597   2.316  0.5267  0.1079  0.9265
 5122TIP3    H136781   6.068   6.690   2.311 -1.0031  0.4342  0.3981
 5122TIP3    H236782   6.025   6.572   2.227  0.7363 -0.7124  1.1032
 5123TIP3   OH236783   6.014   1.842   0.195 -0.1534 -0.1147 -0.1104
 5123TIP3    H136784   6.004   1.818   0.102 -0.5154 -0.0151 -0.0976
 5123TIP3    H236785   5.946   1.792   0.239  0.8343 -1.1518  0.2719
 5124TIP3   OH236786   2.640   5.513  17.103  0.4401 -0.7275 -0.2311
 5124TIP3    H136787   2.651   5.506  17.198 -1.0222 -1.1465 -0.0711
 5124TIP3    H236788   2.687   5.593  17.079 -1.1349  0.6683  1.2174
 5125TIP3   OH236789   2.501   1.597  11.327  0.3515  0.6971 -0.1326
 5125TIP3    H136790   2.517   1.526  11.388  0.2894  0.2199 -0.6673
 5125TIP3    H236791   2.536   1.566  11.244  3.1774  2.5140  0.3036
 5126TIP3   OH236792   2.141   4.144  13.415  0.3447  0.2789  0.2976
 5126TIP3    H136793   2.131   4.238  13.397  0.9060  0.4609  0.9185
 5126TIP3    H236794   2.230   4.135  13.448  0.0289 -0.3438  1.0106
 5127TIP3   OH236795   0.956   0.202   4.594 -0.5215  0.2598  0.2510
 5127TIP3    H136796   1.023   0.155   4.644 -0.8430  0.2046  0.6354
 5127TIP3    H236797   0.956   0.290   4.631 -1.3095 -0.0011  0.8928
 5128TIP3   OH236798   4.407   6.746  16.236 -0.4281  0.1888  0.1186
 5128TIP3    H136799   4.486   6.696  16.214 -1.3755 -0.7793 -1.2352
 5128TIP3    H236800   4.426   6.784  16.321  1.7421  0.4908 -0.4538
 5129TIP3   OH236801   3.878   2.948  11.465  0.1851  0.8258 -0.2749
 5129TIP3    H136802   3.835   2.992  11.538 -0.7947  0.0179 -0.3477
 5129TIP3    H236803   3.911   2.866  11.501 -1.8989 -0.4348 -1.0979
 5130TIP3   OH236804   6.738   4.437  16.185 -0.1514 -0.1397  1.0186
 5130TIP3    H136805   6.802   4.465  16.251 -1.7157 -0.1741  2.6148
 5130TIP3    H236806   6.699   4.357  16.222 -0.5828 -0.5251 -0.2586
 5131TIP3   OH236807   6.120   1.496  17.192 -1.1542 -0.0784 -0.3289
 5131TIP3    H136808   6.209   1.496  17.157  0.5800 -1.7862  3.7056
 5131TIP3    H236809   6.086   1.408  17.173 -0.9441 -0.3352  0.4395
 5132TIP3   OH236810   6.600   3.663  15.238 -0.0626  0.1584  0.2961
 5132TIP3    H136811   6.695   3.657  15.245 -0.0670  0.3474  0.5124
 5132TIP3    H236812   6.568   3.582  15.279 -0.0268  0.4915  0.9801
 5133TIP3   OH236813   6.515   3.154  11.571  0.4833 -0.8370  0.6493
 5133TIP3    H136814   6.605   3.152  11.602 -0.1211 -1.4345  2.4289
 5133TIP3    H236815   6.465   3.107  11.638 -1.0354 -1.2041 -0.6940
 5134TIP3   OH236816   5.662   4.889   3.597  0.1247  0.3315 -0.6202
 5134TIP3    H136817   5.688   4.895   3.505 -1.0132 -0.9703 -1.0315
 5134TIP3    H236818   5.669   4.979   3.629  2.5932  0.4675 -1.3960
 5135TIP3   OH236819   4.182   4.873   5.542  0.1081 -0.0573  0.0849
 5135TIP3    H136820   4.253   4.927   5.575 -1.4872  2.3557 -0.3476
 5135TIP3    H236821   4.125   4.858   5.618  1.3071 -2.4667  0.5701
 5136TIP3   OH236822   0.939   2.067  14.849  0.0401  0.2018 -0.0118
 5136TIP3    H136823   0.903   1.979  14.863  1.1876 -0.1137  1.0421
 5136TIP3    H236824   0.990   2.085  14.928 -0.2018  1.8300 -0.2168
 5137TIP3   OH236825   0.630   3.340  16.605  0.0972  0.6029 -0.0199
 5137TIP3    H136826   0.588   3.266  16.562  0.4564  1.3585 -1.7049
 5137TIP3    H236827   0.649   3.309  16.694 -0.5289 -1.0148 -0.4380
 5138TIP3   OH236828   2.380   4.899  14.370 -0.1999  0.0764  0.3213
 5138TIP3    H136829   2.434   4.833  14.415 -0.5535  0.8187  1.8514
 5138TIP3    H236830   2.444   4.955  14.326  0.1858 -0.1543  0.5762
 5139TIP3   OH236831   5.190   3.897   2.134 -0.2520 -0.2718 -0.2394
 5139TIP3    H136832   5.231   3.951   2.067 -0.3026 -0.6387 -0.5666
 5139TIP3    H236833   5.160   3.960   2.200 -0.5683  0.1242 -0.7529
 5140TIP3   OH236834   3.307   0.303  13.976  0.3702 -0.0010 -0.2924
 5140TIP3    H136835   3.261   0.284  14.057 -0.5320 -0.7837 -0.9754
 5140TIP3    H236836   3.280   0.392  13.953  2.8358  1.3148  1.7265
 5141TIP3   OH236837   6.049   1.753  12.996 -0.5643  0.1327 -0.8356
 5141TIP3    H136838   6.127   1.774  12.944 -0.7784 -2.3011 -2.2374
 5141TIP3    H236839   5.980   1.808  12.960  0.1960  1.3147 -0.4982
 5142TIP3   OH236840   6.563   5.152  13.286 -0.1751 -0.2432  0.4360
 5142TIP3    H136841   6.652   5.171  13.256 -0.0057 -0.7693  0.6044
 5142TIP3    H236842   6.519   5.237  13.288 -0.7577 -0.3793 -3.1735
 5143TIP3   OH236843   6.414   6.362  16.878  0.4986 -0.4917 -0.4300
 5143TIP3    H136844   6.469   6.367  16.799 -1.0935 -1.4897 -1.6332
 5143TIP3    H236845   6.476   6.363  16.951  2.0513 -0.4876 -1.7254
 5144TIP3   OH236846   4.822   5.914  12.570 -0.4156  0.5639  0.0980
 5144TIP3    H136847   4.826   5.987  12.632  0.1697  1.1551 -0.6329
 5144TIP3    H236848   4.909   5.911  12.530 -0.4982 -0.4113 -0.0205
 5145TIP3   OH236849   1.704   0.116  11.360  0.1821 -0.3887  0.9007
 5145TIP3    H136850   1.762   0.132  11.285 -0.9846  2.3364  0.4835
 5145TIP3    H236851   1.643   0.049  11.329 -0.7469  1.2236 -0.9456
 5146TIP3   OH236852   1.079   0.144  14.320 -0.4100 -0.2743  0.2175
 5146TIP3    H136853   1.073   0.240  14.318  2.5582 -0.0595 -2.2354
 5146TIP3    H236854   1.104   0.123  14.410 -1.5416  1.1980  0.8981
 5147TIP3   OH236855   6.104   1.998   3.041 -0.3758 -0.2090  0.1603
 5147TIP3    H136856   6.115   1.945   2.963 -1.7780 -1.8166  1.0297
 5147TIP3    H236857   6.153   1.953   3.109 -0.4351  0.3452  0.5825
 5148TIP3   OH236858   6.504   4.750  14.122 -0.0545 -0.6669  0.0356
 5148TIP3    H136859   6.572   4.796  14.073  0.8680 -0.9144  1.0695
 5148TIP3    H236860   6.515   4.779  14.212  0.2513 -2.5146  0.6245
 5149TIP3   OH236861   6.661   0.221  12.012  0.1542  0.2932 -0.4496
 5149TIP3    H136862   6.578   0.250  11.973 -0.0427  0.4526  0.0906
 5149TIP3    H236863   6.721   0.294  11.997  0.3473 -0.0223 -1.2919
 5150TIP3   OH236864   2.886   0.413  13.325 -0.1432 -0.1826 -0.1430
 5150TIP3    H136865   2.863   0.363  13.247 -0.7445 -1.8285  1.0655
 5150TIP3    H236866   2.956   0.472  13.296 -2.7928  1.8150 -2.7977
 5151TIP3   OH236867   1.625   2.638   0.908  0.4770  0.0876  0.4916
 5151TIP3    H136868   1.531   2.629   0.925  0.6891  1.3825  2.6127
 5151TIP3    H236869   1.667   2.586   0.977  1.3074 -0.3706 -0.3629
 5152TIP3   OH236870   1.967   3.086   3.093 -0.1536  0.5230  0.7055
 5152TIP3    H136871   2.040   3.139   3.125 -1.4701  1.9304  1.4026
 5152TIP3    H236872   1.951   3.118   3.004  0.8231 -0.5936  0.1076
 5153TIP3   OH236873   3.782   5.570  16.732 -0.0906 -0.2928 -0.4129
 5153TIP3    H136874   3.818   5.499  16.678 -0.2658 -0.5082 -0.2510
 5153TIP3    H236875   3.694   5.540  16.755 -0.3378  0.1874 -0.7255
 5154TIP3   OH236876   3.148   5.274   5.251  0.6581 -0.1674  0.0736
 5154TIP3    H136877   3.181   5.185   5.241 -0.4992 -0.5621 -0.3736
 5154TIP3    H236878   3.053   5.265   5.243  0.4274  0.9140  1.4604
 5155TIP3   OH236879   6.160   2.305   4.173  0.2499  0.3751  0.5246
 5155TIP3    H136880   6.088   2.241   4.168  0.6328  0.0732 -1.6363
 5155TIP3    H236881   6.128   2.381   4.124  1.6168  0.0070 -0.9756
 5156TIP3   OH236882   3.805   2.758   2.739  0.1558 -0.1655 -0.3899
 5156TIP3    H136883   3.891   2.795   2.717 -1.3656  3.3613 -0.7661
 5156TIP3    H236884   3.756   2.761   2.657 -1.5072  1.3841  0.6181
 5157TIP3   OH236885   0.928   1.298  16.410 -0.0862 -0.5321 -0.0230
 5157TIP3    H136886   0.919   1.374  16.354 -0.8421 -1.0236 -0.5805
 5157TIP3    H236887   0.840   1.280  16.441  0.0266 -1.4095 -0.1976
 5158TIP3   OH236888   5.855   1.134  14.841  0.2972  0.1547 -0.2635
 5158TIP3    H136889   5.948   1.142  14.864  0.2504  1.4050 -0.4604
 5158TIP3    H236890   5.839   1.039  14.839  1.2818 -0.0549  0.8974
 5159TIP3   OH236891   4.706   1.628   1.006  0.1063 -0.1661 -0.0008
 5159TIP3    H136892   4.675   1.583   0.927  0.0410  1.4332 -0.9282
 5159TIP3    H236893   4.728   1.716   0.975  1.2935  0.0872  1.5353
 5160TIP3   OH236894   3.673   0.426   1.980  0.0184  0.3840 -0.0715
 5160TIP3    H136895   3.630   0.409   2.063 -2.3227 -0.7105 -1.4807
 5160TIP3    H236896   3.662   0.520   1.966 -2.4025  0.0524 -0.6369
 5161TIP3   OH236897   0.262   3.842  13.811  0.3449 -0.7268  0.9805
 5161TIP3    H136898   0.311   3.845  13.729 -0.4659  1.1666  0.5255
 5161TIP3    H236899   0.327   3.859  13.879  0.7128 -0.4592  0.5602
 5162TIP3   OH236900   1.319   4.666   3.626  0.5914  0.1422 -0.0185
 5162TIP3    H136901   1.352   4.640   3.540 -1.0393  0.4371 -0.7618
 5162TIP3    H236902   1.397   4.691   3.676  1.3847  2.2955 -2.2036
 5163TIP3   OH236903   4.800   0.224  12.151 -0.2264 -0.1771 -0.0113
 5163TIP3    H136904   4.844   0.270  12.222  0.8962 -0.5630 -0.4537
 5163TIP3    H236905   4.866   0.165  12.115 -0.8781 -0.2332 -1.1627
 5164TIP3   OH236906   3.507   2.836  13.305  0.0999 -0.2515 -0.0653
 5164TIP3    H136907   3.434   2.861  13.250  0.5270  0.1820 -0.4430
 5164TIP3    H236908   3.528   2.916  13.354 -0.3507 -0.6638  0.8107
 5165TIP3   OH236909   5.778   1.511  14.231  0.2204  0.4174  0.3577
 5165TIP3    H136910   5.743   1.436  14.183 -2.0681  1.9349 -0.4385
 5165TIP3    H236911   5.739   1.503  14.319  1.3862 -0.2738  0.8215
 5166TIP3   OH236912   6.376   1.801   5.211 -0.1690  0.5448 -0.0876
 5166TIP3    H136913   6.467   1.800   5.241 -0.8109  2.0178  2.0127
 5166TIP3    H236914   6.354   1.708   5.202  1.8292  0.1772 -1.6069
 5167TIP3   OH236915   1.143   4.114  14.802  0.0051  0.0943  0.6834
 5167TIP3    H136916   1.177   4.178  14.740 -0.0445 -0.0844  0.4693
 5167TIP3    H236917   1.050   4.107  14.781 -0.0982  0.3422  1.0575
 5168TIP3   OH236918   3.512   4.388  16.988  0.0590  0.2661 -0.3295
 5168TIP3    H136919   3.514   4.437  16.906  3.9663  2.2116  0.8205
 5168TIP3    H236920   3.439   4.426  17.037  1.0580  2.8095 -0.7517
 5169TIP3   OH236921   1.603   3.933  16.435 -0.4805  0.0578  0.7196
 5169TIP3    H136922   1.623   3.976  16.519  0.4387  3.7324 -1.2890
 5169TIP3    H236923   1.510   3.910  16.441 -1.0678  2.5854  1.7965
 5170TIP3   OH236924   4.052   4.569  11.809  0.1265 -0.0504 -0.9856
 5170TIP3    H136925   4.047   4.637  11.742 -0.6771 -1.4294 -2.3488
 5170TIP3    H236926   3.976   4.585  11.865  1.1253  1.4634 -0.0284
 5171TIP3   OH236927   2.877   0.017   1.974 -0.2532 -0.7110  0.3902
 5171TIP3    H136928   2.956   0.011   1.920 -0.3164 -1.1011  0.3388
 5171TIP3    H236929   2.850  -0.074   1.987 -1.6531 -0.5055 -0.9904
 5172TIP3   OH236930   3.467   6.304   0.456  0.1726  0.3452  0.1049
 5172TIP3    H136931   3.378   6.332   0.480  0.0068  2.1824 -2.3847
 5172TIP3    H236932   3.461   6.285   0.362  1.9318 -1.6048  0.3654
 5173TIP3   OH236933   2.954   0.918   4.939 -0.3502  0.0946  0.1808
 5173TIP3    H136934   2.955   0.940   5.032 -2.8598 -0.5917  0.4096
 5173TIP3    H236935   2.953   1.002   4.893 -0.2122  0.4308  0.7994
 5174TIP3   OH236936   6.643   4.031  16.669 -0.0356 -0.1989  0.1207
 5174TIP3    H136937   6.722   4.053  16.619  1.5130 -0.0540  2.5539
 5174TIP3    H236938   6.605   4.117  16.691  1.0409 -0.1396  1.8644
 5175TIP3   OH236939   5.916   0.364  13.000 -0.5214 -0.9081 -0.5408
 5175TIP3    H136940   6.001   0.326  13.024  0.6764  2.0122  0.0275
 5175TIP3    H236941   5.864   0.360  13.081  0.3346  0.5201  0.1057
 5176TIP3   OH236942   5.539   3.460  13.072  0.1322  0.9001  0.1303
 5176TIP3    H136943   5.605   3.463  13.142  0.0235 -0.6236  0.3240
 5176TIP3    H236944   5.581   3.409  13.003  0.0471  1.9781 -0.7206
 5177TIP3   OH236945   3.444   4.554  11.413  0.3788  0.6517  0.0588
 5177TIP3    H136946   3.488   4.591  11.490  1.0715  0.2344 -0.1358
 5177TIP3    H236947   3.478   4.606  11.340  0.6243  0.2569 -0.1059
 5178TIP3   OH236948   6.661   4.212   3.316 -0.0602 -0.6649  0.0378
 5178TIP3    H136949   6.649   4.304   3.290  0.5255  0.0204  2.0764
 5178TIP3    H236950   6.755   4.196   3.305 -0.3876 -1.5188 -1.7735
 5179TIP3   OH236951   0.839   3.809  11.893 -0.0611  0.2695 -0.5099
 5179TIP3    H136952   0.752   3.813  11.933 -0.1561  0.6661 -0.7602
 5179TIP3    H236953   0.887   3.882  11.931  0.5968 -0.7544  0.6548
 5180TIP3   OH236954   3.965   6.723  14.337  0.5099  0.0644 -0.2112
 5180TIP3    H136955   4.027   6.651  14.339 -0.8283 -1.0678  1.4427
 5180TIP3    H236956   3.901   6.698  14.270  0.3289 -0.0506  0.0040
 5181TIP3   OH236957   4.594   4.581   6.305  0.4814 -0.0316 -0.0679
 5181TIP3    H136958   4.638   4.547   6.383  1.0510  0.7710 -0.0227
 5181TIP3    H236959   4.575   4.504   6.252  0.4235 -0.5459  0.6988
 5182TIP3   OH236960   4.533   4.871   5.082  0.1458  0.1613 -0.1433
 5182TIP3    H136961   4.455   4.914   5.117  0.8450  0.9355  0.4855
 5182TIP3    H236962   4.601   4.888   5.148  0.7559 -0.7985 -0.5185
 5183TIP3   OH236963   0.586   5.771   0.151  0.6511  0.3820 -0.0018
 5183TIP3    H136964   0.589   5.731   0.064 -2.9936 -0.5627  0.2205
 5183TIP3    H236965   0.505   5.822   0.151  0.1461 -0.3155  3.1141
 5184TIP3   OH236966   6.026   2.829   6.103 -0.4544  0.1518 -0.3335
 5184TIP3    H136967   6.035   2.796   6.013  0.1360 -0.6979  0.0243
 5184TIP3    H236968   6.107   2.879   6.118 -0.9211  0.9811 -0.5482
 5185TIP3   OH236969   3.118   3.402  11.893 -0.5290 -1.1591  0.0883
 5185TIP3    H136970   3.148   3.398  11.802  1.0002  0.4000  0.4955
 5185TIP3    H236971   3.103   3.495  11.909 -0.2194 -1.3697  1.6125
 5186TIP3   OH236972   0.831   1.541  16.680 -0.5212 -0.0836  0.2374
 5186TIP3    H136973   0.902   1.605  16.683 -0.4797 -0.1012 -0.2105
 5186TIP3    H236974   0.769   1.569  16.747  0.7257 -1.0458  1.8442
 5187TIP3   OH236975   2.520   3.727  16.006 -0.2099  0.2728 -0.3090
 5187TIP3    H136976   2.498   3.816  16.033 -1.3532  0.4624 -1.8054
 5187TIP3    H236977   2.522   3.730  15.911  2.0263 -0.7820 -0.3401
 5188TIP3   OH236978   3.694   0.842   1.550  0.3280 -0.6853 -0.7156
 5188TIP3    H136979   3.782   0.871   1.572  1.0056 -3.0438 -0.1972
 5188TIP3    H236980   3.705   0.757   1.509 -1.6177 -0.3264 -2.1034
 5189TIP3   OH236981   5.506   0.907  17.034  0.3756  0.2121  0.0710
 5189TIP3    H136982   5.531   0.894  16.942  1.2917  1.4664  0.1464
 5189TIP3    H236983   5.422   0.953  17.029  0.1139 -0.2760 -0.1346
 5190TIP3   OH236984   6.556   6.235   2.220  0.5957 -0.8727 -0.0964
 5190TIP3    H136985   6.525   6.281   2.298 -0.9473 -1.3180 -0.4394
 5190TIP3    H236986   6.651   6.250   2.220  0.2421  1.5624  0.2744
 5191TIP3   OH236987   3.253   2.467  15.272  0.0976  0.0919 -0.0421
 5191TIP3    H136988   3.292   2.394  15.321  0.7375 -0.2181 -0.9901
 5191TIP3    H236989   3.324   2.498  15.217 -0.6482  0.3638 -0.8530
 5192TIP3   OH236990   2.779   5.780   3.002  0.1328  0.4589 -0.2419
 5192TIP3    H136991   2.760   5.771   3.095  0.1600  0.3670 -0.2446
 5192TIP3    H236992   2.812   5.694   2.976 -1.2010  0.0669 -0.6547
 5193TIP3   OH236993   5.547   1.130   2.883  0.2096  0.0337  0.3600
 5193TIP3    H136994   5.634   1.109   2.849 -0.4946 -1.3744 -0.5922
 5193TIP3    H236995   5.564   1.167   2.970  1.6634 -1.6783  0.8347
 5194TIP3   OH236996   2.806   1.403   5.264  0.0704  0.2366  0.0180
 5194TIP3    H136997   2.820   1.355   5.183 -0.7328  0.3276 -0.1777
 5194TIP3    H236998   2.836   1.343   5.333 -0.5410 -0.3806 -0.2511
 5195TIP3   OH236999   1.314   2.056   4.289  0.6744 -0.0381 -0.2907
 5195TIP3    H137000   1.244   2.030   4.229 -0.5499  2.7039 -0.1567
 5195TIP3    H237001   1.275   2.048   4.376  1.5206 -1.3293 -0.0252
 5196TIP3   OH237002   5.800   5.835  14.851  0.1754 -0.3583 -0.5898
 5196TIP3    H137003   5.832   5.765  14.794  0.7353 -0.5129 -0.1008
 5196TIP3    H237004   5.835   5.915  14.814  1.3134 -0.5440  0.0525
 5197TIP3   OH237005   4.027   6.083  16.194  0.2423 -0.3366 -0.1117
 5197TIP3    H137006   4.045   6.042  16.279 -1.5785  0.6166  0.7656
 5197TIP3    H237007   4.001   6.010  16.137 -1.6493 -0.5829  1.0517
 5198TIP3   OH237008   0.880   3.850   5.934 -0.2631  0.0522  0.8983
 5198TIP3    H137009   0.845   3.817   6.017 -0.9724 -2.5643 -0.3951
 5198TIP3    H237010   0.805   3.891   5.892 -0.5743 -1.0554  0.3593
 5199TIP3   OH237011   6.647   4.732  15.207 -0.5790  0.0798 -0.1848
 5199TIP3    H137012   6.590   4.672  15.161  2.4534 -3.9542  1.0316
 5199TIP3    H237013   6.723   4.743  15.150  0.4746 -0.1292  1.1261
 5200TIP3   OH237014   2.872   6.731   0.941 -0.5899 -0.5539  1.0117
 5200TIP3    H137015   2.916   6.813   0.964 -1.2355 -0.1268  0.7290
 5200TIP3    H237016   2.786   6.737   0.982 -1.2605 -0.3631 -0.3793
 5201TIP3   OH237017   2.303   4.153   4.687  0.7595 -0.0691  0.1511
 5201TIP3    H137018   2.212   4.127   4.680  1.1853 -1.3869 -0.7447
 5201TIP3    H237019   2.344   4.083   4.738  1.4931 -0.1005 -0.4687
 5202TIP3   OH237020   0.110   5.705   4.274 -0.0301  0.5739  0.0247
 5202TIP3    H137021   0.061   5.779   4.311  1.5433  1.2529  0.8065
 5202TIP3    H237022   0.168   5.677   4.345  0.3144 -0.5725 -0.6996
 5203TIP3   OH237023   5.944   1.349  16.854 -0.2646  0.6497  0.1618
 5203TIP3    H137024   6.036   1.375  16.852  0.1426 -0.5760  1.7040
 5203TIP3    H237025   5.908   1.395  16.930 -0.1839 -1.0687  1.2955
 5204TIP3   OH237026   4.545   1.101   2.727  0.0929 -0.8081  0.5970
 5204TIP3    H137027   4.477   1.034   2.715 -0.6021 -0.1414  0.7560
 5204TIP3    H237028   4.627   1.056   2.707 -0.5766 -1.0897 -1.6691
 5205TIP3   OH237029   5.240   1.097   0.140 -0.7603  0.3817  0.4586
 5205TIP3    H137030   5.226   1.019   0.087  0.4615  0.2276  0.3368
 5205TIP3    H237031   5.268   1.063   0.225 -0.5347  0.6756  0.5042
 5206TIP3   OH237032   5.610   6.630  14.441  0.0676  0.2644  0.0468
 5206TIP3    H137033   5.537   6.652  14.499  0.2085  0.0292  0.3106
 5206TIP3    H237034   5.684   6.616  14.499  0.2212  0.0798 -0.1919
 5207TIP3   OH237035   2.318   6.413  12.132  0.5269 -0.7355 -0.4856
 5207TIP3    H137036   2.391   6.430  12.192 -1.3789  4.2081  0.6966
 5207TIP3    H237037   2.255   6.363  12.184  0.2337  0.8402  0.7151
 5208TIP3   OH237038   1.612   1.659   0.207  0.2355  0.4441  0.3658
 5208TIP3    H137039   1.537   1.623   0.160 -1.1394  1.8746  1.4031
 5208TIP3    H237040   1.639   1.590   0.267 -0.6562  0.1407  0.4252
 5209TIP3   OH237041   1.456   3.217  14.942  0.0849 -0.3176 -0.5946
 5209TIP3    H137042   1.412   3.256  14.866 -1.8510 -2.6356 -0.7165
 5209TIP3    H237043   1.396   3.233  15.015 -0.2770 -2.2289 -0.4719
 5210TIP3   OH237044   5.170   4.422   0.917 -0.0078 -0.6929  0.4562
 5210TIP3    H137045   5.158   4.334   0.880  1.3938 -0.6111 -0.2221
 5210TIP3    H237046   5.214   4.406   1.000 -0.5614 -0.6844  0.7536
 5211TIP3   OH237047   5.276   0.279  12.276 -0.1555  0.3346 -0.6981
 5211TIP3    H137048   5.341   0.310  12.214  1.4892  0.0180  0.8282
 5211TIP3    H237049   5.267   0.186  12.257  2.1530 -0.3020  1.0564
 5212TIP3   OH237050   4.686   2.212   3.026  0.7185 -0.2678 -0.1374
 5212TIP3    H137051   4.620   2.280   3.043 -1.7494 -1.6550 -3.4424
 5212TIP3    H237052   4.685   2.157   3.104  0.1632  1.4412  1.1050
 5213TIP3   OH237053   6.403   2.407   0.984 -0.1500  0.2468  0.1364
 5213TIP3    H137054   6.465   2.431   1.053  0.0031  2.0342 -0.6182
 5213TIP3    H237055   6.441   2.328   0.945 -0.3043 -0.8763  2.1441
 5214TIP3   OH237056   2.590   6.312  14.873  0.1421  0.3294 -0.0153
 5214TIP3    H137057   2.553   6.340  14.789 -3.0371  0.3513  1.3385
 5214TIP3    H237058   2.557   6.376  14.936  2.6444  0.4260  1.2753
 5215TIP3   OH237059   1.651   3.746   6.496  0.1433 -0.7284 -0.1571
 5215TIP3    H137060   1.712   3.820   6.493  0.4943 -0.9564  0.8940
 5215TIP3    H237061   1.565   3.784   6.484  0.4234 -0.2909 -0.7877
 5216TIP3   OH237062   1.948   6.440   3.429 -0.1767 -0.1644  0.5749
 5216TIP3    H137063   1.893   6.513   3.401 -0.5814 -0.7455 -0.1532
 5216TIP3    H237064   1.905   6.362   3.393  0.1882 -0.7729  1.4383
 5217TIP3   OH237065   3.939   5.354   0.930  0.3223 -0.2372  0.0143
 5217TIP3    H137066   3.916   5.308   1.010  0.1048  1.0615  0.7122
 5217TIP3    H237067   4.010   5.413   0.955  0.0926  0.3478 -0.6865
 5218TIP3   OH237068   4.572   3.943  10.912  0.4839 -0.1580 -0.4089
 5218TIP3    H137069   4.482   3.935  10.945  1.0112  0.6915  1.3205
 5218TIP3    H237070   4.594   3.855  10.881  0.0793 -1.1261  1.9282
 5219TIP3   OH237071   2.294   4.755  11.289 -0.1098  0.1245 -0.7696
 5219TIP3    H137072   2.312   4.839  11.247  0.1137  0.5618  0.2054
 5219TIP3    H237073   2.230   4.776  11.357 -3.1850 -1.1172 -3.0969
 5220TIP3   OH237074   3.304   0.339   4.042 -0.4079 -0.2400 -0.2380
 5220TIP3    H137075   3.286   0.433   4.045  2.2045  0.2640  0.9663
 5220TIP3    H237076   3.389   0.333   3.997 -0.5430 -2.0175 -0.2773
 5221TIP3   OH237077   2.275   5.553   0.230  0.1845 -0.1797  0.1655
 5221TIP3    H137078   2.217   5.628   0.217  0.5429  0.6638  3.0612
 5221TIP3    H237079   2.228   5.479   0.191 -1.0381  1.1901 -1.0228
 5222TIP3   OH237080   5.063   2.744  11.301  0.2565 -0.0094  0.2841
 5222TIP3    H137081   5.158   2.734  11.300  0.3384  0.7818 -0.0097
 5222TIP3    H237082   5.040   2.771  11.212 -0.0107  1.8517  0.8957
 5223TIP3   OH237083   2.084   3.547  11.282 -0.4645 -0.4163 -0.1013
 5223TIP3    H137084   2.049   3.579  11.198 -0.3290  1.1850  0.4237
 5223TIP3    H237085   2.118   3.460  11.262  0.5141  0.3553 -1.9920
 5224TIP3   OH237086   6.241   1.833  12.417  0.3629 -0.2049  0.0877
 5224TIP3    H137087   6.310   1.793  12.364 -0.3918 -0.6625 -0.5636
 5224TIP3    H237088   6.275   1.920  12.440  1.0156 -0.3002 -0.5085
 5225TIP3   OH237089   0.287   6.274  11.984 -0.2565 -0.0098 -0.5466
 5225TIP3    H137090   0.234   6.295  11.907 -0.1896  0.0762 -0.5688
 5225TIP3    H237091   0.374   6.311  11.965  0.0765 -0.9807 -0.9226
 5226TIP3   OH237092   6.158   4.273  17.193  0.7869  0.1519  0.6404
 5226TIP3    H137093   6.194   4.227  17.269  2.9157 -0.8691 -0.9314
 5226TIP3    H237094   6.218   4.252  17.122 -0.7683  1.6790 -1.1745
 5227TIP3   OH237095   6.753   4.497  16.854  0.3584 -0.2847 -0.2715
 5227TIP3    H137096   6.711   4.572  16.895  0.2919 -0.2470 -0.4086
 5227TIP3    H237097   6.790   4.532  16.773 -1.0092 -0.7200 -1.1105
 5228TIP3   OH237098   2.608   2.031   0.267  0.0816  0.1476  0.4454
 5228TIP3    H137099   2.606   1.939   0.296  0.2149  0.1469  0.4528
 5228TIP3    H237100   2.623   2.081   0.347 -1.0106  0.2473  0.5935
 5229TIP3   OH237101   2.714   5.729   1.517 -0.2801  0.1328 -0.0233
 5229TIP3    H137102   2.778   5.719   1.446 -1.7540 -0.6030 -1.2737
 5229TIP3    H237103   2.747   5.804   1.567  1.5112 -0.1709 -0.6913
 5230TIP3   OH237104   3.146   5.150  12.887 -0.1494 -0.3200  0.1392
 5230TIP3    H137105   3.053   5.160  12.907 -0.6176 -0.9714 -1.6796
 5230TIP3    H237106   3.158   5.055  12.875  0.9038 -0.3219  1.0847
 5231TIP3   OH237107   1.838   5.487  15.597  0.2388  0.2106 -0.0271
 5231TIP3    H137108   1.782   5.455  15.525 -0.5248  1.4283 -0.0036
 5231TIP3    H237109   1.913   5.527  15.553  0.1751  0.2291 -0.1184
 5232TIP3   OH237110   3.577   5.870  11.397  0.4641 -0.5782 -0.1624
 5232TIP3    H137111   3.494   5.915  11.407  0.9018  0.0410  0.6835
 5232TIP3    H237112   3.581   5.809  11.471  0.5069 -1.0074 -0.5162
 5233TIP3   OH237113   0.086   2.840  17.064  0.8553  0.5845 -0.0408
 5233TIP3    H137114   0.152   2.786  17.107  0.7930  0.1011 -0.5501
 5233TIP3    H237115   0.137   2.899  17.008  0.8260 -0.2028 -0.9037
 5234TIP3   OH237116   6.054   6.619  13.593 -0.5978 -0.1218 -0.2869
 5234TIP3    H137117   6.028   6.696  13.543 -0.3777  0.9461  1.2434
 5234TIP3    H237118   6.139   6.642  13.631 -0.1077 -1.4505 -0.5398
 5235TIP3   OH237119   1.080   4.543   3.703  0.5933  0.0586  0.3412
 5235TIP3    H137120   1.038   4.619   3.743  1.2132  0.8744 -0.5411
 5235TIP3    H237121   1.170   4.571   3.688  0.6444 -0.6084 -0.6189
 5236TIP3   OH237122   4.535   1.751   5.178  0.0636 -0.1493 -0.6786
 5236TIP3    H137123   4.441   1.739   5.188 -0.2811  2.8949  0.2344
 5236TIP3    H237124   4.550   1.843   5.201  3.2089 -0.4934 -1.1477
 5237TIP3   OH237125   0.023   2.030   0.189  0.1062  0.1570 -0.7211
 5237TIP3    H137126   0.029   2.080   0.107  0.0625 -0.4341 -1.0857
 5237TIP3    H237127  -0.012   1.945   0.163 -0.2034  0.0701 -0.0413
 5238TIP3   OH237128   5.632   5.794   4.097 -0.0450 -0.0617 -0.0711
 5238TIP3    H137129   5.637   5.819   4.190 -1.4165  1.0586 -0.2876
 5238TIP3    H237130   5.545   5.754   4.088  0.1192 -0.2445 -0.8538
 5239TIP3   OH237131   2.883   3.291  13.475  0.2158  0.0363 -0.6087
 5239TIP3    H137132   2.926   3.376  13.478 -0.0634  0.1345  0.9182
 5239TIP3    H237133   2.791   3.309  13.496 -0.0123 -0.5263 -1.1111
 5240TIP3   OH237134   5.430   4.637  14.558  0.3365  0.3314  0.2030
 5240TIP3    H137135   5.450   4.543  14.562  0.2632  0.1334 -2.8522
 5240TIP3    H237136   5.505   4.675  14.513 -0.6893  1.3931 -0.6270
 5241TIP3   OH237137   5.273   5.108  11.355  0.3082  0.5362  0.2538
 5241TIP3    H137138   5.259   5.027  11.405  0.5983  0.6655  0.5474
 5241TIP3    H237139   5.305   5.170  11.420  0.3873  0.7963 -0.0362
 5242TIP3   OH237140   1.134   1.617   1.524 -0.0064  0.2684 -0.0136
 5242TIP3    H137141   1.228   1.635   1.519  0.0080  1.0484  2.3385
 5242TIP3    H237142   1.098   1.693   1.570 -1.5764 -0.6706  0.3288
 5243TIP3   OH237143   0.084   0.133  13.611 -0.0634 -0.6232 -0.5729
 5243TIP3    H137144   0.127   0.177  13.538 -1.7458  0.8153 -0.7403
 5243TIP3    H237145   0.148   0.069  13.641  2.6793  2.2524 -0.0038
 5244TIP3   OH237146   4.850   4.971   4.355  0.1486  0.6316  0.2481
 5244TIP3    H137147   4.808   4.998   4.437 -0.3371  1.8709 -0.3844
 5244TIP3    H237148   4.919   5.036   4.341  1.6703 -0.8422  0.7806
 5245TIP3   OH237149   1.475   4.575   6.396 -0.0638  0.2935  0.3587
 5245TIP3    H137150   1.416   4.500   6.387 -0.2641  0.4684  0.2121
 5245TIP3    H237151   1.527   4.575   6.316  0.2086  0.0814  0.5315
 5246TIP3   OH237152   3.794   5.350  11.232 -0.6781 -0.6741 -0.1034
 5246TIP3    H137153   3.835   5.369  11.316 -0.1075 -0.7746 -0.3530
 5246TIP3    H237154   3.702   5.370  11.245 -0.6364 -0.9382  0.6224
 5247TIP3   OH237155   3.707   3.823  13.430  0.0120  0.2931 -0.3524
 5247TIP3    H137156   3.714   3.862  13.343  2.8481 -1.2983 -0.9079
 5247TIP3    H237157   3.735   3.892  13.490 -0.5687  0.9370 -0.8220
 5248TIP3   OH237158   0.532   6.353  11.869 -1.2983  0.0213 -0.1991
 5248TIP3    H137159   0.609   6.347  11.926 -1.9114  0.6709  0.6990
 5248TIP3    H237160   0.559   6.307  11.789  0.4173  1.1792 -0.3222
 5249TIP3   OH237161   3.011   2.629  16.026  0.5066  0.6507 -0.0179
 5249TIP3    H137162   2.964   2.589  15.953  0.6959  2.2621 -1.0624
 5249TIP3    H237163   3.094   2.582  16.029 -0.1475 -0.5019  0.1923
 5250TIP3   OH237164   5.615   6.382  11.313 -0.3708 -0.1565 -0.4794
 5250TIP3    H137165   5.576   6.460  11.353  2.2009  1.5255 -1.0681
 5250TIP3    H237166   5.703   6.378  11.350 -0.5161 -2.9452 -0.3194
 5251TIP3   OH237167   6.277   2.945  11.254 -0.0722  0.3294 -0.2628
 5251TIP3    H137168   6.318   2.971  11.337  0.6352  1.5148 -0.9659
 5251TIP3    H237169   6.345   2.896  11.207  0.6040  2.3353 -1.4467
 5252TIP3   OH237170   3.844   4.880  11.881 -0.3253  0.0328 -0.2590
 5252TIP3    H137171   3.823   4.964  11.922 -3.3091 -1.3073  1.0921
 5252TIP3    H237172   3.848   4.900  11.787  1.2306  2.0771  0.1998
 5253TIP3   OH237173   1.288   2.488   5.762  0.3262 -0.4793  0.3596
 5253TIP3    H137174   1.345   2.530   5.698  1.6174  1.3789  2.6488
 5253TIP3    H237175   1.215   2.549   5.773  0.8439 -0.1005  1.7146
 5254TIP3   OH237176   1.166   5.961   5.932 -0.1618  0.0908  0.1134
 5254TIP3    H137177   1.158   5.868   5.953 -0.5059  0.0046 -0.3979
 5254TIP3    H237178   1.261   5.976   5.929 -0.1037 -0.0553  1.0043
 5255TIP3   OH237179   1.275   3.909   0.457 -0.1059  0.0179  0.2466
 5255TIP3    H137180   1.333   3.953   0.395  0.8838 -1.1177  0.3479
 5255TIP3    H237181   1.276   3.817   0.429  2.6568 -1.0799  3.6234
 5256TIP3   OH237182   4.316   2.580   2.384 -0.2652  0.6660 -0.5301
 5256TIP3    H137183   4.263   2.502   2.366  0.5480  0.0608 -0.2942
 5256TIP3    H237184   4.313   2.630   2.302  0.6434 -0.4511 -1.2470
 5257TIP3   OH237185   3.036   5.718  13.090  0.5384 -0.3709  0.4302
 5257TIP3    H137186   3.110   5.712  13.029 -0.2014 -1.2824 -0.3857
 5257TIP3    H237187   2.995   5.802  13.069  0.0094 -0.8900 -0.6511
 5258TIP3   OH237188   0.757   2.923  13.281  0.2590 -0.2244  0.2021
 5258TIP3    H137189   0.830   2.972  13.317  0.8362 -0.3096 -0.8355
 5258TIP3    H237190   0.762   2.938  13.187 -2.2764  1.4545  0.2926
 5259TIP3   OH237191   6.404   1.856   0.365 -0.0744 -0.6604  0.6124
 5259TIP3    H137192   6.436   1.936   0.407 -1.1098 -1.2439  2.5601
 5259TIP3    H237193   6.389   1.882   0.274  0.5596  1.0999  0.9846
 5260TIP3   OH237194   5.358   2.152   2.114  0.1428 -0.0175  0.6655
 5260TIP3    H137195   5.436   2.146   2.058  1.0102  0.6362  1.7737
 5260TIP3    H237196   5.285   2.138   2.055  0.9681  1.8965 -0.8755
 5261TIP3   OH237197   6.137   2.717   3.102 -0.1779  0.6276 -0.0775
 5261TIP3    H137198   6.163   2.771   3.027  0.1618  1.1341  0.3974
 5261TIP3    H237199   6.084   2.646   3.064 -1.3937  1.8024 -0.6028
 5262TIP3   OH237200   3.312   5.548  11.761 -0.1436 -0.1155 -0.1573
 5262TIP3    H137201   3.351   5.488  11.697 -2.2046  0.1073 -1.6696
 5262TIP3    H237202   3.293   5.494  11.837 -0.9241 -1.1559 -1.0760
 5263TIP3   OH237203   1.021   0.913  10.499  0.4316  0.1472 -0.3607
 5263TIP3    H137204   1.107   0.927  10.539  1.4836 -0.8016 -2.2373
 5263TIP3    H237205   0.984   1.000  10.489  0.6317  0.4880  1.5721
 5264TIP3   OH237206   3.838   0.109   0.759  0.0769 -0.1089 -0.0973
 5264TIP3    H137207   3.753   0.097   0.717 -1.3673 -0.4263  2.8009
 5264TIP3    H237208   3.827   0.186   0.814  1.4781 -0.4984  0.7539
 5265TIP3   OH237209   2.086   6.111  14.631 -0.3330  0.1874  0.5537
 5265TIP3    H137210   2.053   6.122  14.543 -0.4599 -2.0889  0.2979
 5265TIP3    H237211   2.161   6.171  14.636  0.6420 -0.7940 -1.6202
 5266TIP3   OH237212   1.569   1.998  15.310 -0.0735  0.3325  0.3401
 5266TIP3    H137213   1.481   1.960  15.312  0.9861 -2.2269 -0.2856
 5266TIP3    H237214   1.613   1.960  15.386  1.0690  0.1454 -0.4082
 5267TIP3   OH237215   6.522   5.352   0.112  0.4167  0.0877  0.0130
 5267TIP3    H137216   6.514   5.258   0.096  2.2055 -0.2700  1.1967
 5267TIP3    H237217   6.447   5.390   0.065  0.8029 -1.7109 -2.1662
 5268TIP3   OH237218   6.083   1.333  16.504  0.0545 -0.4346 -0.2920
 5268TIP3    H137219   6.048   1.283  16.431 -0.6456 -1.3214  0.6301
 5268TIP3    H237220   6.150   1.277  16.543  0.0722 -0.1831  0.0475
 5269TIP3   OH237221   3.401   5.285  15.327  0.1577  0.3578  0.3167
 5269TIP3    H137222   3.473   5.252  15.273 -0.0979  0.9204 -0.3749
 5269TIP3    H237223   3.349   5.339  15.267 -1.5052 -0.9983  0.5075
 5270TIP3   OH237224   3.271   2.858   0.778  0.0181 -0.1386  0.0455
 5270TIP3    H137225   3.320   2.937   0.755 -0.8780 -0.0076 -1.5029
 5270TIP3    H237226   3.215   2.885   0.851 -0.7651  0.8626 -0.9083
 5271TIP3   OH237227   1.807   1.768  14.149 -0.0185 -0.0266  0.4376
 5271TIP3    H137228   1.792   1.737  14.059  1.0927 -0.0592  0.2646
 5271TIP3    H237229   1.719   1.773  14.187 -0.3082 -2.3903  0.1330
 5272TIP3   OH237230   2.373   0.422   2.095  0.0073 -0.0959 -0.0719
 5272TIP3    H137231   2.315   0.345   2.097 -0.7587  0.4234 -1.4546
 5272TIP3    H237232   2.445   0.396   2.038  1.7389 -1.1211  2.4853
 5273TIP3   OH237233   2.758   0.362  17.221 -0.2854 -0.0117 -0.5213
 5273TIP3    H137234   2.690   0.307  17.259  0.2044 -0.9814 -1.0427
 5273TIP3    H237235   2.813   0.388  17.295 -0.2965 -0.5351 -0.3324
 5274TIP3   OH237236   1.069   4.298  14.117 -0.2077 -0.0840 -0.2887
 5274TIP3    H137237   0.990   4.352  14.126  1.2632  1.9992  0.6227
 5274TIP3    H237238   1.080   4.257  14.203  0.3160  0.5125 -0.0697
 5275TIP3   OH237239   5.831   6.649  11.343  0.7195  0.1403 -0.4775
 5275TIP3    H137240   5.742   6.682  11.328 -0.1361 -2.0705 -0.4734
 5275TIP3    H237241   5.822   6.553  11.338  2.1766 -0.3653  4.1186
 5276TIP3   OH237242   2.579   4.950   2.999 -0.0664  0.3990 -0.9589
 5276TIP3    H137243   2.661   4.984   2.964  0.0086  2.1585  0.8028
 5276TIP3    H237244   2.511   4.997   2.952 -0.0159  0.6474 -0.7850
 5277TIP3   OH237245   1.228   4.577   5.284 -0.4007  0.3899  0.0631
 5277TIP3    H137246   1.215   4.632   5.361 -1.6699  0.7978 -0.4277
 5277TIP3    H237247   1.201   4.489   5.312  1.3206  0.0537  0.7500
 5278TIP3   OH237248   4.436   3.926  11.960 -0.1152 -0.0651  0.3394
 5278TIP3    H137249   4.363   3.988  11.964  0.0179  0.0386  1.1030
 5278TIP3    H237250   4.514   3.981  11.954  0.0695 -0.1361  1.9422
 5279TIP3   OH237251   5.277   1.413  11.038  0.1867  0.0856  0.1664
 5279TIP3    H137252   5.317   1.364  11.110 -0.1769  0.5124  0.6577
 5279TIP3    H237253   5.351   1.454  10.994  0.4258 -0.3033  0.1969
 5280TIP3   OH237254   6.271   2.690   3.808 -0.0706  0.0032  0.0388
 5280TIP3    H137255   6.329   2.616   3.821  0.5445  0.7294  1.5742
 5280TIP3    H237256   6.256   2.693   3.713 -0.2085 -2.1319 -0.0098
 5281TIP3   OH237257   6.254   0.437  13.268 -0.2378 -0.2579 -0.3831
 5281TIP3    H137258   6.191   0.471  13.330 -0.4357 -1.3135  0.0156
 5281TIP3    H237259   6.337   0.477  13.294 -0.4035 -0.3316  0.2785
 5282TIP3   OH237260   5.016   3.875   4.276 -0.0798  0.1095  0.1332
 5282TIP3    H137261   5.108   3.890   4.297  0.3802 -0.7646 -1.2113
 5282TIP3    H237262   4.969   3.935   4.333  1.2128 -0.9207  2.3430
 5283TIP3   OH237263   2.097   3.021   1.363 -0.0647 -0.5340 -0.0839
 5283TIP3    H137264   2.160   3.051   1.297 -0.0549 -1.4295 -0.4878
 5283TIP3    H237265   2.148   2.965   1.421 -0.4526 -1.1382 -0.3218
 5284TIP3   OH237266   1.338   5.787  12.410 -0.5762  0.1458 -0.4752
 5284TIP3    H137267   1.298   5.709  12.371 -1.4257 -1.0065  2.4856
 5284TIP3    H237268   1.266   5.851  12.414  0.1625  1.2020 -3.0559
 5285TIP3   OH237269   2.495   5.040  11.447 -0.8294  0.0572  0.0799
 5285TIP3    H137270   2.478   5.047  11.541  0.0199  1.5204  0.1435
 5285TIP3    H237271   2.588   5.019  11.441 -0.4770  1.7088 -0.4637
 5286TIP3   OH237272   0.754   2.123  12.610  0.8125 -0.2978 -0.1638
 5286TIP3    H137273   0.776   2.188  12.543  1.5274 -0.2739  0.0959
 5286TIP3    H237274   0.827   2.061  12.608 -0.2770 -1.5852 -1.0241
 5287TIP3   OH237275   1.519   6.293  13.668  0.1271 -0.3559  0.1573
 5287TIP3    H137276   1.537   6.199  13.656 -1.7268 -0.6817 -0.1318
 5287TIP3    H237277   1.457   6.315  13.599 -0.0896  0.9068  0.7441
 5288TIP3   OH237278   4.759   0.253  11.732  0.0738 -0.7266 -0.3266
 5288TIP3    H137279   4.691   0.213  11.678 -0.3191 -2.2646  1.2383
 5288TIP3    H237280   4.789   0.181  11.789 -0.0931  1.0172  2.0347
 5289TIP3   OH237281   1.912   2.064   2.126 -0.6316 -0.4247 -0.0339
 5289TIP3    H137282   1.978   2.012   2.080 -0.3389 -0.1339  0.0510
 5289TIP3    H237283   1.837   2.005   2.136 -0.4783 -0.6768 -0.3562
 5290TIP3   OH237284   6.318   4.895   1.453  0.0451  0.9415 -0.0134
 5290TIP3    H137285   6.228   4.864   1.447  0.5327 -0.5782  0.2820
 5290TIP3    H237286   6.321   4.946   1.534  0.0940 -1.2606  1.4034
 5291TIP3   OH237287   5.285   0.599   4.725 -0.3484  0.9211 -0.8307
 5291TIP3    H137288   5.229   0.525   4.751 -0.1163  0.8040 -0.6561
 5291TIP3    H237289   5.260   0.670   4.784  0.6468  0.4544  0.1831
 5292TIP3   OH237290   0.482   6.770  11.527 -0.2214 -0.6363  0.5064
 5292TIP3    H137291   0.458   6.852  11.484  1.4203 -0.4569 -0.1235
 5292TIP3    H237292   0.453   6.702  11.467 -1.2180 -0.5122  0.8381
 5293TIP3   OH237293   4.221   1.753  10.571  0.3224  0.5149 -0.2318
 5293TIP3    H137294   4.210   1.659  10.586  0.1729  0.1037 -2.6374
 5293TIP3    H237295   4.277   1.758  10.493 -2.4441  2.3395 -2.1999
 5294TIP3   OH237296   2.682   3.942   3.568  0.1118 -0.1464  0.2656
 5294TIP3    H137297   2.662   3.850   3.553 -1.1099  0.4336 -2.0877
 5294TIP3    H237298   2.775   3.951   3.547  0.0727 -0.7330 -0.1628
 5295TIP3   OH237299   6.031   3.258  11.020 -0.1775 -0.3835  0.2667
 5295TIP3    H137300   5.957   3.318  11.028 -0.9358 -1.4468  1.3017
 5295TIP3    H237301   6.008   3.201  10.946  0.9450  1.1274 -1.2982
 5296TIP3   OH237302   6.331   2.622   6.084 -0.1753  0.0479  0.1790
 5296TIP3    H137303   6.247   2.608   6.128 -0.6689  2.2836 -0.0014
 5296TIP3    H237304   6.397   2.600   6.151 -0.8809 -0.9466  0.5624
 5297TIP3   OH237305   5.502   6.737  16.437  0.4326  0.1106 -0.2741
 5297TIP3    H137306   5.469   6.795  16.368 -1.9946 -0.4042  0.4179
 5297TIP3    H237307   5.483   6.784  16.518 -1.3407 -1.5091  0.2841
 5298TIP3   OH237308   4.867   5.335   4.964  0.0396  0.1018  0.1302
 5298TIP3    H137309   4.828   5.255   4.999  0.4983  1.4886  4.1065
 5298TIP3    H237310   4.793   5.392   4.946 -0.1647 -0.3022 -0.3239
 5299TIP3   OH237311   3.048   2.974   0.901  0.2192  0.5855  0.5631
 5299TIP3    H137312   2.955   2.979   0.924 -0.1891 -0.2400 -0.8782
 5299TIP3    H237313   3.070   3.063   0.873  0.0275  0.9250  1.4460
 5300TIP3   OH237314   0.837   3.120   3.634  0.2897  0.4375 -0.0313
 5300TIP3    H137315   0.838   3.026   3.620 -0.9563  0.3732  0.3237
 5300TIP3    H237316   0.857   3.157   3.548 -3.1605 -0.0712 -1.1145
 5301TIP3   OH237317   2.750   4.555  14.876 -0.1561  0.0233  0.2410
 5301TIP3    H137318   2.827   4.540  14.931 -0.3178 -1.1032  0.1910
 5301TIP3    H237319   2.758   4.645  14.846  0.9683  0.0244  0.5214
 5302TIP3   OH237320   5.267   0.519  13.634  0.0833 -0.2256 -0.0865
 5302TIP3    H137321   5.253   0.528  13.729  2.5263 -2.0809  0.4943
 5302TIP3    H237322   5.281   0.609  13.604 -0.5668  0.3696  1.3380
 5303TIP3   OH237323   2.054   0.776   6.283  0.6837  0.0508  0.6057
 5303TIP3    H137324   2.035   0.807   6.372  0.2397  1.0075  0.1828
 5303TIP3    H237325   2.030   0.683   6.285  0.5368  0.1016  1.4490
 5304TIP3   OH237326   3.671   6.255   3.767  0.2601  0.5464 -0.3315
 5304TIP3    H137327   3.665   6.164   3.793  0.5310  0.3958 -0.7983
 5304TIP3    H237328   3.676   6.253   3.671  1.2062  1.0051 -0.2911
 5305TIP3   OH237329   0.191   2.690  12.632  0.3507 -0.0740  0.0464
 5305TIP3    H137330   0.118   2.718  12.687 -0.1339  1.8554 -1.4836
 5305TIP3    H237331   0.235   2.772  12.608  0.1969 -0.7740 -2.8375
 5306TIP3   OH237332   1.921   3.640   2.698 -0.4396 -0.6564  0.3868
 5306TIP3    H137333   1.877   3.556   2.708  1.0365 -1.5425 -0.4430
 5306TIP3    H237334   2.004   3.619   2.656  0.3818  1.1044  1.0869
 5307TIP3   OH237335   4.055   2.126   1.073  0.2632  0.1541  0.2401
 5307TIP3    H137336   3.966   2.125   1.109 -0.6143  1.3666 -1.8427
 5307TIP3    H237337   4.070   2.036   1.047 -0.7519  0.1413 -0.3389
 5308TIP3   OH237338   4.388   6.748  11.029  0.5384  0.0939 -0.4373
 5308TIP3    H137339   4.412   6.816  10.966  1.7561  0.2424  0.1779
 5308TIP3    H237340   4.366   6.796  11.109  3.0686 -0.3003  0.5305
 5309TIP3   OH237341   2.121   4.892  12.342 -0.5440  0.0099  0.1487
 5309TIP3    H137342   2.126   4.834  12.265 -2.8624  1.7921 -1.4405
 5309TIP3    H237343   2.184   4.961  12.324 -0.1362 -0.2694  0.4928
 5310TIP3   OH237344   5.268   6.605  14.130 -0.1499 -0.4555  0.5622
 5310TIP3    H137345   5.257   6.626  14.223  1.3062  1.0910  0.4018
 5310TIP3    H237346   5.340   6.541  14.129  1.5562  1.4087  0.3314
 5311TIP3   OH237347   1.660   3.734   5.154 -0.3195  0.1057  0.2855
 5311TIP3    H137348   1.584   3.758   5.102  0.3238  0.2256 -0.6257
 5311TIP3    H237349   1.734   3.771   5.106  0.4221 -1.0705  0.4860
 5312TIP3   OH237350   1.028   5.084  14.679 -0.1687  0.3327  0.0460
 5312TIP3    H137351   1.120   5.064  14.660  0.0960  0.8400  0.8067
 5312TIP3    H237352   1.024   5.095  14.774 -1.4989 -2.2056  0.3563
 5313TIP3   OH237353   3.836   1.044   5.400 -0.1191 -0.0716  0.4321
 5313TIP3    H137354   3.787   1.126   5.410 -2.5582 -1.4653  0.2858
 5313TIP3    H237355   3.788   0.995   5.334  1.0567 -1.8363  0.8404
 5314TIP3   OH237356   4.991   3.753  11.265  0.0986  0.0525 -0.0398
 5314TIP3    H137357   4.958   3.760  11.354 -0.0518  0.4971 -0.1289
 5314TIP3    H237358   4.925   3.702  11.218  0.5452 -0.8342  0.2856
 5315TIP3   OH237359   3.745   5.963  16.197  0.2146  0.4377 -0.2318
 5315TIP3    H137360   3.754   6.036  16.259 -0.8964 -0.5314  1.0992
 5315TIP3    H237361   3.791   5.891  16.239 -0.5139 -0.2183 -0.5554
 5316TIP3   OH237362   6.296   4.939   2.463  0.1349  0.0933 -0.4453
 5316TIP3    H137363   6.380   4.928   2.508 -1.3539 -0.0190  2.4006
 5316TIP3    H237364   6.287   4.860   2.410  1.2978 -0.4083  0.0722
 5317TIP3   OH237365   1.856   5.371   2.624 -0.7055 -0.0392  0.8092
 5317TIP3    H137366   1.773   5.323   2.627  0.2036 -1.8305 -0.9883
 5317TIP3    H237367   1.866   5.395   2.532  0.4107  0.8091  1.1475
 5318TIP3   OH237368   2.918   2.388   0.885 -0.2716  0.1230 -0.5311
 5318TIP3    H137369   2.963   2.307   0.863 -0.7674  0.0751 -1.3795
 5318TIP3    H237370   2.843   2.361   0.938  0.5414  0.1854  0.6954
 5319TIP3   OH237371   5.776   0.836   3.115  0.7174 -0.8631  0.2034
 5319TIP3    H137372   5.798   0.925   3.143  0.3915 -0.4197 -0.9048
 5319TIP3    H237373   5.682   0.839   3.096  0.1158 -2.1882  2.8602
 5320TIP3   OH237374   3.371   2.457  14.140 -0.1809 -0.6948 -0.8591
 5320TIP3    H137375   3.385   2.552  14.144 -1.7056 -0.5678  2.1580
 5320TIP3    H237376   3.459   2.421  14.128  1.1880  0.8447  3.7111
 5321TIP3   OH237377   2.150   2.681   1.558 -0.0190 -0.1439 -0.5436
 5321TIP3    H137378   2.216   2.722   1.613  1.9486 -0.2574 -2.7179
 5321TIP3    H237379   2.175   2.589   1.556 -0.3349 -0.2148 -1.2550
 5322TIP3   OH237380   5.982   2.990  16.603 -0.3861 -0.1229  0.1307
 5322TIP3    H137381   6.002   3.017  16.693  2.0760  0.0811 -0.4308
 5322TIP3    H237382   6.006   2.897  16.601  1.2835  0.3054 -0.7656
 5323TIP3   OH237383   2.017   3.655   0.674  0.0532 -0.0124 -0.2024
 5323TIP3    H137384   1.997   3.611   0.756 -0.9302  2.1868  0.7829
 5323TIP3    H237385   2.078   3.725   0.699  0.0720  0.4104 -1.3936
 5324TIP3   OH237386   5.178   2.005   1.400 -0.2708  0.0964 -0.1599
 5324TIP3    H137387   5.221   2.091   1.400  2.6648 -1.2845  0.4950
 5324TIP3    H237388   5.162   1.987   1.307  2.2113 -0.0739 -0.6015
 5325TIP3   OH237389   2.219   4.365  11.590  0.1855 -0.3324 -0.8884
 5325TIP3    H137390   2.281   4.437  11.581  0.7159 -0.4997  1.2261
 5325TIP3    H237391   2.137   4.398  11.552  0.2956  1.5451  0.4566
 5326TIP3   OH237392   1.759   5.842  11.191 -0.4733 -0.1767  0.0760
 5326TIP3    H137393   1.790   5.880  11.108 -0.4756  1.6013  0.8719
 5326TIP3    H237394   1.726   5.755  11.166  0.1971  0.0404 -1.6653
 5327TIP3   OH237395   4.015   1.727  14.302  0.1373  0.3915  0.5682
 5327TIP3    H137396   4.008   1.818  14.331  1.2907  0.1014  1.8056
 5327TIP3    H237397   3.956   1.679  14.359 -0.5364  0.3644 -0.1417
 5328TIP3   OH237398   4.413   5.044  14.756 -0.8250 -0.1270  0.3374
 5328TIP3    H137399   4.466   5.009  14.827 -1.6811  1.4641  1.7925
 5328TIP3    H237400   4.353   4.973  14.732  0.2214 -1.0460  0.4231
 5329TIP3   OH237401   5.469   5.838   5.409  0.0030  0.1362  0.2174
 5329TIP3    H137402   5.510   5.807   5.329 -1.5606 -1.0886 -0.1587
 5329TIP3    H237403   5.521   5.913   5.436  1.4695 -0.3765 -1.1005
 5330TIP3   OH237404   5.697   5.440   3.893  0.4024 -0.6703 -0.0945
 5330TIP3    H137405   5.634   5.480   3.953 -0.6073 -1.7927 -0.3902
 5330TIP3    H237406   5.761   5.398   3.950  1.0991  0.7660  0.2104
 5331TIP3   OH237407   3.790   3.926  12.498  0.2780 -0.0597  0.3364
 5331TIP3    H137408   3.756   3.940  12.586 -0.3725 -2.3959  0.5097
 5331TIP3    H237409   3.751   3.996  12.446 -1.7716 -0.4227  1.3220
 5332TIP3   OH237410   3.236   0.319  14.413  0.0045 -0.6376  0.2795
 5332TIP3    H137411   3.206   0.244  14.360  0.7602  0.6231 -1.9827
 5332TIP3    H237412   3.185   0.312  14.494 -0.2358 -3.3693 -0.0351
 5333TIP3   OH237413   0.508   1.434   1.495 -0.1062 -0.0543 -0.2959
 5333TIP3    H137414   0.481   1.384   1.571 -2.2773  0.3310 -0.7926
 5333TIP3    H237415   0.519   1.369   1.426  2.6580 -0.5111  0.4907
 5334TIP3   OH237416   1.310   4.701   1.794 -0.2099 -0.5137 -0.1764
 5334TIP3    H137417   1.367   4.634   1.832 -0.4374 -0.4821  0.2179
 5334TIP3    H237418   1.238   4.710   1.856  0.3198  0.7972  0.2774
 5335TIP3   OH237419   3.925   2.611   0.548 -0.1098 -0.1299  0.1293
 5335TIP3    H137420   3.966   2.530   0.515  2.1851  0.9714  0.1975
 5335TIP3    H237421   3.834   2.585   0.567 -0.2828 -1.9251 -2.7651
 5336TIP3   OH237422   6.019   5.144   6.460 -0.4491  0.0036  0.3688
 5336TIP3    H137423   6.043   5.224   6.508 -2.4060  1.3344 -0.8089
 5336TIP3    H237424   5.924   5.137   6.472 -0.1926 -2.5860  1.0803
 5337TIP3   OH237425   0.616   1.011  14.468 -0.3819 -0.1564  0.2091
 5337TIP3    H137426   0.651   1.095  14.438 -0.2634  0.3932  1.8511
 5337TIP3    H237427   0.541   0.995  14.412 -2.4102  2.6641  2.0073
 5338TIP3   OH237428   3.134   5.997   6.614  0.2957  0.3183  0.4599
 5338TIP3    H137429   3.046   5.959   6.603  0.2509  0.4004  0.5369
 5338TIP3    H237430   3.119   6.080   6.659  0.2392  1.2017 -1.1261
 5339TIP3   OH237431   0.639   3.044  14.867 -0.1905  0.0966  0.3527
 5339TIP3    H137432   0.615   2.952  14.873  0.3689 -0.1512 -1.0535
 5339TIP3    H237433   0.560   3.091  14.895 -0.7665 -0.7985  0.2508
 5340TIP3   OH237434   5.629   1.542   3.491  0.0326 -0.5575  0.4358
 5340TIP3    H137435   5.662   1.604   3.426  0.2687 -1.1921 -0.0549
 5340TIP3    H237436   5.707   1.511   3.537 -0.1785  0.2734  1.3785
 5341TIP3   OH237437   4.425   6.518  15.934  0.5409 -0.2971  0.1280
 5341TIP3    H137438   4.392   6.429  15.950  1.2234 -0.3855  1.0333
 5341TIP3    H237439   4.487   6.534  16.004  1.0928  0.5678 -0.5481
 5342TIP3   OH237440   5.964   3.096  10.837 -0.1995 -0.2552  0.0921
 5342TIP3    H137441   5.924   3.014  10.867  0.3438 -0.4580  0.2579
 5342TIP3    H237442   5.919   3.115  10.754  0.3207 -1.2065 -0.4068
 5343TIP3   OH237443   3.119   6.042  13.748  0.4842 -0.3532 -0.0558
 5343TIP3    H137444   3.151   5.990  13.675  1.5664  0.9875 -0.5446
 5343TIP3    H237445   3.173   6.121  13.748 -1.7933  1.2578  0.0401
 5344TIP3   OH237446   4.068   0.640   5.582 -0.8909 -0.2418  0.4319
 5344TIP3    H137447   4.042   0.671   5.496 -0.5661 -0.1430  0.3671
 5344TIP3    H237448   4.065   0.717   5.638 -1.2895 -0.3439  0.5547
 5345TIP3   OH237449   4.703   6.018   5.968 -0.4008  0.2423 -0.4671
 5345TIP3    H137450   4.729   6.012   6.060 -1.9720 -4.2948 -0.1786
 5345TIP3    H237451   4.620   6.066   5.969 -1.1556 -1.0553  0.6928
 5346TIP3   OH237452   2.783   2.179  11.204  0.2132  0.4456 -0.1032
 5346TIP3    H137453   2.689   2.166  11.193 -0.0322  1.2102  1.0342
 5346TIP3    H237454   2.812   2.217  11.121 -0.4137 -0.0734 -0.5698
 5347TIP3   OH237455   4.479   5.954   3.669  0.1638  0.3860 -0.1308
 5347TIP3    H137456   4.542   5.935   3.600 -1.8169 -0.4036 -1.7673
 5347TIP3    H237457   4.443   5.869   3.693 -0.4934  0.8609  0.5986
 5348TIP3   OH237458   6.645   5.583  12.327 -0.3166 -0.9677 -0.1452
 5348TIP3    H137459   6.687   5.499  12.345 -0.3344 -0.9762 -0.1413
 5348TIP3    H237460   6.604   5.572  12.241 -1.2096 -1.3152  0.3175
 5349TIP3   OH237461   5.819   2.757   1.244 -0.2857 -0.0166 -0.2042
 5349TIP3    H137462   5.789   2.847   1.257  0.7138  0.0759  1.7071
 5349TIP3    H237463   5.755   2.719   1.184 -0.9903  1.8222 -0.6572
 5350TIP3   OH237464   1.908   6.400   1.343 -0.1769  0.3332  0.6417
 5350TIP3    H137465   1.954   6.483   1.328  0.2610  0.1551  1.0038
 5350TIP3    H237466   1.834   6.402   1.281  0.0199  0.8454  0.4215
 5351TIP3   OH237467   0.241   0.612   5.618  0.0185 -0.3752 -0.0619
 5351TIP3    H137468   0.295   0.689   5.599 -2.5581  1.5934  0.3380
 5351TIP3    H237469   0.263   0.550   5.548  2.1233  0.7165 -0.4069
 5352TIP3   OH237470   3.794   3.037  10.933 -0.3697 -0.7492 -0.2007
 5352TIP3    H137471   3.878   3.075  10.905 -0.7418  0.9764  0.9659
 5352TIP3    H237472   3.777   3.076  11.018 -2.9364 -0.2124 -0.9206
 5353TIP3   OH237473   1.453   5.605  12.004  0.1621 -0.3764 -0.3864
 5353TIP3    H137474   1.383   5.669  12.020  1.2878  0.8654 -0.3348
 5353TIP3    H237475   1.514   5.618  12.077  2.1482  0.9225 -2.2252
 5354TIP3   OH237476   0.848   4.376  17.046 -0.0455 -0.3344  0.3712
 5354TIP3    H137477   0.804   4.401  16.965 -1.3924 -2.1794  0.5137
 5354TIP3    H237478   0.796   4.417  17.115 -1.4587 -2.3314  0.5282
 5355TIP3   OH237479   1.369   5.578   1.632 -0.7210 -0.1860 -0.4183
 5355TIP3    H137480   1.384   5.604   1.541  0.5927 -0.0613 -0.1835
 5355TIP3    H237481   1.290   5.625   1.658 -0.0325  1.2705 -0.9134
 5356TIP3   OH237482   1.831   5.214   0.139  0.1980  0.5020 -0.4109
 5356TIP3    H137483   1.871   5.250   0.218  1.7043 -1.1269 -0.4118
 5356TIP3    H237484   1.868   5.266   0.067  0.1501  0.8549 -0.1780
 5357TIP3   OH237485   0.707   1.591  12.164 -0.0795  0.3241 -0.0437
 5357TIP3    H137486   0.693   1.514  12.108 -2.4136 -0.8164  1.9985
 5357TIP3    H237487   0.750   1.654  12.107  1.2306 -2.2248 -1.9841
 5358TIP3   OH237488   3.659   6.763  10.816 -0.1363  0.1573 -0.1814
 5358TIP3    H137489   3.624   6.684  10.856 -1.6454  0.2456 -1.3076
 5358TIP3    H237490   3.753   6.747  10.811 -0.3522 -1.2907  0.1885
 5359TIP3   OH237491   2.605   0.822   3.316  0.3803 -0.0712 -0.1312
 5359TIP3    H137492   2.512   0.799   3.315 -0.0699  1.6694 -1.1390
 5359TIP3    H237493   2.618   0.870   3.234  2.0477  0.1519  0.2569
 5360TIP3   OH237494   5.464   2.860  14.789  0.2067 -0.7346 -0.4333
 5360TIP3    H137495   5.461   2.953  14.811  1.3016 -0.0499 -2.9691
 5360TIP3    H237496   5.529   2.823  14.849 -0.2570  0.0901  0.6040
 5361TIP3   OH237497   6.291   2.768   2.623 -0.0723  0.6165  0.4456
 5361TIP3    H137498   6.310   2.860   2.604 -0.2237  0.8879  1.5540
 5361TIP3    H237499   6.229   2.742   2.556  2.0509  0.5189 -1.5438
 5362TIP3   OH237500   6.594   4.192  15.356  0.2054 -0.5454 -0.0853
 5362TIP3    H137501   6.649   4.115  15.341  0.3155 -0.6548  0.8559
 5362TIP3    H237502   6.546   4.173  15.436  0.0464  0.2605  0.0225
 5363TIP3   OH237503   1.862   4.370  12.746  0.1384  0.1656 -0.2870
 5363TIP3    H137504   1.957   4.378  12.747 -0.0262  2.4760  1.1150
 5363TIP3    H237505   1.834   4.426  12.674 -0.2507  1.1241  0.5932
 5364TIP3   OH237506   0.241   1.576   1.430 -0.0328 -0.0629 -0.0525
 5364TIP3    H137507   0.228   1.576   1.335  1.9746 -0.1139 -0.3608
 5364TIP3    H237508   0.325   1.533   1.443  0.7460  1.8138  1.5847
 5365TIP3   OH237509   0.613   6.567  16.042 -0.0679 -0.5939 -0.2731
 5365TIP3    H137510   0.539   6.625  16.057  1.1577  0.7338  0.8259
 5365TIP3    H237511   0.607   6.545  15.949 -2.5290 -1.5217  0.0863
 5366TIP3   OH237512   3.281   0.868  16.698  0.0830 -0.0152 -0.9339
 5366TIP3    H137513   3.270   0.943  16.639  0.4777  1.2218  0.5238
 5366TIP3    H237514   3.194   0.855  16.735  0.2107  0.2992 -0.5194
 5367TIP3   OH237515   6.768   1.065  15.739 -0.1183  1.0695 -0.5905
 5367TIP3    H137516   6.773   1.132  15.807  1.1214  0.3215  0.0634
 5367TIP3    H237517   6.739   1.112  15.661 -1.2986  1.9823  0.3762
 5368TIP3   OH237518   1.367   3.160   1.767 -0.1061  0.3305  0.2100
 5368TIP3    H137519   1.443   3.108   1.791  0.9612  1.6123 -0.3750
 5368TIP3    H237520   1.364   3.232   1.830 -0.3661  0.7322 -0.2502
 5369TIP3   OH237521   6.240   5.081   2.699 -0.1036  0.1298  0.2582
 5369TIP3    H137522   6.243   5.028   2.620 -0.0472 -1.8057  1.5149
 5369TIP3    H237523   6.310   5.045   2.754 -1.1511  0.4005  1.8069
 5370TIP3   OH237524   6.336   6.588  16.560 -0.2395 -0.0302 -0.2221
 5370TIP3    H137525   6.429   6.612  16.557  0.1206 -1.4958 -1.2079
 5370TIP3    H237526   6.296   6.640  16.490  0.2897 -1.2202 -1.4299
 5371TIP3   OH237527   2.512   6.671  16.028 -0.2154  0.0859  0.1967
 5371TIP3    H137528   2.432   6.694  16.076  0.9664  1.7990  1.4183
 5371TIP3    H237529   2.485   6.600  15.969 -2.4700  0.1752  1.0540
 5372TIP3   OH237530   5.298   1.145  15.449 -0.1712 -0.5347  0.2300
 5372TIP3    H137531   5.389   1.121  15.436 -0.1675 -1.7064  2.1297
 5372TIP3    H237532   5.297   1.241  15.448  0.4893 -0.5028 -3.2962
 5373TIP3   OH237533   4.482   1.180   5.189 -0.6515 -0.4889  0.2635
 5373TIP3    H137534   4.486   1.192   5.094  0.0331  1.0766  0.4910
 5373TIP3    H237535   4.390   1.194   5.211 -0.6231  0.1827 -0.0330
 5374TIP3   OH237536   0.980   1.654  15.807 -0.4825 -0.1286  0.5020
 5374TIP3    H137537   1.046   1.609  15.754  0.7129  3.1471 -0.8778
 5374TIP3    H237538   0.910   1.589  15.817  0.2733 -1.6333 -3.1416
 5375TIP3   OH237539   6.047   1.748  14.269 -0.2379  0.6749  0.0897
 5375TIP3    H137540   6.083   1.750  14.180 -0.6317 -0.1854 -0.0943
 5375TIP3    H237541   6.039   1.655  14.289 -0.4441  0.8722  0.9087
 5376TIP3   OH237542   4.856   5.805   2.800  0.3589  0.4535  0.1268
 5376TIP3    H137543   4.782   5.786   2.858  0.1037  0.6625 -0.1306
 5376TIP3    H237544   4.933   5.793   2.856  0.1131  0.6419  0.5101
 5377TIP3   OH237545   3.473   3.773  13.596 -0.3422  0.3428 -0.4834
 5377TIP3    H137546   3.527   3.793  13.673  1.1061  1.2214 -1.7095
 5377TIP3    H237547   3.533   3.735  13.533 -1.2403  0.9459 -1.7227
 5378TIP3   OH237548   3.386   3.092  12.335  0.0474  0.3070  0.1337
 5378TIP3    H137549   3.376   3.183  12.364  0.9844  1.2470 -2.3721
 5378TIP3    H237550   3.306   3.074  12.285  0.4205  0.1440 -0.4008
 5379TIP3   OH237551   1.202   5.129  13.505 -0.3035 -0.1012 -0.2409
 5379TIP3    H137552   1.114   5.160  13.523 -0.9796 -2.3156  0.4489
 5379TIP3    H237553   1.205   5.116  13.411 -0.5040  0.5936 -0.3430
 5380TIP3   OH237554   4.490   5.241  11.690  0.2523 -0.2224  0.0812
 5380TIP3    H137555   4.528   5.165  11.734 -1.8111 -0.1981  2.0246
 5380TIP3    H237556   4.557   5.309  11.697  1.3745 -1.2924 -0.0294
 5381TIP3   OH237557   1.904   5.404   2.227  0.0018  0.2063  0.3037
 5381TIP3    H137558   1.904   5.492   2.191  0.9477  0.1303  0.1120
 5381TIP3    H237559   1.811   5.382   2.237 -0.3389 -0.0806 -2.8765
 5382TIP3   OH237560   6.658   5.061  15.844 -0.0475 -0.1796  0.5597
 5382TIP3    H137561   6.695   4.973  15.856 -1.3894 -1.0860 -1.6114
 5382TIP3    H237562   6.651   5.070  15.749 -0.6273  1.9915  0.7982
 5383TIP3   OH237563   5.125   1.319  11.489 -0.0074 -0.5833 -0.1478
 5383TIP3    H137564   5.069   1.365  11.550 -0.3220  0.6660 -1.3666
 5383TIP3    H237565   5.192   1.382  11.465 -0.4577 -0.7292 -1.8538
 5384TIP3   OH237566   4.921   5.787  11.558  0.3477 -1.0296  1.0495
 5384TIP3    H137567   4.881   5.736  11.488  2.0064  1.1376 -1.5389
 5384TIP3    H237568   4.868   5.866  11.563  1.6845 -0.0877  0.5680
 5385TIP3   OH237569   1.866   2.148   5.085  0.2841 -0.1921  0.1421
 5385TIP3    H137570   1.832   2.210   5.149 -0.2663 -1.2794  0.9233
 5385TIP3    H237571   1.797   2.140   5.020 -0.3323 -1.1896  0.8925
 5386TIP3   OH237572   1.149   4.075  13.409  0.4296 -0.1821 -0.1959
 5386TIP3    H137573   1.196   4.145  13.363  2.3996 -0.4321  1.3314
 5386TIP3    H237574   1.083   4.121  13.462  0.7038  0.4089 -0.3634
 5387TIP3   OH237575   2.154   4.424  13.451 -0.3083 -0.1764  0.0945
 5387TIP3    H137576   2.196   4.369  13.517 -2.2724 -2.0851 -0.1867
 5387TIP3    H237577   2.203   4.506  13.453  1.0487 -1.0047  2.3607
 5388TIP3   OH237578   4.160   1.194   0.495  0.0958  0.0788  0.3769
 5388TIP3    H137579   4.065   1.203   0.500 -0.1397 -2.2082  0.4965
 5388TIP3    H237580   4.183   1.232   0.410 -0.9258  0.5215  0.2868
 5389TIP3   OH237581   2.596   2.256  12.501  0.0536 -0.0721 -0.1626
 5389TIP3    H137582   2.642   2.196  12.559  0.4076 -1.2615 -1.6548
 5389TIP3    H237583   2.657   2.329  12.488  0.7329 -0.7133 -0.5740
 5390TIP3   OH237584   0.806   6.605   3.097  0.1817  0.2405 -0.2593
 5390TIP3    H137585   0.868   6.567   3.035  0.3540  0.4600 -0.2216
 5390TIP3    H237586   0.770   6.681   3.052 -0.4317 -0.1733 -0.4731
 5391TIP3   OH237587   3.510   5.102   0.933 -0.1660 -0.3728  0.4255
 5391TIP3    H137588   3.504   5.007   0.936 -3.3129 -0.2652 -0.9412
 5391TIP3    H237589   3.533   5.122   0.842 -0.8385  0.2295  0.3839
 5392TIP3   OH237590   0.529   6.017   5.685  0.7515  0.0407  0.3489
 5392TIP3    H137591   0.577   6.057   5.757  1.0754 -2.6525  1.6899
 5392TIP3    H237592   0.597   5.984   5.626  0.5637 -2.1388  1.3205
 5393TIP3   OH237593   5.968   0.628   1.621 -0.3108 -0.0392  0.0682
 5393TIP3    H137594   5.926   0.639   1.536 -4.0115  0.4052  1.8789
 5393TIP3    H237595   5.984   0.717   1.652 -0.9516 -0.1832  0.8006
 5394TIP3   OH237596   5.468   5.052  11.176  0.4229  0.5016  0.5217
 5394TIP3    H137597   5.418   5.041  11.095  0.8186 -1.9317  0.5655
 5394TIP3    H237598   5.401   5.071  11.243 -0.1934 -0.3430  0.1492
 5395TIP3   OH237599   4.209   4.480   4.018 -0.0299  0.0178 -0.5207
 5395TIP3    H137600   4.256   4.475   4.102 -1.4663  0.1366  0.2979
 5395TIP3    H237601   4.192   4.574   4.007 -0.9665 -0.1305 -0.3190
 5396TIP3   OH237602   4.786   2.394   5.735 -0.0702 -0.2387  0.2033
 5396TIP3    H137603   4.831   2.415   5.653 -1.3102  0.0118 -0.4408
 5396TIP3    H237604   4.757   2.304   5.724 -0.9516  0.0570  0.0101
 5397TIP3   OH237605   3.675   6.485  13.415  0.1482  0.0523  0.2659
 5397TIP3    H137606   3.733   6.560  13.428 -2.3604  2.0064  0.5202
 5397TIP3    H237607   3.599   6.503  13.470 -1.9911 -1.0265 -2.2069
 5398TIP3   OH237608   4.352   1.529   2.201  0.2190  0.8247  0.3676
 5398TIP3    H137609   4.338   1.490   2.115 -0.6744  1.7296  0.0973
 5398TIP3    H237610   4.264   1.544   2.236  0.5683 -0.4420  1.8614
 5399TIP3   OH237611   4.263   2.513  16.687  0.0851 -0.4426  0.5328
 5399TIP3    H137612   4.183   2.473  16.721 -0.0250 -0.2589  0.4895
 5399TIP3    H237613   4.334   2.468  16.733  0.1080 -3.0365 -1.9795
 5400TIP3   OH237614   4.510   5.275  12.786  0.3202 -0.0474  0.1533
 5400TIP3    H137615   4.503   5.180  12.788  0.2895 -0.0389  0.4345
 5400TIP3    H237616   4.486   5.303  12.874  0.1917  0.2299  0.0308
 5401TIP3   OH237617   5.829   4.107  13.183  0.1411 -0.0517  0.4889
 5401TIP3    H137618   5.877   4.103  13.266  1.7809  0.2931 -0.4063
 5401TIP3    H237619   5.819   4.201  13.166 -1.0921 -0.1245  0.7936
 5402TIP3   OH237620   4.465   5.556  14.847  0.6331 -0.8802  0.2098
 5402TIP3    H137621   4.395   5.547  14.782  0.5461 -0.9796  0.3178
 5402TIP3    H237622   4.489   5.649  14.843  0.5380 -0.8586  0.1297
 5403TIP3   OH237623   0.667   4.512   0.327 -0.1296  0.5525  0.4542
 5403TIP3    H137624   0.587   4.558   0.350  0.1326  0.7990  0.8661
 5403TIP3    H237625   0.659   4.496   0.233 -0.7155  0.4690  0.5151
 5404TIP3   OH237626   3.707   1.344  12.340 -0.7217  0.0060  0.3297
 5404TIP3    H137627   3.734   1.273  12.282 -1.1398  1.7884 -2.1315
 5404TIP3    H237628   3.789   1.386  12.366 -0.5827 -0.2505  0.3083
 5405TIP3   OH237629   2.092   4.686  16.070 -0.5554 -0.5492  0.2037
 5405TIP3    H137630   2.045   4.604  16.052 -1.6721 -0.1457  1.1498
 5405TIP3    H237631   2.022   4.749  16.086  0.3004  0.6527 -0.7516
 5406TIP3   OH237632   0.924   4.725  14.585 -0.0881  0.7846  0.5165
 5406TIP3    H137633   0.914   4.640  14.629  2.0162 -0.0561 -0.5463
 5406TIP3    H237634   0.966   4.781  14.650  2.8056 -0.3845 -0.2725
 5407TIP3   OH237635   0.393   3.044  13.083 -0.3665 -0.5685  0.7267
 5407TIP3    H137636   0.332   3.046  13.009  0.1569 -0.4474  0.2958
 5407TIP3    H237637   0.441   3.127  13.077  1.3037 -1.5927 -0.1690
 5408TIP3   OH237638   6.449   1.079   3.769  0.2823 -0.3610 -0.0015
 5408TIP3    H137639   6.439   1.109   3.678  1.2102 -2.5774 -0.8867
 5408TIP3    H237640   6.395   1.000   3.774 -2.4783  1.5825  2.3922
 5409TIP3   OH237641   2.612   1.262  10.449 -0.6138  0.1037  0.0386
 5409TIP3    H137642   2.545   1.328  10.465 -1.0757 -0.2789 -0.2735
 5409TIP3    H237643   2.579   1.183  10.491 -1.3068 -0.6025 -1.7999
 5410TIP3   OH237644   3.586   6.324  17.039  0.1634  0.2341 -0.0326
 5410TIP3    H137645   3.616   6.300  16.951 -0.9284 -1.6891  0.0968
 5410TIP3    H237646   3.645   6.277  17.098  0.2432  0.7104  0.2717
 5411TIP3   OH237647   2.426   3.608  11.654  0.1695 -0.1145  0.1680
 5411TIP3    H137648   2.425   3.596  11.559  0.2364 -0.8779  0.2587
 5411TIP3    H237649   2.464   3.527  11.688 -2.0981 -0.8823  0.9850
 5412TIP3   OH237650   3.893   5.988   4.778 -1.0529 -0.1306  0.3771
 5412TIP3    H137651   3.927   6.069   4.815 -0.8955 -0.4691  0.9646
 5412TIP3    H237652   3.823   5.962   4.838 -0.8039 -0.6723  0.4264
 5413TIP3   OH237653   2.119   1.614  11.614 -0.8399 -0.2104  0.3731
 5413TIP3    H137654   2.210   1.591  11.631 -0.9653 -1.1289 -0.1802
 5413TIP3    H237655   2.095   1.562  11.537 -1.3294  1.2490 -0.4772
 5414TIP3   OH237656   3.820   5.346   0.411 -0.6496  0.0255 -0.2318
 5414TIP3    H137657   3.910   5.369   0.431 -0.5289  0.1824 -0.9228
 5414TIP3    H237658   3.768   5.391   0.477 -0.3041  0.9897 -0.6019
 5415TIP3   OH237659   4.473   2.324  12.872  0.7334 -0.2833  0.2195
 5415TIP3    H137660   4.567   2.307  12.877  0.7541 -0.5302 -0.8140
 5415TIP3    H237661   4.438   2.249  12.823 -0.2340 -1.0073  2.0033
 5416TIP3   OH237662   4.296   3.132  12.974 -0.5684 -0.2735 -0.5198
 5416TIP3    H137663   4.240   3.101  12.902 -2.0642  0.0798  0.4825
 5416TIP3    H237664   4.360   3.062  12.984  1.2091  0.7466 -3.8069
 5417TIP3   OH237665   6.122   1.779   6.155 -0.5428  0.1847  0.3058
 5417TIP3    H137666   6.051   1.725   6.189  0.4638 -0.3800  1.5775
 5417TIP3    H237667   6.199   1.749   6.203  0.5051  0.9642 -0.8602
 5418TIP3   OH237668   2.259   3.977   5.641  0.1260 -0.1636  0.1127
 5418TIP3    H137669   2.211   3.946   5.717  2.2982  1.2335  2.1498
 5418TIP3    H237670   2.347   3.940   5.651  0.8228  1.1438 -0.9642
 5419TIP3   OH237671   1.566   1.200   3.510  0.2188 -0.2824 -0.1430
 5419TIP3    H137672   1.649   1.170   3.473  0.2552  0.4278 -0.6418
 5419TIP3    H237673   1.535   1.126   3.563  0.1832 -1.2899 -1.5515
 5420TIP3   OH237674   2.020   0.793   4.605  0.1306 -0.3311 -1.0602
 5420TIP3    H137675   2.065   0.842   4.674  2.3455 -1.3901 -1.7046
 5420TIP3    H237676   2.003   0.858   4.537  2.1378 -0.2144 -1.4792
 5421TIP3   OH237677   4.601   2.444  14.796  0.2983 -0.5477  0.1158
 5421TIP3    H137678   4.520   2.459  14.748 -0.1398  1.2493  1.3619
 5421TIP3    H237679   4.574   2.440  14.888  1.5011 -0.8172  0.4665
 5422TIP3   OH237680   0.337   3.700  11.866  0.1381 -0.7276 -0.1589
 5422TIP3    H137681   0.363   3.786  11.900 -1.5692 -0.4017  0.3978
 5422TIP3    H237682   0.370   3.638  11.931  1.1422 -0.4791 -0.4203
 5423TIP3   OH237683   3.621   0.719   0.388  0.0568 -0.2704 -0.3876
 5423TIP3    H137684   3.671   0.678   0.318  0.0617  1.6131 -1.5246
 5423TIP3    H237685   3.637   0.664   0.464  2.2180 -0.8237 -1.2105
 5424TIP3   OH237686   4.046   3.439   3.840  0.3234 -0.3870 -0.1155
 5424TIP3    H137687   4.081   3.516   3.884  1.7399 -0.1042 -1.6761
 5424TIP3    H237688   3.961   3.467   3.806 -0.9279 -0.6961  2.6077
 5425TIP3   OH237689   2.262   1.229   5.770  0.3390 -0.3566  0.1432
 5425TIP3    H137690   2.167   1.229   5.783  0.3146 -2.8491  0.1678
 5425TIP3    H237691   2.297   1.276   5.846 -0.9589  2.4073 -0.9069
 5426TIP3   OH237692   3.118   1.048  12.122  0.1817 -0.0723  0.1028
 5426TIP3    H137693   3.035   1.061  12.076  0.6494 -0.1577 -0.7851
 5426TIP3    H237694   3.134   1.131  12.166  0.8215  0.8150 -1.7206
 5427TIP3   OH237695   1.879   4.493  13.594 -0.3318 -0.2033  0.0531
 5427TIP3    H137696   1.955   4.487  13.536  0.0300  0.2760  0.4607
 5427TIP3    H237697   1.883   4.414  13.648 -0.9298 -0.8758 -0.8754
 5428TIP3   OH237698   4.472   1.260  12.606 -0.3691 -0.2975  0.0055
 5428TIP3    H137699   4.492   1.205  12.530 -0.0239 -1.0642  0.6509
 5428TIP3    H237700   4.469   1.199  12.680  1.8085  0.7812  1.0220
 5429TIP3   OH237701   3.247   4.224   4.180 -0.5196  0.1339 -0.0911
 5429TIP3    H137702   3.276   4.157   4.241 -2.1988  0.7506  1.4098
 5429TIP3    H237703   3.206   4.175   4.108  0.8756 -0.5580 -0.4322
 5430TIP3   OH237704   1.382   4.923  14.952 -0.9500 -0.0129  0.0492
 5430TIP3    H137705   1.415   4.837  14.924 -1.2272 -0.1411  0.1058
 5430TIP3    H237706   1.456   4.964  14.996 -0.7229 -0.0996 -0.2510
 5431TIP3   OH237707   3.923   5.672   4.437 -0.1232 -0.7299 -0.2368
 5431TIP3    H137708   3.981   5.636   4.504 -0.1612 -0.4133 -0.0309
 5431TIP3    H237709   3.897   5.757   4.472  0.6878 -0.1133 -1.1255
 5432TIP3   OH237710   3.053   2.230   2.127 -0.4526  0.1122  0.1011
 5432TIP3    H137711   3.089   2.142   2.139  1.1391  0.5967 -0.8766
 5432TIP3    H237712   3.107   2.286   2.183 -1.1441  0.5289  0.3532
 5433TIP3   OH237713   5.879   4.246  14.088 -0.5401  0.5380 -0.3365
 5433TIP3    H137714   5.809   4.253  14.023 -0.2779 -0.7664 -0.7723
 5433TIP3    H237715   5.872   4.157  14.122 -0.4698  1.0999  1.2087
 5434TIP3   OH237716   0.404   5.046  11.862  0.0487  0.1505 -0.0407
 5434TIP3    H137717   0.488   5.008  11.884  0.1196  0.0860 -0.4209
 5434TIP3    H237718   0.372   4.995  11.788 -0.5270 -0.1079  0.3784
 5435TIP3   OH237719   0.024   0.496  15.359 -0.1201 -0.3616  0.4006
 5435TIP3    H137720  -0.067   0.480  15.386 -0.6342 -0.6100 -1.4208
 5435TIP3    H237721   0.020   0.497  15.263  1.8128 -0.4122  0.3177
 5436TIP3   OH237722   0.214   1.051  15.638  0.4796 -0.7142 -0.1556
 5436TIP3    H137723   0.126   1.068  15.674  0.2819 -0.9564 -0.5295
 5436TIP3    H237724   0.200   0.988  15.568  1.0468 -1.3157  0.2712
 5437TIP3   OH237725   4.445   4.017   2.038  0.3696  0.3338  0.2997
 5437TIP3    H137726   4.525   4.021   2.090 -0.4379  1.9153  1.4611
 5437TIP3    H237727   4.462   4.074   1.963  0.1310  1.1190  0.8395
 5438TIP3   OH237728   5.845   6.359   3.476 -0.3646  0.0525  0.6845
 5438TIP3    H137729   5.846   6.324   3.565 -0.9239 -2.3182 -0.2214
 5438TIP3    H237730   5.925   6.412   3.471  0.9078 -1.6713  1.8849
 5439TIP3   OH237731   1.729   3.448  14.629  0.3755 -0.3989 -0.0019
 5439TIP3    H137732   1.646   3.454  14.677  1.6281 -2.0829  2.5204
 5439TIP3    H237733   1.704   3.444  14.537 -2.2524  0.8061  0.6245
 5440TIP3   OH237734   4.663   2.661   4.500 -0.0617 -0.1147 -0.0852
 5440TIP3    H137735   4.744   2.708   4.484  0.7897 -1.4194  0.2852
 5440TIP3    H237736   4.614   2.716   4.561  0.2762  0.9481 -0.7531
 5441TIP3   OH237737   5.528   5.920  16.233 -0.0784 -0.3655  0.0449
 5441TIP3    H137738   5.533   5.949  16.324  3.2776  0.9772 -0.4867
 5441TIP3    H237739   5.539   6.000  16.181 -1.9078 -1.1215 -1.5647
 5442TIP3   OH237740   5.193   3.636   2.657  0.0689 -0.2385  0.1652
 5442TIP3    H137741   5.160   3.630   2.746  0.2847 -0.8313  0.2032
 5442TIP3    H237742   5.282   3.604   2.662 -0.5235 -2.0650 -0.6073
 5443TIP3   OH237743   5.204   0.519   4.087 -0.2099  0.4190 -0.1410
 5443TIP3    H137744   5.135   0.493   4.148 -0.6676  0.5607 -0.5941
 5443TIP3    H237745   5.195   0.459   4.013  1.1095 -0.5241  0.4548
 5444TIP3   OH237746   2.893   1.380  12.412  0.1887 -0.4190  0.0530
 5444TIP3    H137747   2.901   1.465  12.455 -1.1942  0.0694 -0.6215
 5444TIP3    H237748   2.896   1.316  12.483 -0.0388  0.2678  0.6842
 5445TIP3   OH237749   1.317   0.424   1.333 -0.0562  0.4643  0.3707
 5445TIP3    H137750   1.243   0.485   1.328 -1.2968 -0.9464  1.0178
 5445TIP3    H237751   1.338   0.404   1.242  2.6938  4.5469 -0.0005
 5446TIP3   OH237752   5.970   5.065  11.891  0.5540 -0.2806 -0.2744
 5446TIP3    H137753   5.959   5.086  11.798  1.9533 -0.8988 -0.5836
 5446TIP3    H237754   6.011   5.143  11.929  0.0593 -0.0609 -0.1841
 5447TIP3   OH237755   6.643   0.583   0.555 -0.1860 -0.4167  0.2852
 5447TIP3    H137756   6.666   0.505   0.503  1.3555 -0.2009  0.6290
 5447TIP3    H237757   6.686   0.569   0.639 -2.5745 -0.7083  1.5030
 5448TIP3   OH237758   6.168   4.638   0.819  0.2740 -0.3239  0.3243
 5448TIP3    H137759   6.184   4.546   0.842 -0.6682 -0.2862  1.1477
 5448TIP3    H237760   6.219   4.687   0.884 -0.3489 -0.2486  0.7569
 5449TIP3   OH237761   2.270   0.951  15.237 -0.2367 -0.2093  0.1879
 5449TIP3    H137762   2.189   1.000  15.228 -0.1076 -0.1871 -0.9113
 5449TIP3    H237763   2.248   0.862  15.209 -0.5819 -0.9230  2.5835
 5450TIP3   OH237764   0.432   0.917  17.066 -0.3252  0.0504 -0.5931
 5450TIP3    H137765   0.503   0.853  17.056 -0.3075 -0.0059 -0.1082
 5450TIP3    H237766   0.372   0.876  17.128 -0.7829  0.0977 -1.0048
 5451TIP3   OH237767   0.350   1.770   2.555 -0.3572 -0.4834  0.7383
 5451TIP3    H137768   0.347   1.817   2.471  0.2600 -1.0201  0.4120
 5451TIP3    H237769   0.433   1.722   2.553 -0.8872 -1.4373  1.1510
 5452TIP3   OH237770   2.807   1.986   5.125 -0.1809 -0.3462 -0.2542
 5452TIP3    H137771   2.759   2.046   5.184  0.2409  0.2597 -0.5192
 5452TIP3    H237772   2.774   1.899   5.147  2.0373 -0.4711  2.9287
 5453TIP3   OH237773   2.627   0.026  13.739 -0.1580 -0.4834 -0.4080
 5453TIP3    H137774   2.679   0.094  13.696 -1.5749  0.5162 -0.6066
 5453TIP3    H237775   2.552   0.014  13.680 -1.0168 -0.6589  0.7073
 5454TIP3   OH237776   0.712   3.267  11.251  0.3748  0.4527 -0.1334
 5454TIP3    H137777   0.633   3.295  11.204  0.2633  0.2347 -0.0783
 5454TIP3    H237778   0.731   3.340  11.310 -0.5927 -0.0771  0.8521
 5455TIP3   OH237779   2.067   6.279  11.935  0.1308 -0.0649  0.0709
 5455TIP3    H137780   2.077   6.370  11.961  0.0105 -0.2267  0.6785
 5455TIP3    H237781   2.145   6.235  11.968 -0.2434 -0.3611  0.5608
 5456TIP3   OH237782   5.019   1.003   3.559 -0.2643 -0.1285  0.6332
 5456TIP3    H137783   4.999   1.051   3.478 -0.2254 -0.3982  0.4637
 5456TIP3    H237784   5.114   0.994   3.558 -0.4206 -1.8416 -0.2694
 5457TIP3   OH237785   6.621   5.473   2.231 -0.1800  0.1951 -0.0230
 5457TIP3    H137786   6.631   5.455   2.137  2.6264  1.7253 -0.0906
 5457TIP3    H237787   6.656   5.395   2.274  0.0063  0.1553 -0.2474
 5458TIP3   OH237788   1.242   3.483  15.029  0.1399  0.5968 -0.3150
 5458TIP3    H137789   1.174   3.428  14.989 -0.4294  0.9493  0.1690
 5458TIP3    H237790   1.252   3.448  15.117  0.4335  0.6902 -0.3092
 5459TIP3   OH237791   4.335   0.935  11.599 -0.1643 -0.1967 -0.3546
 5459TIP3    H137792   4.427   0.910  11.585  0.4268  1.3286  0.7218
 5459TIP3    H237793   4.307   0.883  11.673  0.9106  1.8403  1.5523
 5460TIP3   OH237794   5.800   4.673   0.612  0.1460  0.2889  0.3038
 5460TIP3    H137795   5.821   4.598   0.667  1.4386 -0.6581 -1.4542
 5460TIP3    H237796   5.744   4.637   0.543 -1.4945  1.4705  0.9884
 5461TIP3   OH237797   1.790   1.735   1.975  0.0252  0.0563 -0.2496
 5461TIP3    H137798   1.882   1.745   1.997  0.4897  2.0722 -2.8193
 5461TIP3    H237799   1.764   1.652   2.015  2.6064  0.0701  1.5471
 5462TIP3   OH237800   4.583   0.370  14.633  0.1163 -0.3166  0.0699
 5462TIP3    H137801   4.517   0.372  14.564 -0.6266 -2.0912  0.7188
 5462TIP3    H237802   4.539   0.407  14.710  1.0471  1.9782 -0.4520
 5463TIP3   OH237803   0.662   0.229   2.329 -0.0150 -0.5066  0.2879
 5463TIP3    H137804   0.600   0.264   2.265  0.5417 -0.9862 -0.5396
 5463TIP3    H237805   0.620   0.149   2.361  0.5716 -1.3596 -0.9933
 5464TIP3   OH237806   3.854   3.191  14.642  0.0147  0.1818  0.6208
 5464TIP3    H137807   3.773   3.234  14.668 -0.2931  0.9025 -1.3677
 5464TIP3    H237808   3.922   3.257  14.658 -0.5478  1.8427 -3.1493
 5465TIP3   OH237809   6.306   1.598   6.327 -0.1820  0.2718 -0.0053
 5465TIP3    H137810   6.327   1.535   6.258 -0.5988  3.0097 -2.7489
 5465TIP3    H237811   6.283   1.544   6.402  0.4063 -2.8369 -1.9531
 5466TIP3   OH237812   5.276   3.809  12.527  0.3291 -0.1706  0.0315
 5466TIP3    H137813   5.270   3.753  12.605 -0.4453 -1.1422 -0.7136
 5466TIP3    H237814   5.286   3.898  12.562  2.2728 -0.8243  1.2224
 5467TIP3   OH237815   0.759   6.503   0.498  0.1707 -0.4109 -0.0462
 5467TIP3    H137816   0.680   6.541   0.459  0.3878  1.3718  1.1783
 5467TIP3    H237817   0.818   6.488   0.424  0.0425  1.6076 -0.5940
 5468TIP3   OH237818   0.314   4.802  13.317 -0.5567 -0.1568  0.1887
 5468TIP3    H137819   0.311   4.722  13.265 -0.2499  0.4682 -0.8033
 5468TIP3    H237820   0.337   4.870  13.254  1.8097  0.3034  1.4999
 5469TIP3   OH237821   4.141   6.373   9.965 -0.2897  0.8166  0.4520
 5469TIP3    H137822   4.155   6.466   9.980  1.3591  0.3665  1.9287
 5469TIP3    H237823   4.211   6.330  10.014 -0.9874 -1.1994 -0.2525
 5470TIP3   OH237824   0.991   2.665  14.009  0.0848 -0.0672  1.0543
 5470TIP3    H137825   0.928   2.700  14.072  1.3762  1.4199  1.5570
 5470TIP3    H237826   1.018   2.581  14.046 -0.4414  0.0056  1.6113
 5471TIP3   OH237827   0.730   5.327   2.529  0.3646 -0.1030  0.0862
 5471TIP3    H137828   0.821   5.342   2.556  0.3494  0.9643 -0.4425
 5471TIP3    H237829   0.737   5.279   2.447  0.4366 -1.0733  0.6570
 5472TIP3   OH237830   4.040   5.585  14.553 -0.0626  0.4078 -0.6369
 5472TIP3    H137831   4.114   5.615  14.499 -0.2236 -1.3575 -1.8844
 5472TIP3    H237832   4.005   5.510  14.505 -1.2835 -0.1422  1.0980
 5473TIP3   OH237833   4.695   0.400  13.984 -0.2248  0.2091  0.4348
 5473TIP3    H137834   4.723   0.310  13.999 -2.7942 -0.7188 -0.1158
 5473TIP3    H237835   4.752   0.433  13.915 -0.3164 -1.5489 -0.4941
 5474TIP3   OH237836   1.881   5.309  16.401  0.6125 -0.3009 -0.0015
 5474TIP3    H137837   1.843   5.224  16.427 -0.1586  0.1449  0.3380
 5474TIP3    H237838   1.923   5.291  16.317 -0.3090 -0.8117 -0.3584
 5475TIP3   OH237839   1.711   5.817   4.065  0.4610  0.3731  0.1305
 5475TIP3    H137840   1.708   5.792   4.158  2.8053 -1.6380 -0.2759
 5475TIP3    H237841   1.687   5.737   4.018  1.2713  0.8100 -1.0489
 5476TIP3   OH237842   4.264   4.425  14.488  0.5538 -0.5934  0.1956
 5476TIP3    H137843   4.244   4.424  14.582  0.6152 -2.0915  0.1915
 5476TIP3    H237844   4.178   4.413  14.446  0.3874  1.0256  0.0209
 5477TIP3   OH237845   0.209   4.979  15.743  0.4655 -0.3380  0.0084
 5477TIP3    H137846   0.128   4.987  15.692 -0.2813 -0.2864  1.1747
 5477TIP3    H237847   0.209   4.889  15.775 -0.5437  0.4167  2.2792
 5478TIP3   OH237848   2.562   1.128   1.190  0.9890 -0.2715 -0.1662
 5478TIP3    H137849   2.607   1.097   1.111 -0.3792  0.2084 -1.1608
 5478TIP3    H237850   2.605   1.082   1.262  2.0285 -0.9857 -1.2251
 5479TIP3   OH237851   0.746   6.102  15.762  0.2959  0.8464 -0.2652
 5479TIP3    H137852   0.806   6.028  15.771  1.3612  1.7218 -0.0810
 5479TIP3    H237853   0.732   6.131  15.852  0.3496  1.2431 -0.3865
 5480TIP3   OH237854   2.461   4.667  13.891  0.6721  0.6871 -0.4356
 5480TIP3    H137855   2.480   4.736  13.828  2.3910  1.2178  0.6136
 5480TIP3    H237856   2.523   4.683  13.962 -0.9446 -0.1331  1.2015
 5481TIP3   OH237857   2.408   3.053   4.129 -0.3063  0.0483  0.1834
 5481TIP3    H137858   2.318   3.038   4.100 -0.3132  1.1155 -0.3793
 5481TIP3    H237859   2.403   3.056   4.224 -0.7823 -0.4209  0.1722
 5482TIP3   OH237860   0.916   4.125   4.804  0.3752 -0.0034  0.0167
 5482TIP3    H137861   0.961   4.117   4.720 -1.9129  0.7880 -1.3340
 5482TIP3    H237862   0.879   4.039   4.820  1.4537 -0.3723  0.6395
 5483TIP3   OH237863   6.263   5.429   4.485  0.0846  0.7257  0.2251
 5483TIP3    H137864   6.332   5.419   4.550  0.1118 -0.3612  0.0484
 5483TIP3    H237865   6.182   5.428   4.536  0.1520  0.9250  0.3371
 5484TIP3   OH237866   0.019   2.217   0.407 -0.0508 -0.4208 -0.1396
 5484TIP3    H137867   0.056   2.157   0.342  1.2370 -0.7200  0.8544
 5484TIP3    H237868   0.026   2.303   0.366 -0.7166 -0.7963 -1.0482
 5485TIP3   OH237869   0.761   2.487  13.908  0.0046  0.3524 -0.2873
 5485TIP3    H137870   0.820   2.553  13.946  0.3853  0.9062 -1.7899
 5485TIP3    H237871   0.674   2.515  13.935  0.3908 -0.3773  1.8218
 5486TIP3   OH237872   1.827   0.906  12.416  0.7135 -0.0054  0.2996
 5486TIP3    H137873   1.807   0.815  12.436 -0.3551  0.7098  2.6046
 5486TIP3    H237874   1.742   0.945  12.397  1.3841  0.0474 -2.8856
 5487TIP3   OH237875   2.044   4.196   5.957 -0.5581 -0.6986  0.0574
 5487TIP3    H137876   1.948   4.196   5.951 -0.6934  3.0251  1.1543
 5487TIP3    H237877   2.073   4.242   5.878  0.2549 -0.5033  0.4614
 5488TIP3   OH237878   6.496   5.433   4.694  0.0061 -0.1351 -0.0760
 5488TIP3    H137879   6.489   5.356   4.750  1.8661 -1.1129 -1.1671
 5488TIP3    H237880   6.509   5.506   4.755  1.5972 -1.1259  0.7939
 5489TIP3   OH237881   1.621   4.904   0.904 -0.3411 -0.0848  0.1398
 5489TIP3    H137882   1.629   4.933   0.813 -2.2382  1.4816  0.4259
 5489TIP3    H237883   1.710   4.907   0.939  0.3948 -0.6897 -1.6619
 5490TIP3   OH237884   5.983   2.321  14.710 -0.4967  0.0201  0.2069
 5490TIP3    H137885   6.054   2.268  14.674 -0.5050  0.6664 -0.8003
 5490TIP3    H237886   6.025   2.403  14.737 -0.7450  0.1446  0.2195
 5491TIP3   OH237887   1.373   5.250  14.983 -0.8130  0.2767 -0.2152
 5491TIP3    H137888   1.304   5.187  14.959 -0.2689 -0.9796  1.4089
 5491TIP3    H237889   1.401   5.288  14.900 -1.4020 -1.3875 -1.1976
 5492TIP3   OH237890   5.908   4.420   1.429  0.2927 -0.0977 -0.1126
 5492TIP3    H137891   5.929   4.465   1.347  0.3565  0.9920  0.4982
 5492TIP3    H237892   5.864   4.486   1.483 -3.3168 -1.8854 -0.7398
 5493TIP3   OH237893   1.364   0.241   2.351  0.0258  0.2082  0.1131
 5493TIP3    H137894   1.436   0.276   2.298 -0.3812 -0.2259 -0.7272
 5493TIP3    H237895   1.389   0.151   2.369 -1.0455 -0.4444 -1.5370
 5494TIP3   OH237896   1.352   3.955   2.828  0.0019 -0.3438  0.6651
 5494TIP3    H137897   1.348   3.861   2.845  1.2102 -0.1707  2.0123
 5494TIP3    H237898   1.433   3.984   2.869 -1.5639  1.7185  2.5000
 5495TIP3   OH237899   1.405   2.485   6.022  0.6979 -0.0757 -0.0721
 5495TIP3    H137900   1.498   2.496   6.002  0.6236  3.0740  0.9011
 5495TIP3    H237901   1.367   2.447   5.943  2.0828  2.8842 -2.2739
 5496TIP3   OH237902   6.537   4.625  13.397  0.2566 -0.2031 -0.3416
 5496TIP3    H137903   6.617   4.632  13.450  0.8807 -0.6729 -1.1961
 5496TIP3    H237904   6.559   4.671  13.316  0.0937 -1.3974 -1.0697
 5497TIP3   OH237905   2.843   3.658   1.070  1.1165 -0.3231 -0.0499
 5497TIP3    H137906   2.876   3.579   1.115 -2.1336 -0.3867  2.4043
 5497TIP3    H237907   2.748   3.655   1.083  0.6491  2.6324 -2.2584
 5498TIP3   OH237908   0.496   4.246  12.782 -0.1286 -0.2770  0.2508
 5498TIP3    H137909   0.571   4.291  12.744  0.1640 -2.2704 -1.6718
 5498TIP3    H237910   0.525   4.155  12.791 -1.9790 -0.8861  0.3526
 5499TIP3   OH237911   4.794   5.456   2.676  0.0702 -0.5796 -0.0135
 5499TIP3    H137912   4.881   5.427   2.649  0.1001 -0.2849 -0.2338
 5499TIP3    H237913   4.761   5.505   2.600  0.6317  1.2767  0.9236
 5500TIP3   OH237914   2.529   2.149  11.260  0.7430 -0.3895 -0.3304
 5500TIP3    H137915   2.486   2.234  11.255 -1.1767 -1.2283  1.1593
 5500TIP3    H237916   2.526   2.126  11.353  0.5172 -2.4259 -0.8193
 5501TIP3   OH237917   2.276   6.520   2.150 -0.2184  0.0588  0.0136
 5501TIP3    H137918   2.363   6.522   2.109 -1.4504 -0.2488 -2.7361
 5501TIP3    H237919   2.251   6.428   2.148 -0.7155  0.1792  0.5377
 5502TIP3   OH237920   0.290   1.487  15.291 -0.4516  0.1082  0.0065
 5502TIP3    H137921   0.379   1.460  15.313 -0.2787  1.5080  1.0993
 5502TIP3    H237922   0.262   1.540  15.366 -2.2152 -0.3541 -0.3120
 5503TIP3   OH237923   0.571   5.155  14.627  0.4766  0.0843  0.7585
 5503TIP3    H137924   0.566   5.222  14.560 -0.7028 -1.9317 -1.2532
 5503TIP3    H237925   0.485   5.158  14.670  0.2170 -0.5048  0.2861
 5504TIP3   OH237926   0.150   5.500  14.182  0.1077 -0.3272  1.0186
 5504TIP3    H137927   0.216   5.506  14.252  1.3266  1.7338 -0.2809
 5504TIP3    H237928   0.201   5.495  14.102 -1.3175  0.9422  0.0150
 5505TIP3   OH237929   2.924   4.663   4.884 -0.1398 -0.9102  0.1483
 5505TIP3    H137930   3.009   4.627   4.911 -0.0634 -0.9205 -0.1023
 5505TIP3    H237931   2.879   4.683   4.966 -0.0453 -1.2547  0.2843
 5506TIP3   OH237932   2.499   3.076   0.138 -0.3135  0.2856  0.4521
 5506TIP3    H137933   2.559   3.060   0.065 -0.8330 -0.1077  0.1078
 5506TIP3    H237934   2.477   3.169   0.130 -1.2666 -0.0053 -0.5989
 5507TIP3   OH237935   4.172   1.962  11.908 -0.6366 -0.3175  0.9015
 5507TIP3    H137936   4.141   1.878  11.873  1.5526 -0.6978 -0.2051
 5507TIP3    H237937   4.222   1.938  11.986  2.1935 -0.3151 -0.8661
 5508TIP3   OH237938   1.047   2.925   4.538  0.0196  0.0087  0.3955
 5508TIP3    H137939   1.066   2.831   4.547  1.3368  0.3416  1.1955
 5508TIP3    H237940   1.074   2.963   4.621  1.9580  1.4796 -0.8743
 5509TIP3   OH237941   4.968   3.932  16.481 -0.3626  0.3368  0.1724
 5509TIP3    H137942   4.954   3.865  16.547  0.5700 -1.7277 -1.6738
 5509TIP3    H237943   4.983   4.012  16.531  1.1756 -1.3399  2.4658
 5510TIP3   OH237944   0.088   0.965   3.599  0.5403  0.3448  0.3488
 5510TIP3    H137945   0.037   0.922   3.667 -0.7544  2.7775  0.9638
 5510TIP3    H237946   0.070   1.058   3.610  2.8478  1.0425 -1.2841
 5511TIP3   OH237947   3.813   6.034  13.057 -0.1625  0.1566 -0.1158
 5511TIP3    H137948   3.881   5.996  13.002 -1.5542 -0.4241 -1.4713
 5511TIP3    H237949   3.838   6.126  13.067  0.0399  0.3085 -1.8614
 5512TIP3   OH237950   6.619   6.598  16.497  0.2443 -0.7538 -1.1471
 5512TIP3    H137951   6.626   6.678  16.445 -1.5830  0.4731  0.4339
 5512TIP3    H237952   6.585   6.533  16.435  2.0646 -0.4335 -2.5259
 5513TIP3   OH237953   2.409   0.946   2.407  0.7943 -0.2794 -0.3630
 5513TIP3    H137954   2.401   0.875   2.344  1.2345  1.3077 -2.2349
 5513TIP3    H237955   2.456   0.906   2.481  0.4813 -2.0933 -1.1117
 5514TIP3   OH237956   3.125   5.091   1.897  0.0359 -0.2819  0.2506
 5514TIP3    H137957   3.189   5.142   1.947 -0.4822  0.6525 -0.0098
 5514TIP3    H237958   3.042   5.107   1.943 -0.0494 -1.2777  0.4359
 5515TIP3   OH237959   5.063   1.547   2.133  1.0661  0.1019  0.4044
 5515TIP3    H137960   5.114   1.606   2.188 -0.1904  0.6230  1.0179
 5515TIP3    H237961   5.112   1.465   2.135  1.2152  0.2130  2.0332
 5516TIP3   OH237962   0.681   5.734   5.668  1.1344  0.3152  0.3135
 5516TIP3    H137963   0.720   5.703   5.587  0.0018  3.0956 -1.3698
 5516TIP3    H237964   0.756   5.760   5.722  1.8429  0.2468 -0.6179
 5517TIP3   OH237965   0.137   5.650   2.701 -0.3812  0.2393  0.3738
 5517TIP3    H137966   0.082   5.574   2.717  0.6571 -0.3967  0.9576
 5517TIP3    H237967   0.157   5.646   2.607 -0.3428 -0.1947  0.4008
 5518TIP3   OH237968   2.445   3.887  17.039  0.0339  0.4334  0.6527
 5518TIP3    H137969   2.455   3.845  16.954 -0.2372 -0.1455  0.8983
 5518TIP3    H237970   2.528   3.870  17.084  0.2502  0.9046  0.4356
 5519TIP3   OH237971   5.035   6.115   3.784 -0.1922 -0.3964  0.5301
 5519TIP3    H137972   4.955   6.103   3.834  0.4354  0.6872  1.8410
 5519TIP3    H237973   5.055   6.029   3.747 -0.8235 -1.1435  1.9154
 5520TIP3   OH237974   3.683   1.411  17.167  0.4717 -0.0450 -0.6552
 5520TIP3    H137975   3.609   1.354  17.146  0.9548 -1.4543  1.3194
 5520TIP3    H237976   3.655   1.498  17.138 -2.1535 -0.4657  0.4348
 5521TIP3   OH237977   6.711   6.208  12.452  0.1508 -0.2296  0.2952
 5521TIP3    H137978   6.728   6.260  12.374  1.1830  2.5930  2.3237
 5521TIP3    H237979   6.616   6.204  12.459  0.0587  1.6316  0.2430
 5522TIP3   OH237980   2.626   3.164  12.998 -0.1660  0.3514  0.5736
 5522TIP3    H137981   2.568   3.100  12.957  0.1288 -0.1722  0.9542
 5522TIP3    H237982   2.596   3.169  13.089 -0.2674  0.8496  0.5118
 5523TIP3   OH237983   4.976   4.751  13.154 -0.3802 -0.0895  0.2252
 5523TIP3    H137984   5.020   4.721  13.074 -1.4348  1.5620 -0.9974
 5523TIP3    H237985   4.895   4.792  13.124 -0.6855  0.7809  2.1268
 5524TIP3   OH237986   4.280   1.303  13.827  0.3275  0.2920  0.3275
 5524TIP3    H137987   4.303   1.290  13.919 -0.6083  0.6241  0.6135
 5524TIP3    H237988   4.362   1.287  13.779  0.3048 -2.0969  1.0220
 5525TIP3   OH237989   5.227   2.241  13.333  0.3664  0.4574 -0.3805
 5525TIP3    H137990   5.225   2.148  13.309 -0.1746  0.6933 -1.2751
 5525TIP3    H237991   5.280   2.244  13.413 -1.7838 -0.9701  1.1877
 5526TIP3   OH237992   6.614   1.337   5.075  0.4936  0.3127  0.1409
 5526TIP3    H137993   6.691   1.317   5.129 -0.4447 -0.8538  1.0788
 5526TIP3    H237994   6.633   1.296   4.991  0.6581 -0.4699  0.5540
 5527TIP3   OH237995   5.491   3.525   5.150 -0.1749  0.1130 -0.0127
 5527TIP3    H137996   5.583   3.530   5.123 -0.4193  0.4924 -0.8084
 5527TIP3    H237997   5.452   3.460   5.092 -0.4132 -0.0340  0.3107
 5528TIP3   OH237998   4.900   2.904  11.480 -0.6691 -0.4657 -0.0619
 5528TIP3    H137999   4.809   2.873  11.486 -0.4592 -1.6733 -2.6628
 5528TIP3    H238000   4.946   2.835  11.433  1.0173  1.3731 -1.1840
 5529TIP3   OH238001   0.706   2.214  17.061 -0.3293  0.2873 -0.3229
 5529TIP3    H138002   0.729   2.224  17.153  0.6717 -1.8730 -0.3077
 5529TIP3    H238003   0.616   2.247  17.055  0.0573  1.6539  1.1364
 5530TIP3   OH238004   0.645   2.381   0.059  0.2539  0.7711 -0.7571
 5530TIP3    H138005   0.606   2.349   0.140  0.3234  1.1060 -0.5879
 5530TIP3    H238006   0.572   2.416   0.009  0.0294 -0.5846 -1.3949
 5531TIP3   OH238007   1.887   4.870   0.378 -0.4336  0.4562 -0.3602
 5531TIP3    H138008   1.898   4.778   0.398  0.0126  0.7382  0.6946
 5531TIP3    H238009   1.827   4.903   0.446  0.7936  1.3295  0.3164
 5532TIP3   OH238010   1.516   0.905  13.800 -0.5342  0.9486  0.8973
 5532TIP3    H138011   1.517   0.839  13.731 -1.1746  0.6245  1.1990
 5532TIP3    H238012   1.497   0.856  13.880  0.1987  1.3233  1.3078
 5533TIP3   OH238013   1.243   3.885  13.086 -0.1930  0.5591  0.5683
 5533TIP3    H138014   1.302   3.821  13.126 -0.2288  0.0580 -0.1870
 5533TIP3    H238015   1.180   3.905  13.155 -0.1329 -0.1569  0.8385
 5534TIP3   OH238016   6.658   2.023   3.677 -0.4755  0.4454 -0.0114
 5534TIP3    H138017   6.731   2.073   3.714 -0.7153  1.1388 -0.4551
 5534TIP3    H238018   6.685   2.007   3.586 -1.2970  1.5714 -0.4707
 5535TIP3   OH238019   0.747   5.357   5.494  0.5201  0.0772 -0.5457
 5535TIP3    H138020   0.723   5.446   5.521  1.4618 -0.1025  0.9030
 5535TIP3    H238021   0.703   5.345   5.410 -2.6829  0.5707  0.9804
 5536TIP3   OH238022   1.575   3.648  10.922 -0.2793  0.3214  0.3509
 5536TIP3    H138023   1.604   3.569  10.876 -1.9527 -0.5623  0.7643
 5536TIP3    H238024   1.481   3.653  10.903 -0.6892  0.8128  2.3835
 5537TIP3   OH238025   4.198   0.860   0.933  0.3005  0.2264 -0.4733
 5537TIP3    H138026   4.183   0.950   0.963  1.1415  0.7891 -1.6921
 5537TIP3    H238027   4.111   0.820   0.934 -0.3997  1.6615 -1.8204
 5538TIP3   OH238028   0.970   1.760  12.542 -0.5367  0.2715  0.3731
 5538TIP3    H138029   0.993   1.853  12.552  0.4095 -0.1487  2.2267
 5538TIP3    H238030   1.023   1.730  12.468 -2.0735  1.5857 -1.3262
 5539TIP3   OH238031   5.009   6.330   1.073 -0.1506  0.5290 -0.5167
 5539TIP3    H138032   4.993   6.423   1.057  0.4455  0.7255  0.0193
 5539TIP3    H238033   4.978   6.315   1.163  0.0507  0.2848 -0.4861
 5540TIP3   OH238034   0.071   5.462   4.644  0.6737  0.4067  0.2708
 5540TIP3    H138035   0.154   5.485   4.602  1.4835 -0.2653  1.4570
 5540TIP3    H238036   0.005   5.510   4.594  1.8996  2.0350  0.1518
 5541TIP3   OH238037   3.919   4.563   5.954  0.1899 -0.2480  0.0113
 5541TIP3    H138038   3.900   4.577   6.047 -0.0489 -0.5379  0.0069
 5541TIP3    H238039   4.007   4.528   5.952  0.6529  0.8882  0.0527
 5542TIP3   OH238040   2.671   2.633   1.682  0.3987 -0.0719 -0.2320
 5542TIP3    H138041   2.712   2.720   1.678  0.1686  0.0735  0.5371
 5542TIP3    H238042   2.678   2.608   1.774  2.7536 -1.9635 -0.8760
 5543TIP3   OH238043   1.503   3.924   3.232 -0.1367 -0.3882 -0.2267
 5543TIP3    H138044   1.578   3.890   3.281  0.7634 -1.5444 -2.3264
 5543TIP3    H238045   1.531   4.012   3.204  0.2720 -0.6358 -0.6112
 5544TIP3   OH238046   6.505   2.989  14.684 -0.0856  0.3316  0.5484
 5544TIP3    H138047   6.555   2.983  14.602 -1.7120  0.1522 -0.4497
 5544TIP3    H238048   6.434   2.926  14.672  0.7206 -1.0884  2.8715
 5545TIP3   OH238049   1.872   6.254  12.265 -0.7280 -0.9894  0.2625
 5545TIP3    H138050   1.798   6.224  12.317 -1.3072  0.3918  0.2366
 5545TIP3    H238051   1.924   6.308  12.324 -0.9027 -0.1569 -0.3425
 5546TIP3   OH238052   2.176   1.439  14.259 -0.2265  0.6515 -0.4001
 5546TIP3    H138053   2.192   1.521  14.306  1.7158  0.3146 -0.4456
 5546TIP3    H238054   2.106   1.461  14.197 -1.1941  1.7049  1.0266
 5547TIP3   OH238055   0.599   3.639   0.527 -0.0178  0.2943 -0.2197
 5547TIP3    H138056   0.527   3.691   0.563 -0.3151 -0.3211  0.0805
 5547TIP3    H238057   0.675   3.664   0.581 -0.1477  0.4483 -0.1050
 5548TIP3   OH238058   5.646   1.885  11.572  0.7642  0.5663  0.3376
 5548TIP3    H138059   5.692   1.823  11.629  1.9385  0.4367 -0.7144
 5548TIP3    H238060   5.567   1.909  11.620  1.6288  0.2950  1.9195
 5549TIP3   OH238061   5.914   1.423   5.057 -0.5721  0.0688 -0.5034
 5549TIP3    H138062   5.979   1.354   5.041 -1.6104 -1.5563  1.9289
 5549TIP3    H238063   5.832   1.376   5.067 -2.0220  2.0336 -2.6757
 5550TIP3   OH238064   3.976   2.978   6.612  0.4019 -0.4853  0.3133
 5550TIP3    H138065   4.016   2.982   6.525 -1.7708 -0.7493 -0.7474
 5550TIP3    H238066   4.006   2.895   6.649  1.7847 -0.1109  0.0282
 5551TIP3   OH238067   1.970   5.583   4.789 -0.3648 -0.1423  0.1067
 5551TIP3    H138068   2.030   5.650   4.758  1.5433 -2.3951 -1.3131
 5551TIP3    H238069   1.885   5.607   4.753 -0.0344  2.2756  0.8699
 5552TIP3   OH238070   5.393   6.458  14.832  0.4181  0.0344 -0.0927
 5552TIP3    H138071   5.439   6.417  14.759  0.5248  0.8303 -0.4841
 5552TIP3    H238072   5.392   6.392  14.901 -0.0080 -0.8565 -0.9444
 5553TIP3   OH238073   6.781   4.464  13.055 -0.4431 -0.1409 -0.1607
 5553TIP3    H138074   6.722   4.537  13.039  1.0978  1.2753  0.4519
 5553TIP3    H238075   6.771   4.445  13.148  0.3991  0.4052  0.0431
 5554TIP3   OH238076   1.695   4.988   5.465 -0.0655 -0.1020 -0.8768
 5554TIP3    H138077   1.642   5.054   5.510  2.0074  0.2835  1.1115
 5554TIP3    H238078   1.704   4.917   5.528  0.0963 -1.0487 -1.9552
 5555TIP3   OH238079   4.834   5.035  13.875  0.3167  0.1936 -0.6692
 5555TIP3    H138080   4.923   5.054  13.904  0.2888  1.1604 -1.2175
 5555TIP3    H238081   4.836   5.044  13.780 -0.4440  0.6006 -0.6560
 5556TIP3   OH238082   2.016   0.050  12.018 -0.0257 -0.3055 -0.1796
 5556TIP3    H138083   2.065  -0.031  12.023  0.4606  0.0376  0.7936
 5556TIP3    H238084   2.058   0.100  11.948  1.0109 -0.0177  0.6403
 5557TIP3   OH238085   6.152   5.507  12.422 -0.1164 -0.8848 -0.6569
 5557TIP3    H138086   6.107   5.552  12.350 -0.3299 -1.2620 -0.7567
 5557TIP3    H238087   6.222   5.458  12.380  1.6644  1.2789 -0.3143
 5558TIP3   OH238088   4.617   0.468   1.983 -0.3689 -0.2806 -0.0829
 5558TIP3    H138089   4.527   0.437   1.973 -0.3037 -0.8899  1.1461
 5558TIP3    H238090   4.663   0.434   1.906 -0.9655 -0.7804 -0.2196
 5559TIP3   OH238091   5.506   0.665  15.750 -0.3677 -0.4756  0.4784
 5559TIP3    H138092   5.582   0.606  15.744  1.7860  2.1728  0.8686
 5559TIP3    H238093   5.486   0.687  15.659 -1.7411 -2.4193  0.2681
 5560TIP3   OH238094   4.615   2.690   3.912 -0.3067  0.5002  0.4633
 5560TIP3    H138095   4.633   2.618   3.851 -0.5380  0.7683  0.0759
 5560TIP3    H238096   4.528   2.670   3.948 -1.9880  2.4421 -2.3437
 5561TIP3   OH238097   0.831   5.702  14.814  0.1326  0.1211 -0.1856
 5561TIP3    H138098   0.801   5.774  14.758  0.0349 -2.2041 -3.2745
 5561TIP3    H238099   0.802   5.726  14.902 -1.5464  2.9401 -1.4318
 5562TIP3   OH238100   2.852   1.974  12.051  0.2962 -0.2452  0.1658
 5562TIP3    H138101   2.903   2.003  12.126  0.4405 -0.5009  0.1651
 5562TIP3    H238102   2.763   2.004  12.069  0.4704  0.3054  0.1091
 5563TIP3   OH238103   3.026   0.030  11.528 -0.1533  0.1570  0.3763
 5563TIP3    H138104   2.941   0.019  11.571  0.5073 -0.5699  1.4988
 5563TIP3    H238105   3.063  -0.058  11.526  0.0269  0.2586 -1.2775
 5564TIP3   OH238106   0.927   1.026   2.882 -0.2630  0.2891 -0.2366
 5564TIP3    H138107   0.991   0.963   2.916 -0.5893  0.9314  1.6461
 5564TIP3    H238108   0.843   0.996   2.918 -0.8104  0.2844 -1.5056
 5565TIP3   OH238109   0.818   1.772   1.209  0.5369  0.1981  0.3856
 5565TIP3    H138110   0.778   1.753   1.294 -0.7361 -1.1311 -0.4838
 5565TIP3    H238111   0.888   1.708   1.200  0.6103  0.2776  0.3900
 5566TIP3   OH238112   3.015   1.889   5.890 -0.5761  0.3396 -0.4887
 5566TIP3    H138113   3.044   1.978   5.911  2.1026 -0.8462  1.2492
 5566TIP3    H238114   3.059   1.869   5.807  0.9292 -0.2220  0.4102
 5567TIP3   OH238115   3.404   2.067  16.983  0.3952 -0.2220  0.5427
 5567TIP3    H138116   3.462   2.092  17.056  1.8531 -0.0151 -0.6686
 5567TIP3    H238117   3.316   2.073  17.020  0.9306  2.8264  1.4626
 5568TIP3   OH238118   4.324   3.227   0.355 -0.5297  0.0739  0.0908
 5568TIP3    H138119   4.327   3.200   0.263  0.7782  0.1693  0.0940
 5568TIP3    H238120   4.314   3.145   0.404 -0.7977 -0.0149 -0.1097
 5569TIP3   OH238121   4.098   3.614   3.304  0.0081 -0.6350 -0.0124
 5569TIP3    H138122   4.107   3.668   3.226 -1.6131 -1.4093 -0.7529
 5569TIP3    H238123   4.149   3.660   3.371  0.3263  0.7265 -1.1620
 5570TIP3   OH238124   1.891   5.079   4.072 -0.7182  0.0226  0.5513
 5570TIP3    H138125   1.933   5.159   4.102  1.5513  0.3576 -3.2485
 5570TIP3    H238126   1.958   5.011   4.085 -0.0556  0.0107 -2.5980
 5571TIP3   OH238127   4.533   4.579   2.995  0.2747  0.0379  0.1242
 5571TIP3    H138128   4.542   4.533   2.912  0.4544  0.1907  0.0575
 5571TIP3    H238129   4.463   4.534   3.041 -2.0305  1.8953 -1.4501
 5572TIP3   OH238130   1.103   6.541  16.286 -0.4283  0.1556 -0.3479
 5572TIP3    H138131   1.064   6.509  16.205 -2.2019  0.2630  0.4376
 5572TIP3    H238132   1.034   6.530  16.352  1.0941 -0.2171  1.2097
 5573TIP3   OH238133   3.161   6.205  11.845  0.7607  0.0338  0.4542
 5573TIP3    H138134   3.078   6.167  11.816 -0.0583  0.9811  1.5149
 5573TIP3    H238135   3.159   6.294  11.811  1.4022  0.0220  0.3866
 5574TIP3   OH238136   2.030   1.236   6.258 -0.6499  0.2356  0.9026
 5574TIP3    H138137   1.942   1.217   6.225  0.2536 -0.3586 -1.2177
 5574TIP3    H238138   2.089   1.209   6.188  1.2296  0.9157  2.1712
 5575TIP3   OH238139   1.451   1.838   3.068 -0.7063  0.2196  0.3527
 5575TIP3    H138140   1.419   1.755   3.031  0.8859 -1.5121  2.6680
 5575TIP3    H238141   1.414   1.840   3.156  2.6845 -0.1819  1.8596
 5576TIP3   OH238142   3.877   2.009   3.726  0.5292 -1.0237  0.0862
 5576TIP3    H138143   3.928   2.083   3.694  0.0028 -0.3509  0.7949
 5576TIP3    H238144   3.871   1.950   3.651  0.8590 -0.3021 -0.5115
 5577TIP3   OH238145   1.518   4.301   5.253  0.5629  0.6104 -0.2880
 5577TIP3    H138146   1.507   4.384   5.207  1.2743  0.7098 -0.2839
 5577TIP3    H238147   1.443   4.296   5.312  0.8912  1.5760  0.2163
 5578TIP3   OH238148   6.393   2.178  17.000  0.2266  0.5124  0.2080
 5578TIP3    H138149   6.453   2.248  16.973 -2.6584  2.3630 -1.7547
 5578TIP3    H238150   6.332   2.220  17.060 -0.8489 -0.6063 -0.0722
 5579TIP3   OH238151   5.984   3.750   4.479  0.2086  0.5913 -0.0096
 5579TIP3    H138152   5.995   3.751   4.574  0.6148  0.8521 -0.0622
 5579TIP3    H238153   6.005   3.660   4.453 -0.9275  0.2326  0.2706
 5580TIP3   OH238154   0.361   1.021  12.811  0.3028 -0.2475 -0.3017
 5580TIP3    H138155   0.374   1.086  12.879 -0.9460  0.3979 -0.6419
 5580TIP3    H238156   0.269   1.033  12.785 -0.4410 -3.2886  0.8008
 5581TIP3   OH238157   2.459   1.675  12.732 -0.1295  0.4497 -0.2142
 5581TIP3    H138158   2.480   1.581  12.727  1.0237  0.7541 -1.1350
 5581TIP3    H238159   2.435   1.689  12.824 -0.2755 -0.7379 -0.0611
 5582TIP3   OH238160   1.716   3.003   2.884  0.5216  0.0334  0.3814
 5582TIP3    H138161   1.809   2.987   2.865 -0.0403 -1.1297 -1.4643
 5582TIP3    H238162   1.693   3.078   2.830  0.1100 -0.3400  0.0409
 5583TIP3   OH238163   0.612   5.347  10.475 -0.4902  0.0252 -0.1488
 5583TIP3    H138164   0.612   5.273  10.414  0.1395  0.4800 -0.7080
 5583TIP3    H238165   0.628   5.308  10.561 -1.2419 -0.6037 -0.2880
 5584TIP3   OH238166   6.647   3.489   0.281 -0.0710 -0.2071 -0.1024
 5584TIP3    H138167   6.694   3.530   0.209 -0.6658 -0.3854 -0.5957
 5584TIP3    H238168   6.564   3.462   0.243 -0.7834  0.5621  0.8887
 5585TIP3   OH238169   0.592   2.141  12.097  0.2535 -0.2699  0.0623
 5585TIP3    H138170   0.629   2.125  12.010  1.7198  2.1274  0.1764
 5585TIP3    H238171   0.655   2.102  12.157 -0.9464 -2.2502  0.0655
 5586TIP3   OH238172   0.865   3.316  12.272  0.1604  0.7139  0.4921
 5586TIP3    H138173   0.890   3.393  12.323 -0.1190  0.4694  0.9995
 5586TIP3    H238174   0.843   3.250  12.337 -1.0053  0.6561  0.0647
 5587TIP3   OH238175   4.323   5.509  12.790  0.4567 -0.1111  0.5331
 5587TIP3    H138176   4.319   5.417  12.764 -0.5865 -0.0353  0.3914
 5587TIP3    H238177   4.235   5.542  12.773  1.5911  1.6748 -2.2133
 5588TIP3   OH238178   5.559   1.937  14.772 -0.3048  0.0319 -0.0078
 5588TIP3    H138179   5.616   1.968  14.701  1.3095 -1.5375  0.5597
 5588TIP3    H238180   5.507   1.867  14.731  1.5283 -1.7531  0.6296
 5589TIP3   OH238181   5.792   6.376  16.211  0.1228  0.4085  0.1024
 5589TIP3    H138182   5.784   6.472  16.213 -0.3904  0.4880 -2.8168
 5589TIP3    H238183   5.882   6.360  16.181  0.6211 -0.0579  1.8083
 5590TIP3   OH238184   3.574   4.312   5.900  0.5641  0.2540 -0.5115
 5590TIP3    H138185   3.634   4.304   5.973 -1.2926  0.5522  1.0963
 5590TIP3    H238186   3.576   4.226   5.857 -0.3392 -0.8057  1.5091
 5591TIP3   OH238187   1.660   1.564   2.839 -0.4351  0.0928  0.6392
 5591TIP3    H138188   1.728   1.525   2.784 -1.5543  1.2763 -1.6395
 5591TIP3    H238189   1.584   1.508   2.827 -1.0838  1.1222 -0.0874
 5592TIP3   OH238190   5.276   0.054  13.430 -0.1118  0.0546 -0.1079
 5592TIP3    H138191   5.264   0.127  13.490  1.2204  1.2581 -1.2650
 5592TIP3    H238192   5.370   0.033  13.435  0.0496  0.2664 -1.8361
 5593TIP3   OH238193   4.173   3.109   1.412 -0.0076 -0.6545 -0.4783
 5593TIP3    H138194   4.194   3.126   1.321  0.0093 -1.1712 -0.5761
 5593TIP3    H238195   4.108   3.038   1.409 -1.3993  0.5908 -0.1605
 5594TIP3   OH238196   5.093   2.475   2.664 -0.0199 -0.0207  0.2712
 5594TIP3    H138197   5.130   2.528   2.594 -0.0576  0.7553  0.8267
 5594TIP3    H238198   5.156   2.404   2.677  1.1482  1.1422  1.0244
 5595TIP3   OH238199   3.350   5.565   2.863 -0.3598  0.8145  0.1349
 5595TIP3    H138200   3.293   5.507   2.914 -0.5816  0.9035 -0.0119
 5595TIP3    H238201   3.359   5.521   2.778  0.1194  0.5990  0.2986
 5596TIP3   OH238202   5.891   0.436  12.079  0.2256  0.5487 -0.1991
 5596TIP3    H138203   5.975   0.474  12.105  0.5024 -0.0441 -0.2168
 5596TIP3    H238204   5.826   0.481  12.133  0.7452 -0.2984  1.1576
 5597TIP3   OH238205   3.328   3.818   5.647 -0.0797  0.1368 -0.3035
 5597TIP3    H138206   3.350   3.741   5.595 -2.1587 -1.0772  0.5133
 5597TIP3    H238207   3.271   3.870   5.591  0.2296  0.3915 -0.3782
 5598TIP3   OH238208   1.723   0.315  12.077 -0.2327  0.0203 -0.4747
 5598TIP3    H138209   1.672   0.356  12.147 -0.4012  0.7038 -0.9927
 5598TIP3    H238210   1.765   0.240  12.120  1.8855  2.0182  1.0371
 5599TIP3   OH238211   6.282   5.309  15.442  0.1090 -0.0654  0.4567
 5599TIP3    H138212   6.269   5.391  15.395 -0.4498  0.2987  1.2261
 5599TIP3    H238213   6.244   5.242  15.385 -0.0270  0.2925  0.1225
 5600TIP3   OH238214   1.394   0.760   5.519 -0.3585 -0.0747 -0.6320
 5600TIP3    H138215   1.383   0.679   5.568 -0.1590 -0.8016 -1.7821
 5600TIP3    H238216   1.409   0.827   5.586  0.2538 -1.1222  0.2851
 5601TIP3   OH238217   0.041   6.372  13.979 -0.1952  0.5838 -0.3563
 5601TIP3    H138218  -0.019   6.316  14.028  1.2500  0.1920  1.0134
 5601TIP3    H238219   0.090   6.312  13.923 -0.0954  0.7275 -0.4234
 5602TIP3   OH238220   3.963   1.684  12.598  0.1094 -0.3170 -0.2142
 5602TIP3    H138221   3.935   1.751  12.660  0.5611  1.7071 -2.1291
 5602TIP3    H238222   4.040   1.721  12.554  0.9497 -2.4786 -0.6637
 5603TIP3   OH238223   4.908   3.432  12.759 -0.2247  0.2976  0.8045
 5603TIP3    H138224   4.929   3.376  12.833  0.4073  0.6856  0.9168
 5603TIP3    H238225   4.968   3.406  12.690  0.5343  1.2964  1.0772
 5604TIP3   OH238226   3.386   3.759   3.464 -0.3235  0.0143  0.4045
 5604TIP3    H138227   3.379   3.704   3.542 -0.3281  0.7883  0.9546
 5604TIP3    H238228   3.295   3.778   3.441 -0.3190 -0.0972  0.2976
 5605TIP3   OH238229   3.915   2.322  14.074 -0.1688  0.2563  0.1480
 5605TIP3    H138230   3.965   2.241  14.081 -1.5425 -0.4783  1.8705
 5605TIP3    H238231   3.955   2.380  14.139  0.9126  1.0239 -1.1919
 5606TIP3   OH238232   0.766   0.396  16.603  0.7908  0.3511  0.1377
 5606TIP3    H138233   0.706   0.411  16.676  0.1973  1.0500 -0.4886
 5606TIP3    H238234   0.835   0.462  16.615  0.9471  0.1507  0.3402
 5607TIP3   OH238235   2.264   6.155  12.900  0.0797 -0.6475  0.3772
 5607TIP3    H138236   2.169   6.151  12.898  0.0051  0.1233  1.7831
 5607TIP3    H238237   2.285   6.245  12.924  1.1371 -0.9923  0.8231
 5608TIP3   OH238238   5.886   2.807  15.478 -0.7303 -0.4094  0.1138
 5608TIP3    H138239   5.897   2.773  15.389 -1.3014 -0.1002 -0.0753
 5608TIP3    H238240   5.798   2.777  15.504 -0.5530 -0.5308  0.5895
 5609TIP3   OH238241   2.374   4.236  15.547 -0.5907  0.1104 -0.4340
 5609TIP3    H138242   2.459   4.194  15.537  0.3773  2.1638 -1.2411
 5609TIP3    H238243   2.310   4.171  15.518  0.6648 -1.5795  0.5070
 5610TIP3   OH238244   1.883   4.496   2.224 -0.0389 -0.1272 -0.0218
 5610TIP3    H138245   1.841   4.420   2.184  1.4096 -2.3432  2.4790
 5610TIP3    H238246   1.810   4.556   2.244 -1.3122 -1.2480 -1.2040
 5611TIP3   OH238247   2.685   5.682   2.704 -0.6055 -0.2832  0.1816
 5611TIP3    H138248   2.735   5.648   2.778 -1.6943 -0.0550  1.0370
 5611TIP3    H238249   2.740   5.664   2.628  1.3696  1.1026  1.2143
 5612TIP3   OH238250   3.669   1.810  12.395  0.0202  0.1244  0.4554
 5612TIP3    H138251   3.729   1.865  12.446 -0.6586  0.1834  1.1877
 5612TIP3    H238252   3.727   1.754  12.344  0.7175  1.0214  0.2391
 5613TIP3   OH238253   0.665   2.353   1.456  0.4469 -0.0429  0.9309
 5613TIP3    H138254   0.651   2.260   1.472  0.5217 -0.9973 -3.9012
 5613TIP3    H238255   0.760   2.362   1.447  0.2949  0.0694 -0.7288
 5614TIP3   OH238256   3.437   5.133   5.891 -0.3651  0.2700 -0.1101
 5614TIP3    H138257   3.513   5.082   5.920 -0.4830 -0.4456 -1.0333
 5614TIP3    H238258   3.474   5.215   5.860 -0.1707  0.7582  1.3823
 5615TIP3   OH238259   2.814   1.301   3.142 -0.0393  0.1393 -0.4042
 5615TIP3    H138260   2.789   1.283   3.051 -0.6509  0.3238 -0.2750
 5615TIP3    H238261   2.883   1.238   3.161  0.4746  0.4639 -1.1803
 5616TIP3   OH238262   2.512   3.969   0.291  0.2026  0.2347 -0.7834
 5616TIP3    H138263   2.540   3.880   0.270  2.1007  0.7087 -0.3711
 5616TIP3    H238264   2.449   3.991   0.223  1.9682 -0.3475 -2.6746
 5617TIP3   OH238265   3.289   5.758   1.828 -0.1485 -0.2003  0.5568
 5617TIP3    H138266   3.222   5.693   1.851 -1.3849  1.5090  1.9494
 5617TIP3    H238267   3.246   5.815   1.763  0.3323  0.2448  0.6239
 5618TIP3   OH238268   0.182   4.181  15.356 -0.1035  0.0684 -0.4696
 5618TIP3    H138269   0.269   4.158  15.390 -0.3186 -1.3872 -0.8795
 5618TIP3    H238270   0.180   4.277  15.360  1.4512  0.1145 -0.2829
 5619TIP3   OH238271   6.606   5.324   3.048 -0.0804 -0.6577 -0.4733
 5619TIP3    H138272   6.538   5.378   3.088  0.5843  1.4240 -2.0938
 5619TIP3    H238273   6.559   5.258   2.997 -0.9088 -2.2685  2.2339
 5620TIP3   OH238274   3.518   6.772   6.076  0.2624 -0.0867 -0.3601
 5620TIP3    H138275   3.499   6.793   6.167  0.1162  0.1979 -0.4552
 5620TIP3    H238276   3.482   6.684   6.063 -1.5233  0.6866 -0.7161
 5621TIP3   OH238277   3.914   2.714   5.485 -0.2146 -0.5434 -0.2486
 5621TIP3    H138278   3.867   2.721   5.567  1.4467 -0.1370  0.6998
 5621TIP3    H238279   3.891   2.793   5.436  0.5915  0.3515  0.8008
 5622TIP3   OH238280   6.311   1.119   5.540  0.5916  0.0871  0.0218
 5622TIP3    H138281   6.327   1.026   5.522 -1.6334 -0.4929  0.8408
 5622TIP3    H238282   6.347   1.134   5.628 -0.5932 -0.4482  0.6073
 5623TIP3   OH238283   5.019   2.705   5.532  0.3563  0.0932 -0.1907
 5623TIP3    H138284   4.976   2.785   5.562 -2.7520 -1.4045 -0.4055
 5623TIP3    H238285   5.112   2.726   5.533 -0.3558  3.6116  0.0047
 5624TIP3   OH238286   1.044   1.820   2.156  0.2903  0.0262  0.2922
 5624TIP3    H138287   0.950   1.822   2.138 -0.1225  0.1625  2.3934
 5624TIP3    H238288   1.057   1.738   2.203  1.2133  0.0759  0.1290
 5625TIP3   OH238289   5.918   4.875  13.779 -0.1064  0.3322 -0.0998
 5625TIP3    H138290   5.965   4.877  13.862 -1.1758  0.1844  0.5241
 5625TIP3    H238291   5.974   4.825  13.720 -0.5519 -1.8781  1.3072
 5626TIP3   OH238292   4.698   5.818  12.271  0.7055 -0.0083 -0.4633
 5626TIP3    H138293   4.787   5.791  12.294  0.7643  0.6861  0.1333
 5626TIP3    H238294   4.657   5.841  12.354  0.4933  1.2444 -0.9037
 5627TIP3   OH238295   0.920   0.939  14.890  0.1091 -0.5994  0.0826
 5627TIP3    H138296   0.977   1.013  14.872  0.1105 -0.7919 -0.7185
 5627TIP3    H238297   0.849   0.976  14.944  0.9397 -0.3493  1.0131
 5628TIP3   OH238298   5.172   1.776  16.248 -0.3064  0.4587 -0.1289
 5628TIP3    H138299   5.201   1.758  16.158  3.2027 -0.0416  1.0442
 5628TIP3    H238300   5.155   1.689  16.285  0.7008  0.5152  0.4685
 5629TIP3   OH238301   4.667   1.942  10.548  0.4416 -0.7912  0.1693
 5629TIP3    H138302   4.630   2.018  10.592 -2.8052 -1.3530 -1.4524
 5629TIP3    H238303   4.748   1.974  10.509  0.1439  1.2948  1.1980
 5630TIP3   OH238304   5.643   5.096  12.275 -0.3355 -0.1188  0.0525
 5630TIP3    H138305   5.621   5.120  12.185  0.4484  0.1574 -0.0771
 5630TIP3    H238306   5.735   5.121  12.284 -0.4144 -0.1214  0.9406
 5631TIP3   OH238307   2.134   0.413  15.517 -0.3406  0.5702  0.0979
 5631TIP3    H138308   2.137   0.322  15.487  2.5403  0.8989 -0.7346
 5631TIP3    H238309   2.175   0.411  15.603 -0.7812  0.9967  0.3171
 5632TIP3   OH238310   3.099   4.943  16.555  0.3952  0.0055 -0.2202
 5632TIP3    H138311   3.107   4.972  16.645  2.8501 -1.7702  0.1958
 5632TIP3    H238312   3.085   5.023  16.505  0.1553  1.1250  1.6049
 5633TIP3   OH238313   6.168   1.762  14.017 -0.4109 -0.2841 -0.1509
 5633TIP3    H138314   6.257   1.732  14.002 -0.4925 -0.4083 -0.3803
 5633TIP3    H238315   6.141   1.802  13.934 -0.9396 -1.1861 -0.4195
 5634TIP3   OH238316   3.904   6.689  13.952 -0.1462  0.3876 -0.1531
 5634TIP3    H138317   3.962   6.618  13.979  0.8214  1.2862  0.1604
 5634TIP3    H238318   3.886   6.672  13.860  1.4176  0.6499 -0.5164
 5635TIP3   OH238319   3.223   2.301   1.226  0.8486  0.7974 -0.3577
 5635TIP3    H138320   3.169   2.358   1.279  0.0654  0.8095 -1.1651
 5635TIP3    H238321   3.262   2.358   1.160  1.6815  0.7526  0.0847
 5636TIP3   OH238322   5.736   0.832  16.856 -0.0100  0.2442  0.6131
 5636TIP3    H138323   5.752   0.760  16.796  1.8058  0.8200  0.3584
 5636TIP3    H238324   5.748   0.794  16.943  0.7097  0.1714  0.4876
 5637TIP3   OH238325   4.401   0.303   1.095  0.2116  0.1165 -0.1925
 5637TIP3    H138326   4.306   0.289   1.090  0.2971 -1.0465  1.0901
 5637TIP3    H238327   4.414   0.392   1.063 -1.2982  0.2373 -0.5070
 5638TIP3   OH238328   6.562   3.671   5.658  0.0515  0.3923  0.0250
 5638TIP3    H138329   6.598   3.583   5.670  1.1883  0.7926 -0.3906
 5638TIP3    H238330   6.600   3.702   5.576 -1.5696  0.6711 -0.6382
 5639TIP3   OH238331   5.834   0.058  13.842 -0.1710  0.3415  0.2951
 5639TIP3    H138332   5.746   0.074  13.808  0.9467 -0.0343 -2.9727
 5639TIP3    H238333   5.835  -0.034  13.866 -0.7289  0.3978  0.5277
 5640TIP3   OH238334   6.088   0.290  11.614  0.7640 -0.0300 -0.3072
 5640TIP3    H138335   6.084   0.223  11.682  2.8044  0.0168 -0.1320
 5640TIP3    H238336   6.092   0.240  11.532  0.9599 -0.1042 -0.2518
 5641TIP3   OH238337   2.953   2.195   5.658  0.0607 -0.2799  0.4285
 5641TIP3    H138338   2.996   2.181   5.574  2.0027 -0.1935  1.3939
 5641TIP3    H238339   2.872   2.242   5.636 -0.2739 -1.7116 -1.5435
 5642TIP3   OH238340   0.641   5.881   4.537 -0.1380  0.2997  0.2325
 5642TIP3    H138341   0.631   5.787   4.518  0.0206 -0.1319  2.1741
 5642TIP3    H238342   0.653   5.885   4.632  0.4316  2.2539  0.1004
 5643TIP3   OH238343   0.687   3.332   1.028  0.1846  0.3560  0.4987
 5643TIP3    H138344   0.687   3.267   0.957 -2.5377 -2.1630  2.7225
 5643TIP3    H238345   0.606   3.381   1.015  0.4224  0.8736  0.9970
 5644TIP3   OH238346   3.120   3.160   1.125  0.0551 -0.4150 -0.0543
 5644TIP3    H138347   3.158   3.240   1.162  0.3714  0.2461 -1.7715
 5644TIP3    H238348   3.187   3.127   1.065  0.2723 -2.4483  1.2539
 5645TIP3   OH238349   0.819   0.348   0.059  0.4368  0.0349 -0.4347
 5645TIP3    H138350   0.807   0.272   0.003  2.1146 -1.2397  0.9086
 5645TIP3    H238351   0.764   0.331   0.135  2.1471 -0.6530  0.6587
 5646TIP3   OH238352   5.043   5.005  11.076 -0.0922 -0.2513  0.4919
 5646TIP3    H138353   5.084   4.956  11.147  1.7909 -0.3788 -0.6231
 5646TIP3    H238354   5.032   5.094  11.111  0.2155 -0.4747  1.1609
 5647TIP3   OH238355   3.951   4.236  11.076  0.2916 -0.0834  0.5885
 5647TIP3    H138356   3.967   4.182  11.153  0.6770  0.2380  0.7344
 5647TIP3    H238357   4.022   4.300  11.076  2.4060 -2.2806 -2.0466
 5648TIP3   OH238358   4.200   4.629  14.293 -0.3095 -0.1744 -0.3254
 5648TIP3    H138359   4.259   4.554  14.291 -0.4666 -0.2899 -0.5112
 5648TIP3    H238360   4.202   4.664  14.204 -0.6313 -0.2623 -0.3685
 5649TIP3   OH238361   1.869   4.632  14.837 -1.0604 -0.4206 -0.2349
 5649TIP3    H138362   1.888   4.621  14.744 -3.6253  0.1107 -0.8691
 5649TIP3    H238363   1.934   4.695  14.868 -1.8569  1.4953 -2.3085
 5650TIP3   OH238364   2.910   2.598  10.976 -0.0291  0.6528 -0.0643
 5650TIP3    H138365   2.999   2.628  10.961  0.6445 -1.4749 -0.5228
 5650TIP3    H238366   2.863   2.618  10.895  0.3510  0.6309 -0.2894
 5651TIP3   OH238367   6.090   3.662   5.582  0.2864  0.3554 -0.3909
 5651TIP3    H138368   6.089   3.584   5.527  4.1939  0.3781 -0.5894
 5651TIP3    H238369   6.017   3.715   5.550 -1.4659 -2.4632 -1.2701
 5652TIP3   OH238370   4.739   2.003   0.541  0.0935 -0.0743  0.3097
 5652TIP3    H138371   4.803   2.029   0.475 -0.0234 -2.8536 -0.9829
 5652TIP3    H238372   4.673   1.953   0.492 -1.9778  0.9739  1.9432
 5653TIP3   OH238373   1.408   1.389  14.481  0.2281 -0.0390  0.0047
 5653TIP3    H138374   1.430   1.381  14.573  1.5016  0.3406 -0.2525
 5653TIP3    H238375   1.480   1.440  14.443 -0.1100 -0.4732 -1.2571
 5654TIP3   OH238376   1.956   6.406   1.952 -0.6847  0.3133  0.3046
 5654TIP3    H138377   1.922   6.338   2.010 -1.5941 -1.7419 -2.5090
 5654TIP3    H238378   2.049   6.386   1.943 -0.3990  1.0415  1.5540
 5655TIP3   OH238379   0.926   0.131   2.492 -0.2920  0.7947 -0.3313
 5655TIP3    H138380   0.912   0.207   2.436 -1.0419  1.4783  0.7679
 5655TIP3    H238381   0.899   0.160   2.580 -0.3016 -0.6366  0.1524
 5656TIP3   OH238382   3.454   2.503   3.577  0.1927  0.0460 -0.3709
 5656TIP3    H138383   3.392   2.569   3.547 -0.3649  0.1518  1.0073
 5656TIP3    H238384   3.523   2.553   3.621  0.2004 -0.2359 -0.0637
 5657TIP3   OH238385   4.367   1.017   0.039 -0.6541 -0.1322  0.6995
 5657TIP3    H138386   4.296   0.963   0.072  1.7971 -3.7555  0.3619
 5657TIP3    H238387   4.355   1.018  -0.056 -0.4516 -0.4992  0.6668
 5658TIP3   OH238388   4.083   1.186   2.348 -0.3938 -0.0898 -0.0221
 5658TIP3    H138389   4.016   1.119   2.333 -1.1115  0.4071  0.8936
 5658TIP3    H238390   4.042   1.247   2.409 -0.1500  1.7922 -1.6867
 5659TIP3   OH238391   4.091   1.476   3.232 -0.0222 -0.8100  0.4232
 5659TIP3    H138392   4.036   1.398   3.235  0.2018 -0.9643  0.5670
 5659TIP3    H238393   4.162   1.454   3.171 -0.2860 -0.5010 -0.0004
 5660TIP3   OH238394   4.144   6.334   1.975  0.0150  0.1483 -0.1423
 5660TIP3    H138395   4.119   6.327   1.883 -1.3261  1.0832  0.1406
 5660TIP3    H238396   4.095   6.409   2.008  1.2205  0.4214  1.1055
 5661TIP3   OH238397   1.577   1.316  15.875 -0.0333  0.1191 -0.2273
 5661TIP3    H138398   1.597   1.400  15.917 -1.2973  1.8595 -2.9739
 5661TIP3    H238399   1.661   1.270  15.872  0.7117  1.3550  1.1260
 5662TIP3   OH238400   3.769   0.153   4.350 -0.2573  0.1509 -0.7474
 5662TIP3    H138401   3.783   0.102   4.270 -1.3113 -1.0596 -0.1794
 5662TIP3    H238402   3.820   0.233   4.337  0.4658 -0.5253 -2.1582
 5663TIP3   OH238403   4.122   2.734  16.249 -0.2373  0.0319  0.2051
 5663TIP3    H138404   4.076   2.659  16.210 -1.5860  0.6360  0.6029
 5663TIP3    H238405   4.097   2.731  16.342  2.5266 -1.0858  0.9557
 5664TIP3   OH238406   1.687   5.332   4.782  0.5863  0.0473 -0.0912
 5664TIP3    H138407   1.704   5.387   4.706 -1.7391  0.5619 -0.2668
 5664TIP3    H238408   1.764   5.275   4.788  2.2696  2.1759 -0.8812
 5665TIP3   OH238409   1.027   6.207   4.680  0.5307  0.1685 -0.3534
 5665TIP3    H138410   1.043   6.114   4.697  0.4136  0.3843  1.0195
 5665TIP3    H238411   0.980   6.209   4.597  2.0441 -0.8833 -1.2737
 5666TIP3   OH238412   6.303   6.365  12.022 -0.0801 -0.9360 -0.3585
 5666TIP3    H138413   6.281   6.455  12.047 -1.0413 -0.5657 -2.3673
 5666TIP3    H238414   6.377   6.374  11.962  2.1496 -1.7891  2.1765
 5667TIP3   OH238415   6.236   4.797  14.083 -0.4156  0.1270 -0.7742
 5667TIP3    H138416   6.318   4.764  14.121 -0.7940  1.0336  0.8768
 5667TIP3    H238417   6.257   4.885  14.052 -1.1044  0.9169  0.9460
 5668TIP3   OH238418   5.447   4.726  10.424 -0.5502 -0.0639  0.4211
 5668TIP3    H138419   5.367   4.778  10.421 -1.5879 -1.6672 -0.6285
 5668TIP3    H238420   5.466   4.717  10.517 -1.4661  0.5226  0.6762
 5669TIP3   OH238421   0.739   6.146  13.836  0.3919 -0.6395  0.3793
 5669TIP3    H138422   0.648   6.137  13.864 -0.4520  0.0014 -2.0379
 5669TIP3    H238423   0.759   6.063  13.792  0.4735 -0.1784 -0.4525
 5670TIP3   OH238424   1.290   1.297  15.835  0.1851 -0.8293  0.2908
 5670TIP3    H138425   1.378   1.334  15.842 -0.0878 -0.1248 -0.0247
 5670TIP3    H238426   1.305   1.203  15.825  0.9369 -0.5987 -0.8042
 5671TIP3   OH238427   4.054   2.633   4.730 -0.2513  0.0079  0.2234
 5671TIP3    H138428   3.962   2.654   4.740 -0.2143  0.4836 -0.3777
 5671TIP3    H238429   4.083   2.688   4.657  0.6023  0.1630  0.6732
 5672TIP3   OH238430   6.489   4.409   3.486  0.0127 -0.2569 -0.1504
 5672TIP3    H138431   6.492   4.460   3.405 -1.7193  2.1606  1.2477
 5672TIP3    H238432   6.581   4.392   3.507  0.5705  1.2671 -1.2812
 5673TIP3   OH238433   2.190   3.812  11.608  0.0298 -0.5381 -0.2779
 5673TIP3    H138434   2.245   3.733  11.611  0.5147 -0.1727  0.8517
 5673TIP3    H238435   2.251   3.885  11.618 -0.5144 -0.0584 -0.4046
 5674TIP3   OH238436   0.770   1.945  13.748 -0.0134  0.0241 -0.4696
 5674TIP3    H138437   0.775   2.013  13.815 -0.3960 -1.5237  1.1602
 5674TIP3    H238438   0.719   1.985  13.678  1.1288  1.9679 -0.2193
 5675TIP3   OH238439   6.288   4.019  11.732 -0.4161  0.1433  0.3387
 5675TIP3    H138440   6.316   3.994  11.820  0.4416  1.3537  0.4196
 5675TIP3    H238441   6.369   4.037  11.684 -0.8802 -0.4197 -0.6802
 5676TIP3   OH238442   1.837   2.625  11.105  0.4584  0.8180  0.2932
 5676TIP3    H138443   1.787   2.638  11.025  1.2664 -2.1082 -0.7546
 5676TIP3    H238444   1.928   2.619  11.076  0.7535 -0.3942  1.4179
 5677TIP3   OH238445   1.523   3.951  11.029 -0.1687 -1.0221 -0.1886
 5677TIP3    H138446   1.452   3.937  10.966 -1.8603 -2.4432  1.9872
 5677TIP3    H238447   1.510   4.041  11.059 -0.8335 -1.1522 -0.0701
 5678TIP3   OH238448   0.272   5.349   0.578 -0.2145 -0.2350 -0.2315
 5678TIP3    H138449   0.299   5.330   0.488  0.6346 -1.3579  0.2546
 5678TIP3    H238450   0.189   5.303   0.588  0.9338 -2.2416  0.3532
 5679TIP3   OH238451   5.675   1.094  16.830 -0.1716 -0.0426 -0.1971
 5679TIP3    H138452   5.759   1.124  16.795 -1.4759 -0.2108 -3.6538
 5679TIP3    H238453   5.684   0.999  16.835 -0.4762 -0.1491 -1.5197
 5680TIP3   OH238454   0.093   4.182   5.023 -0.0743 -0.7638  0.5951
 5680TIP3    H138455   0.148   4.108   5.000 -1.6483 -1.8653  0.3250
 5680TIP3    H238456   0.109   4.196   5.116  0.6547 -1.0743  0.5184
 5681TIP3   OH238457   4.504   3.930  12.280 -0.4335  0.0578 -0.3130
 5681TIP3    H138458   4.581   3.872  12.274 -0.3208  0.1745  0.0005
 5681TIP3    H238459   4.456   3.913  12.199 -0.0833 -0.0256 -0.5094
 5682TIP3   OH238460   3.782   1.788  11.174  0.0242  0.1864 -0.5554
 5682TIP3    H138461   3.728   1.863  11.149 -1.5367 -0.9858 -0.6939
 5682TIP3    H238462   3.839   1.823  11.244 -0.3313  1.6246 -0.9635
 5683TIP3   OH238463   6.030   2.477  16.976 -0.4622  0.7359 -0.1627
 5683TIP3    H138464   5.980   2.421  16.918 -2.6511 -1.4700  3.6874
 5683TIP3    H238465   6.118   2.439  16.977 -0.5787  0.4110 -1.4339
 5684TIP3   OH238466   4.610   4.169  16.604 -0.2598 -0.8048 -0.2438
 5684TIP3    H138467   4.524   4.211  16.609  0.7226  1.1282  1.5151
 5684TIP3    H238468   4.639   4.183  16.514 -1.6321 -1.1397 -0.7381
 5685TIP3   OH238469   3.313   3.144  13.591  0.1082 -0.5428 -0.1748
 5685TIP3    H138470   3.283   3.066  13.637 -0.2196 -0.7461 -0.7330
 5685TIP3    H238471   3.254   3.152  13.515  1.7069 -1.1908 -1.5199
 5686TIP3   OH238472   6.042   1.727  12.578 -0.3901  0.4046 -0.4549
 5686TIP3    H138473   6.107   1.776  12.529 -0.5421  0.0744 -0.9882
 5686TIP3    H238474   5.958   1.762  12.548 -0.4854  0.1782 -0.4451
 5687TIP3   OH238475   2.528   2.924   2.211  0.0800  0.0412 -0.2761
 5687TIP3    H138476   2.549   2.852   2.270 -0.5323 -0.6253 -0.8728
 5687TIP3    H238477   2.468   2.979   2.262 -1.0683 -0.9458 -0.5503
 5688TIP3   OH238478   3.891   3.297   0.629 -0.4035 -0.2275  0.4768
 5688TIP3    H138479   3.881   3.228   0.694 -0.3233  0.8582  1.6548
 5688TIP3    H238480   3.854   3.260   0.549 -0.1438 -1.7150  1.0375
 5689TIP3   OH238481   5.287   6.673  13.866 -0.1671 -0.2029  0.3049
 5689TIP3    H138482   5.232   6.750  13.849  0.6980  0.6371  1.3079
 5689TIP3    H238483   5.269   6.650  13.957  0.0044 -0.8411  0.1789
 5690TIP3   OH238484   1.385   5.347   1.243 -0.5739  0.3708 -0.6003
 5690TIP3    H138485   1.362   5.430   1.201 -1.0957  2.0294  2.7301
 5690TIP3    H238486   1.480   5.340   1.234 -0.6304  0.9270 -1.6328
 5691TIP3   OH238487   2.319   0.145  11.006 -0.8141 -0.3620 -0.2909
 5691TIP3    H138488   2.402   0.098  11.008 -0.3244  0.4675 -1.0424
 5691TIP3    H238489   2.343   0.236  10.994 -1.8202 -0.0556 -0.0394
 5692TIP3   OH238490   6.724   0.381  13.693 -0.0450  0.1829 -0.3905
 5692TIP3    H138491   6.645   0.368  13.640 -0.3821  0.3273  0.0782
 5692TIP3    H238492   6.777   0.304  13.676 -0.8332 -0.5088  0.2577
 5693TIP3   OH238493   5.472   4.217  17.102  0.1096  0.2263 -0.7474
 5693TIP3    H138494   5.534   4.184  17.037 -0.1543 -1.5825 -0.1158
 5693TIP3    H238495   5.416   4.277  17.053  0.6016 -0.2710 -1.9394
 5694TIP3   OH238496   5.572   4.510   1.863 -0.4094 -0.3440  0.0541
 5694TIP3    H138497   5.624   4.466   1.796 -0.0282  1.3710 -0.8222
 5694TIP3    H238498   5.507   4.446   1.890  0.4735 -1.6056 -0.7884
 5695TIP3   OH238499   0.503   2.959   3.762  0.4032  0.1565  0.3969
 5695TIP3    H138500   0.512   2.926   3.672 -1.4381  1.2761 -0.2379
 5695TIP3    H238501   0.542   3.046   3.759 -1.0075  0.8119  0.2580
 5696TIP3   OH238502   0.765   3.777  10.404 -0.0080  0.1673  0.4557
 5696TIP3    H138503   0.754   3.689  10.439  2.4099 -1.1621 -1.9686
 5696TIP3    H238504   0.687   3.791  10.349 -0.5695 -0.2919  1.1310
 5697TIP3   OH238505   3.654   2.525   1.654 -0.2094  0.8501 -0.4808
 5697TIP3    H138506   3.598   2.449   1.636 -1.1589  1.0879  1.3007
 5697TIP3    H238507   3.656   2.573   1.572  0.1814 -0.9645 -1.5526
 5698TIP3   OH238508   2.074   3.443  12.351  0.6041 -0.1088  0.2890
 5698TIP3    H138509   1.989   3.478  12.381 -0.1087 -1.6148  0.0767
 5698TIP3    H238510   2.124   3.429  12.431  0.5868  0.6267  0.4290
 5699TIP3   OH238511   6.316   0.652  13.024  0.4320 -0.3110 -0.0302
 5699TIP3    H138512   6.270   0.638  12.942  1.0761  1.0002 -0.6287
 5699TIP3    H238513   6.250   0.691  13.082 -0.2380 -1.9676  0.3374
 5700TIP3   OH238514   5.549   1.770  15.349  0.0830 -0.2920  0.6217
 5700TIP3    H138515   5.614   1.701  15.366  2.0876  2.1155  3.2440
 5700TIP3    H238516   5.506   1.783  15.433 -2.7957 -0.7792 -0.7342
 5701TIP3   OH238517   0.790   6.429   2.218 -0.5774 -0.2978 -0.1390
 5701TIP3    H138518   0.814   6.361   2.156  1.6771  0.9754 -0.7377
 5701TIP3    H238519   0.866   6.438   2.275 -0.6362  2.0150 -0.3625
 5702TIP3   OH238520   2.641   3.324  13.863  0.0087 -0.0709 -0.9726
 5702TIP3    H138521   2.683   3.306  13.947  0.3505  0.6252 -0.9898
 5702TIP3    H238522   2.712   3.355  13.807 -0.3194 -0.0008 -1.3514
 5703TIP3   OH238523   5.655   5.354   5.026 -0.5360  0.4321  0.1029
 5703TIP3    H138524   5.626   5.268   5.054 -0.0747  0.2418 -0.0027
 5703TIP3    H238525   5.724   5.337   4.962 -0.4323  0.8781  0.0912
 5704TIP3   OH238526   4.321   2.492  12.731  0.0685  0.0476  0.2609
 5704TIP3    H138527   4.390   2.451  12.782  0.9410  0.3102 -0.6824
 5704TIP3    H238528   4.335   2.586  12.741 -0.4103  0.1049  0.4110
 5705TIP3   OH238529   6.682   2.745   5.341 -0.2378  0.4342  0.0538
 5705TIP3    H138530   6.668   2.736   5.246 -0.7223  0.5770  0.1092
 5705TIP3    H238531   6.777   2.742   5.351 -0.2331 -0.9785 -0.2967
 5706TIP3   OH238532   5.515   4.194   1.548 -0.0233 -0.0349 -0.4092
 5706TIP3    H138533   5.508   4.288   1.534 -0.3736 -0.0936 -0.6322
 5706TIP3    H238534   5.593   4.168   1.501 -0.7987 -0.1166 -1.6613
 5707TIP3   OH238535   6.670   6.346  12.700  0.7383 -0.6179  0.4131
 5707TIP3    H138536   6.577   6.323  12.704 -0.0875  2.1887 -0.8815
 5707TIP3    H238537   6.697   6.323  12.611  0.5853  0.8942 -0.0395
 5708TIP3   OH238538   4.232   5.033   0.251  0.4400  0.2343  0.1407
 5708TIP3    H138539   4.252   5.101   0.315  1.9297  0.0276 -0.0760
 5708TIP3    H238540   4.202   4.959   0.303 -0.2003  0.6993  0.4487
 5709TIP3   OH238541   2.009   5.661  13.496  0.4580  0.0588  0.6177
 5709TIP3    H138542   1.954   5.703  13.431 -0.9019 -3.3011 -0.4696
 5709TIP3    H238543   2.097   5.662  13.458  0.4586  1.8732  0.6271
 5710TIP3   OH238544   2.067   4.775  12.095 -0.4896 -0.1912  0.4762
 5710TIP3    H138545   2.032   4.792  12.007 -0.6775  0.4230  0.6662
 5710TIP3    H238546   2.150   4.822  12.098  0.2023 -1.3647  0.1481
 5711TIP3   OH238547   1.249   2.709   0.101 -0.0591  0.6719 -0.1879
 5711TIP3    H138548   1.288   2.669   0.023  0.9965 -1.0067  1.1678
 5711TIP3    H238549   1.298   2.791   0.112 -0.0533  0.8080 -1.1445
 5712TIP3   OH238550   4.461   2.556  15.960 -0.1887 -0.1911  0.9405
 5712TIP3    H138551   4.552   2.560  15.931 -0.5443 -0.2066 -0.1877
 5712TIP3    H238552   4.417   2.625  15.911 -0.9891 -0.8395  0.7299
 5713TIP3   OH238553   0.253   1.612   3.860  0.0318  0.4358 -0.5351
 5713TIP3    H138554   0.257   1.632   3.767 -0.8084  0.4828 -0.5631
 5713TIP3    H238555   0.160   1.618   3.882  0.2205  0.3712  0.2923
 5714TIP3   OH238556   5.822   5.604  10.403  0.2198  0.4691 -0.4311
 5714TIP3    H138557   5.789   5.593  10.493  0.7202  1.3187 -0.1340
 5714TIP3    H238558   5.779   5.535  10.353  0.1121 -0.1552  0.5139
 5715TIP3   OH238559   6.440   5.034  11.839  0.0211  0.0676  0.1203
 5715TIP3    H138560   6.377   5.038  11.911  0.6619 -0.5856  0.7304
 5715TIP3    H238561   6.520   5.001  11.879  0.9703  1.5721 -0.5116
 5716TIP3   OH238562   1.516   1.683   3.686 -0.4764 -0.3626  0.3512
 5716TIP3    H138563   1.535   1.596   3.651 -1.2683  0.2327 -1.6225
 5716TIP3    H238564   1.600   1.729   3.684 -0.0927 -1.0114  1.2375
 5717TIP3   OH238565   1.616   2.190   0.727 -0.4414 -0.0785 -0.1815
 5717TIP3    H138566   1.623   2.125   0.797 -0.1916  1.9023  1.6795
 5717TIP3    H238567   1.706   2.204   0.698 -0.4331 -0.1381 -0.1840
 5718TIP3   OH238568   2.490   6.302   1.842 -0.1188 -0.0190  0.0321
 5718TIP3    H138569   2.475   6.234   1.908 -1.1252  2.0159  2.0017
 5718TIP3    H238570   2.571   6.276   1.798  0.5690 -1.4834  2.0787
 5719TIP3   OH238571   6.061   4.753   5.823 -0.1407  0.0815  0.2016
 5719TIP3    H138572   6.101   4.757   5.737 -3.7365  2.3083 -1.5135
 5719TIP3    H238573   6.110   4.817   5.875  1.1993 -0.2960 -0.5804
 5720TIP3   OH238574   2.932   3.982  12.563 -0.0347 -0.1095 -0.4982
 5720TIP3    H138575   3.018   4.021  12.580  0.8759 -1.3342 -2.2374
 5720TIP3    H238576   2.929   3.971  12.468 -1.8329 -0.7304 -0.3773
 5721TIP3   OH238577   4.459   1.153   5.651  0.4132  0.0097  0.2154
 5721TIP3    H138578   4.452   1.137   5.557 -3.0732 -0.0845  0.4281
 5721TIP3    H238579   4.512   1.080   5.684  0.6430 -0.6064 -1.4957
 5722TIP3   OH238580   2.211   4.436   3.325  0.2661  0.8054 -0.8164
 5722TIP3    H138581   2.177   4.352   3.294 -0.6550  0.1304  1.8496
 5722TIP3    H238582   2.164   4.501   3.273 -0.2041 -0.2839 -1.7943
 5723TIP3   OH238583   0.740   4.524   3.593  0.1627 -0.1695 -0.2796
 5723TIP3    H138584   0.670   4.470   3.557  0.8266 -0.2663 -1.4464
 5723TIP3    H238585   0.803   4.462   3.628  0.4873 -0.1247 -0.7874
 5724TIP3   OH238586   1.880   5.252  14.847 -0.2124 -0.6506 -0.1405
 5724TIP3    H138587   1.883   5.162  14.879 -0.1127 -0.4213  0.4986
 5724TIP3    H238588   1.969   5.286  14.860  0.0444 -0.8203 -1.4316
 5725TIP3   OH238589   3.525   5.264   3.788  0.8259 -0.7457  0.5345
 5725TIP3    H138590   3.459   5.332   3.800  0.8011  0.0571 -3.5325
 5725TIP3    H238591   3.480   5.182   3.811 -0.7367  0.0806  0.4786
 5726TIP3   OH238592   3.292   1.881   4.958 -0.4721 -0.1115  0.3026
 5726TIP3    H138593   3.215   1.877   5.014  1.2118 -0.7099  2.6275
 5726TIP3    H238594   3.315   1.789   4.942 -0.1654  0.0618 -0.2828
 5727TIP3   OH238595   0.594   1.299   3.547  0.3807  0.2807 -0.9810
 5727TIP3    H138596   0.545   1.235   3.600  0.4851  0.7172 -0.3512
 5727TIP3    H238597   0.532   1.326   3.479  0.1980 -0.1771 -1.0016
 5728TIP3   OH238598   2.992   4.483  16.356 -0.1836  0.2997 -0.0919
 5728TIP3    H138599   2.975   4.530  16.438  1.6122  0.0443  0.4414
 5728TIP3    H238600   3.046   4.544  16.305  0.7338 -0.5039 -0.0862
 5729TIP3   OH238601   6.297   4.314   4.479  0.5933  0.0390 -0.1002
 5729TIP3    H138602   6.210   4.288   4.510 -0.1940  1.5674 -0.9421
 5729TIP3    H238603   6.302   4.408   4.499  1.3930  0.3205 -1.5694
 5730TIP3   OH238604   5.309   6.668   4.644 -0.0648 -0.2863  0.3417
 5730TIP3    H138605   5.285   6.576   4.655 -0.5334 -0.0146  1.6302
 5730TIP3    H238606   5.314   6.680   4.549 -4.0228 -0.6214  0.0233
 5731TIP3   OH238607   5.046   3.324   3.236  0.1123  0.1690  1.2235
 5731TIP3    H138608   5.075   3.393   3.296  0.5782  0.3299  0.8094
 5731TIP3    H238609   5.087   3.244   3.271 -0.5143  0.0805  1.7648
 5732TIP3   OH238610   4.106   5.288  15.237 -0.1551 -0.0935 -0.0627
 5732TIP3    H138611   4.138   5.312  15.324 -1.0532  0.7643  0.0343
 5732TIP3    H238612   4.171   5.225  15.205  1.2686  1.1228  0.3858
 5733TIP3   OH238613   1.404   4.000  13.767  0.1881  0.6475 -0.0726
 5733TIP3    H138614   1.342   4.045  13.825 -0.1104  0.5469 -0.3141
 5733TIP3    H238615   1.351   3.937  13.719  0.6155  0.0199  0.2826
 5734TIP3   OH238616   1.862   0.865   0.456  0.2225  0.1082 -0.0866
 5734TIP3    H138617   1.917   0.928   0.409  1.2235 -0.7977 -0.1529
 5734TIP3    H238618   1.787   0.852   0.398  0.2875  0.7969 -0.3381
 5735TIP3   OH238619   1.902   6.133  14.430 -0.4928 -0.3858 -0.5025
 5735TIP3    H138620   1.871   6.109  14.342 -0.6326 -0.6169 -0.3940
 5735TIP3    H238621   1.825   6.122  14.485 -0.9578  1.7759 -0.6904
 5736TIP3   OH238622   6.552   6.250   5.442  0.2184  0.7321 -0.4380
 5736TIP3    H138623   6.580   6.340   5.427  0.6021  0.9628  1.4755
 5736TIP3    H238624   6.460   6.248   5.415 -0.6452  2.4605  2.2003
 5737TIP3   OH238625   1.032   3.327  12.703  0.0243 -0.0272  0.7717
 5737TIP3    H138626   1.127   3.328  12.714  0.1916 -0.7049 -0.5172
 5737TIP3    H238627   1.009   3.234  12.698 -0.4455  0.1499 -0.9129
 5738TIP3   OH238628   4.576   4.764   1.210  0.5840  0.4670 -0.2718
 5738TIP3    H138629   4.554   4.671   1.202  0.6028  0.4158  0.2571
 5738TIP3    H238630   4.585   4.794   1.120 -0.5061  0.2114 -0.4701
 5739TIP3   OH238631   4.719   0.503   1.199 -0.6876  0.2207 -0.1188
 5739TIP3    H138632   4.722   0.511   1.104 -1.5597 -0.8332 -0.2454
 5739TIP3    H238633   4.797   0.453   1.222 -0.9549 -0.3147 -0.3729
 5740TIP3   OH238634   2.611   2.534   2.819  0.0456 -0.3150 -0.0410
 5740TIP3    H138635   2.660   2.600   2.770 -2.1497  0.3573 -1.3839
 5740TIP3    H238636   2.639   2.547   2.910  0.3905  1.8424 -0.4143
 5741TIP3   OH238637   2.261   0.652  10.868  0.2205 -0.0665 -0.2802
 5741TIP3    H138638   2.241   0.744  10.887 -1.6122 -0.3376 -0.8219
 5741TIP3    H238639   2.181   0.617  10.830  0.2933 -2.3580  1.5305
 5742TIP3   OH238640   2.445   5.284   0.926 -0.2313  0.3322 -0.3355
 5742TIP3    H138641   2.437   5.249   0.837  2.9283  0.6420 -0.7944
 5742TIP3    H238642   2.515   5.233   0.966 -1.3700  0.4679  1.8600
 5743TIP3   OH238643   6.609   6.228  15.501  0.1417  0.4480  0.7459
 5743TIP3    H138644   6.663   6.279  15.441 -0.1258  0.1169  0.2183
 5743TIP3    H238645   6.658   6.147  15.515  0.3566  0.6642  1.2299
 5744TIP3   OH238646   4.078   0.588   6.554 -0.5312 -0.1632  0.0329
 5744TIP3    H138647   4.167   0.614   6.577 -0.7616  0.9800 -0.3314
 5744TIP3    H238648   4.089   0.523   6.484  0.0801 -1.7329  1.5498
 5745TIP3   OH238649   1.943   4.053  16.256  0.5064 -0.0748 -0.6344
 5745TIP3    H138650   1.879   4.115  16.220  0.4465 -0.6029 -1.4349
 5745TIP3    H238651   1.901   3.967  16.245  0.2866 -0.2089  1.0970
 5746TIP3   OH238652   2.987   1.674  14.707 -0.3311 -0.0030 -0.2038
 5746TIP3    H138653   2.920   1.607  14.720 -0.0449  0.1597  2.3910
 5746TIP3    H238654   2.946   1.755  14.736  0.7802  0.1862  0.9125
 5747TIP3   OH238655   5.906   2.155   5.119 -0.0560  0.1909 -0.0247
 5747TIP3    H138656   5.877   2.135   5.030  0.6433  2.1232 -0.7209
 5747TIP3    H238657   6.000   2.136   5.119 -0.4434 -1.9455  0.9843
 5748TIP3   OH238658   0.740   0.628  12.581 -0.8245 -0.6148 -0.4898
 5748TIP3    H138659   0.694   0.586  12.654  1.0133 -1.4005  0.2404
 5748TIP3    H238660   0.696   0.595  12.503 -3.3970  0.9274  0.2491
 5749TIP3   OH238661   4.426   1.334  16.067  0.1770 -0.2106 -0.0417
 5749TIP3    H138662   4.366   1.294  16.130 -0.5899  2.6076  1.1247
 5749TIP3    H238663   4.513   1.321  16.105  0.1226 -2.2371 -0.5548
 5750TIP3   OH238664   1.415   5.360   5.339  0.1016 -0.8745  0.5243
 5750TIP3    H138665   1.501   5.378   5.300 -0.2851 -0.4658 -0.1386
 5750TIP3    H238666   1.426   5.384   5.431 -0.3321  2.6552 -0.2521
 5751TIP3   OH238667   0.939   1.778  16.390 -0.2372 -1.5108 -0.5507
 5751TIP3    H138668   1.027   1.759  16.423 -0.8599 -0.9138  1.5371
 5751TIP3    H238669   0.943   1.755  16.298  2.3591 -0.7227 -0.6830
 5752TIP3   OH238670   0.623   1.188  11.503  0.1896 -0.9662  0.3873
 5752TIP3    H138671   0.677   1.197  11.424 -1.7947 -0.1590 -0.9177
 5752TIP3    H238672   0.642   1.267  11.554  1.3422 -1.4043  0.6621
 5753TIP3   OH238673   4.303   3.167  16.415  0.1007  0.1208  0.4485
 5753TIP3    H138674   4.370   3.099  16.414 -0.9519 -0.9493 -1.6442
 5753TIP3    H238675   4.221   3.119  16.427 -0.8768  0.7268 -3.2987
 5754TIP3   OH238676   0.577   6.147  12.716 -0.1871 -0.6222  0.0315
 5754TIP3    H138677   0.563   6.106  12.802  0.1865 -0.3984  0.1997
 5754TIP3    H238678   0.545   6.236  12.726 -0.5374 -0.7222 -0.1900
 5755TIP3   OH238679   3.503   5.829   3.819 -0.0264  0.0066 -0.0068
 5755TIP3    H138680   3.464   5.887   3.753  0.3184 -0.1415 -0.3423
 5755TIP3    H238681   3.534   5.753   3.769 -0.2752 -0.3605  0.4054
 5756TIP3   OH238682   6.045   3.337   1.337 -0.0402 -0.1206 -0.0758
 5756TIP3    H138683   5.971   3.339   1.398 -0.0746  0.1837 -0.1262
 5756TIP3    H238684   6.054   3.427   1.307  0.7073 -0.0467  0.3527
 5757TIP3   OH238685   2.021   5.403  14.598  0.0742  0.6822 -0.3214
 5757TIP3    H138686   2.007   5.405  14.503 -2.4315  0.0289  0.0076
 5757TIP3    H238687   2.080   5.330  14.612 -0.3810  0.1185 -1.2881
 5758TIP3   OH238688   5.861   2.764  13.832  0.2059  0.1352  0.4922
 5758TIP3    H138689   5.851   2.723  13.746  1.8464 -0.1565  0.4326
 5758TIP3    H238690   5.804   2.712  13.889 -0.4305 -0.0443 -0.2814
 5759TIP3   OH238691   5.859   5.227   3.563 -0.4506 -0.1924 -0.2931
 5759TIP3    H138692   5.946   5.223   3.523 -0.1745 -1.3252  0.3918
 5759TIP3    H238693   5.854   5.147   3.615 -2.0310 -0.2795 -0.5783
 5760TIP3   OH238694   3.875   2.345   1.027  0.4643  0.1579  0.8525
 5760TIP3    H138695   3.934   2.372   1.097 -0.0657  1.9419  0.6456
 5760TIP3    H238696   3.931   2.296   0.966  1.6103  1.3213  0.9506
 5761TIP3   OH238697   2.323   0.099   3.770 -0.0818 -0.2947 -0.4164
 5761TIP3    H138698   2.276   0.033   3.822 -3.5958  2.2778 -0.1822
 5761TIP3    H238699   2.279   0.097   3.685  0.5009  0.9680 -0.7482
 5762TIP3   OH238700   6.613   2.386  12.548 -0.7042 -0.2229  0.0500
 5762TIP3    H138701   6.641   2.378  12.457 -0.7721 -0.6550  0.0648
 5762TIP3    H238702   6.688   2.423  12.593 -0.7366  0.1705 -0.2177
 5763TIP3   OH238703   0.857   0.630   2.465 -0.5283  0.1694  0.4807
 5763TIP3    H138704   0.764   0.640   2.483 -0.1316  1.5026  1.8989
 5763TIP3    H238705   0.900   0.669   2.541  1.1969  0.4829 -0.6342
 5764TIP3   OH238706   2.147   1.764  12.257 -0.2125  0.6750  0.3673
 5764TIP3    H138707   2.205   1.724  12.323 -0.9683 -0.1943  0.5228
 5764TIP3    H238708   2.108   1.839  12.302 -2.2095 -1.0352  1.6043
 5765TIP3   OH238709   2.789   1.429   2.183 -0.3932  0.1050  0.2439
 5765TIP3    H138710   2.884   1.420   2.183 -0.3872  0.1566  0.1279
 5765TIP3    H238711   2.766   1.446   2.274 -0.4215 -1.1720  0.4796
 5766TIP3   OH238712   5.174   5.100   3.892 -0.0492  0.1735  0.9023
 5766TIP3    H138713   5.233   5.165   3.930  0.8681 -1.8219  3.0157
 5766TIP3    H238714   5.135   5.056   3.968  0.7170 -2.9491 -0.4590
 5767TIP3   OH238715   1.925   3.772  14.928  0.8452 -0.5213 -0.0721
 5767TIP3    H138716   1.879   3.842  14.883  1.9747 -1.0480 -2.1059
 5767TIP3    H238717   1.859   3.703  14.938  0.3172 -0.0122  0.0122
 5768TIP3   OH238718   0.043   6.063   3.509  0.7246 -0.0535  0.7212
 5768TIP3    H138719   0.054   6.144   3.558  2.0047  0.2874 -0.0809
 5768TIP3    H238720   0.061   5.993   3.572  1.0011  0.3355  1.0717
 5769TIP3   OH238721   3.456   1.031  15.726  0.0339 -0.5229  0.2759
 5769TIP3    H138722   3.482   1.122  15.741  2.9442 -1.0006 -1.4829
 5769TIP3    H238723   3.531   0.979  15.754 -1.0301 -2.3031 -0.0663
 5770TIP3   OH238724   0.428   4.904  12.984 -0.1263  0.3326 -0.3534
 5770TIP3    H138725   0.346   4.946  13.010 -0.3422  0.8457 -1.8146
 5770TIP3    H238726   0.486   4.977  12.959  1.4982  0.1192  2.6171
 5771TIP3   OH238727   4.815   6.053   2.048 -0.5847 -0.3391  0.8411
 5771TIP3    H138728   4.863   6.095   1.976 -1.2596 -0.3300  0.3884
 5771TIP3    H238729   4.851   6.093   2.127 -1.0058  0.8847  0.4311
 5772TIP3   OH238730   0.191   6.611  14.050  0.2829 -0.0349 -0.1301
 5772TIP3    H138731   0.132   6.544  14.017  1.7446 -1.1830 -0.4243
 5772TIP3    H238732   0.155   6.693  14.016 -0.5402 -0.8142 -1.1701
 5773TIP3   OH238733   4.270   6.107  15.801  0.2029 -0.2359  0.0802
 5773TIP3    H138734   4.312   6.051  15.866  1.7233  1.7259  0.8555
 5773TIP3    H238735   4.310   6.082  15.718  0.0591 -1.0571  0.2581
 5774TIP3   OH238736   1.347   0.651  15.123  0.0724  0.0846 -0.4273
 5774TIP3    H138737   1.350   0.743  15.097  3.7181 -0.2995 -1.5922
 5774TIP3    H238738   1.349   0.653  15.218  1.3432  1.2121 -0.4621
 5775TIP3   OH238739   3.579   6.166   2.451 -0.5320 -0.0466 -0.3493
 5775TIP3    H138740   3.636   6.089   2.449  0.0335  0.3372  0.6744
 5775TIP3    H238741   3.508   6.141   2.511  1.0773  1.1847  2.1616
 5776TIP3   OH238742   4.138   1.238   2.719  0.2329 -0.0523 -0.2900
 5776TIP3    H138743   4.212   1.290   2.751  0.0307 -0.1299  0.3115
 5776TIP3    H238744   4.095   1.207   2.798  0.6173 -1.5360 -0.6412
 5777TIP3   OH238745   0.467   4.930  16.961  0.2490 -0.2422  0.5619
 5777TIP3    H138746   0.445   5.016  16.924 -0.5804  0.4276  2.5749
 5777TIP3    H238747   0.561   4.920  16.944  0.2377  0.8017 -0.1737
 5778TIP3   OH238748   3.287   3.926   3.768  0.5036 -0.4740  0.2966
 5778TIP3    H138749   3.357   3.861   3.757  0.0928 -0.6856 -1.0846
 5778TIP3    H238750   3.321   4.005   3.726 -0.2659 -0.7057 -0.7720
 5779TIP3   OH238751   4.106   3.810  11.302 -0.0142  0.1293 -0.1108
 5779TIP3    H138752   4.051   3.737  11.330  0.7986 -0.5907 -0.4079
 5779TIP3    H238753   4.071   3.886  11.350 -0.9336 -0.4197  0.0968
 5780TIP3   OH238754   2.244   5.806  15.307  0.4051 -0.3050  0.3194
 5780TIP3    H138755   2.198   5.856  15.374  2.0711 -0.4035  1.5438
 5780TIP3    H238756   2.299   5.870  15.263  0.5789 -0.5699  0.1512
 5781TIP3   OH238757   4.423   0.782  10.702  0.5787  0.0956 -0.0823
 5781TIP3    H138758   4.384   0.727  10.633  2.2600  0.5349 -1.4250
 5781TIP3    H238759   4.454   0.859  10.655  0.9321  0.8124  1.3354
 5782TIP3   OH238760   1.593   2.143  13.544 -0.0943 -0.0781  0.1506
 5782TIP3    H138761   1.640   2.071  13.585 -2.3387 -1.0841  1.0252
 5782TIP3    H238762   1.617   2.220  13.595 -0.0744 -0.7324  1.1415
 5783TIP3   OH238763   6.446   1.029   1.003 -0.0499  0.4273 -0.2977
 5783TIP3    H138764   6.446   0.947   0.953 -1.9204  1.2578 -1.7237
 5783TIP3    H238765   6.418   1.095   0.940 -1.7262  1.6310  1.6587
 5784TIP3   OH238766   6.780   4.265   0.330  0.1178  0.1785  0.0911
 5784TIP3    H138767   6.728   4.332   0.287 -1.3610 -0.9006  0.1698
 5784TIP3    H238768   6.824   4.310   0.402  0.1646  1.3223 -0.6466
 5785TIP3   OH238769   6.207   2.435  14.095  0.0265 -0.4774  0.1913
 5785TIP3    H138770   6.227   2.503  14.161  0.9652 -2.4939  2.0520
 5785TIP3    H238771   6.124   2.463  14.057 -0.4771  0.8283  2.1444
 5786TIP3   OH238772   6.463   2.461   1.875 -0.5206  0.2643  0.5955
 5786TIP3    H138773   6.400   2.431   1.941  0.2295 -1.2301  0.6629
 5786TIP3    H238774   6.521   2.520   1.923 -1.6488  1.3778  0.6112
 5787TIP3   OH238775   2.978   1.913   4.412 -0.4481  0.0674 -0.1652
 5787TIP3    H138776   2.884   1.931   4.402 -0.8682 -1.7137  0.4314
 5787TIP3    H238777   3.021   1.990   4.375 -2.1687  2.1839  1.9898
 5788TIP3   OH238778   4.964   5.899   5.352  0.3695 -0.6813 -0.0489
 5788TIP3    H138779   5.050   5.910   5.311  1.1347 -0.3406  1.6321
 5788TIP3    H238780   4.943   5.807   5.339 -0.4100 -0.1249 -3.1372
 5789TIP3   OH238781   3.635   6.201   5.060  0.3448  0.3423 -0.4072
 5789TIP3    H138782   3.596   6.148   4.990 -0.4418  1.4140 -0.7773
 5789TIP3    H238783   3.729   6.196   5.043  0.2208 -0.1880 -0.9690
 5790TIP3   OH238784   5.479   3.590   4.816  0.1456 -0.2827 -0.4609
 5790TIP3    H138785   5.521   3.645   4.750 -0.6093 -0.4371 -1.0674
 5790TIP3    H238786   5.551   3.539   4.854  0.7629  0.6796 -0.3159
 5791TIP3   OH238787   4.957   5.143   2.500  0.3001  0.1808 -0.0944
 5791TIP3    H138788   4.881   5.192   2.469 -1.5075 -2.4177  0.0925
 5791TIP3    H238789   4.925   5.053   2.512  3.3213 -0.9079  0.2690
 5792TIP3   OH238790   6.735   0.131  16.811  0.2701  0.2674 -0.7686
 5792TIP3    H138791   6.795   0.107  16.881  0.5547  0.2191 -1.0290
 5792TIP3    H238792   6.671   0.060  16.809 -0.5168  0.9428  0.3426
 5793TIP3   OH238793   2.933   4.495   1.985 -0.2442  0.0291  0.1712
 5793TIP3    H138794   2.850   4.531   1.954  0.8384  1.3359 -1.3071
 5793TIP3    H238795   2.965   4.442   1.912  1.1261  1.0750  0.0024
 5794TIP3   OH238796   6.215   3.824   5.974 -0.2572 -0.1047  0.1642
 5794TIP3    H138797   6.257   3.892   6.027 -0.1921 -0.4417  0.5566
 5794TIP3    H238798   6.255   3.833   5.888 -2.1501  2.0632 -0.5312
 5795TIP3   OH238799   1.893   5.202   3.327  0.1529  0.6250 -0.5209
 5795TIP3    H138800   1.828   5.270   3.308  1.5121  1.6098 -1.6804
 5795TIP3    H238801   1.917   5.217   3.418 -2.0774 -0.4557  0.2657
 5796TIP3   OH238802   5.781   2.782   3.133  0.2414 -0.1423  0.0290
 5796TIP3    H138803   5.781   2.746   3.044  2.5668 -3.1389  1.1568
 5796TIP3    H238804   5.868   2.820   3.143  0.0993 -0.0830  1.0855
 5797TIP3   OH238805   1.007   3.550   2.852 -0.0738  0.3250  0.1276
 5797TIP3    H138806   0.961   3.553   2.936  0.7079  1.3407  0.5234
 5797TIP3    H238807   0.988   3.634   2.811 -1.5004 -0.6480 -1.3060
 5798TIP3   OH238808   0.374   5.213  15.360 -0.4938  0.0673  0.4125
 5798TIP3    H138809   0.447   5.165  15.322 -0.4649 -0.2185  0.8312
 5798TIP3    H238810   0.386   5.303  15.330 -0.5408 -0.1810 -0.3651
 5799TIP3   OH238811   0.293   2.662  16.870 -0.0467  0.0344  0.3450
 5799TIP3    H138812   0.226   2.624  16.927 -0.6089  1.5157  0.7049
 5799TIP3    H238813   0.244   2.700  16.797  0.4320  0.7337  0.3819
 5800TIP3   OH238814   2.348   2.965  16.175 -0.2565 -0.5766 -0.6543
 5800TIP3    H138815   2.391   3.027  16.115 -1.4248 -0.7110 -1.6644
 5800TIP3    H238816   2.337   3.014  16.256  1.5831 -0.4669 -0.4576
 5801TIP3   OH238817   2.902   2.784  11.307  0.1266  0.4414 -0.0064
 5801TIP3    H138818   2.979   2.773  11.362 -1.9904 -0.9270  2.7870
 5801TIP3    H238819   2.876   2.695  11.284 -1.1696  0.8497 -0.1459
 5802TIP3   OH238820   0.802   6.429   3.680 -0.6384  0.1984 -0.2918
 5802TIP3    H138821   0.785   6.372   3.755 -0.0051  0.5452  0.1235
 5802TIP3    H238822   0.768   6.515   3.707  2.3550  1.0852  0.8489
 5803TIP3   OH238823   5.069   4.930   1.590 -0.1870  0.1052  0.0452
 5803TIP3    H138824   5.099   4.844   1.563  0.8427  0.6163 -0.4640
 5803TIP3    H238825   5.056   4.923   1.685 -0.0859 -0.5909  0.0077
 5804TIP3   OH238826   4.778   5.566  16.816  0.6508 -0.4438 -0.0327
 5804TIP3    H138827   4.774   5.542  16.908 -0.5607 -0.4925 -0.0870
 5804TIP3    H238828   4.839   5.503  16.777  2.2802  0.4708  0.9854
 5805TIP3   OH238829   0.600   3.256   6.008  0.0741  1.1807 -0.5415
 5805TIP3    H138830   0.658   3.325   5.978 -0.2247  0.8928 -1.7962
 5805TIP3    H238831   0.559   3.291   6.087  1.8780  1.4140  0.3056
 5806TIP3   OH238832   5.132   5.854  12.535 -0.1799  0.0730 -0.0896
 5806TIP3    H138833   5.205   5.815  12.583  0.6119  0.1658 -1.2257
 5806TIP3    H238834   5.160   5.943  12.515 -2.0020  1.2959  2.5169
 5807TIP3   OH238835   2.398   1.912  16.674  0.1391  0.8088  0.1333
 5807TIP3    H138836   2.434   1.829  16.707  0.3445 -0.0770 -2.2483
 5807TIP3    H238837   2.457   1.937  16.603 -1.1848  1.8727 -0.6023
 5808TIP3   OH238838   6.688   0.724   2.141 -1.2915 -0.2841 -0.4639
 5808TIP3    H138839   6.665   0.634   2.118 -1.1815 -0.3540 -0.3066
 5808TIP3    H238840   6.609   0.774   2.124 -1.2813 -0.3707 -0.7815
 5809TIP3   OH238841   4.101   4.057   2.958 -0.1473  0.3024  0.2649
 5809TIP3    H138842   4.169   4.093   2.903 -1.2003  1.1267 -0.5022
 5809TIP3    H238843   4.051   3.999   2.900 -0.6864  0.4454  0.5850
 5810TIP3   OH238844   0.707   6.481  12.373  0.0861  0.7997  0.3753
 5810TIP3    H138845   0.780   6.543  12.366 -0.2863  1.2962  0.8901
 5810TIP3    H238846   0.635   6.522  12.325 -0.2207  0.8609  0.8785
 5811TIP3   OH238847   6.413   4.225  14.438  0.4545  0.3145 -0.5389
 5811TIP3    H138848   6.415   4.321  14.446 -0.4864  0.2936  0.0132
 5811TIP3    H238849   6.419   4.193  14.527 -1.5060 -0.0901 -0.5298
 5812TIP3   OH238850   0.456   2.331  17.014 -0.2927 -0.6556 -0.4474
 5812TIP3    H138851   0.414   2.401  17.064  0.5789 -0.5363  0.1218
 5812TIP3    H238852   0.391   2.307  16.948 -0.9632  0.0425 -0.0502
 5813TIP3   OH238853   2.447   6.369  12.682 -0.0363 -0.3877  1.3876
 5813TIP3    H138854   2.518   6.431  12.662  0.8587 -1.1124  2.2578
 5813TIP3    H238855   2.492   6.290  12.710 -1.1749 -1.4138  0.3983
 5814TIP3   OH238856   0.867   5.002  16.676 -0.2909  0.1650  0.1488
 5814TIP3    H138857   0.830   5.036  16.594  1.7034  1.4641 -0.2278
 5814TIP3    H238858   0.938   4.944  16.648  0.5641  0.8153  0.9606
 5815TIP3   OH238859   2.811   5.772  13.290 -0.1114  0.0857  0.0427
 5815TIP3    H138860   2.728   5.744  13.250 -0.3127  0.3155  0.2940
 5815TIP3    H238861   2.872   5.701  13.270 -0.4592 -0.2482  0.1411
 5816TIP3   OH238862   3.744   5.423   4.503  0.5520 -0.1212 -0.1033
 5816TIP3    H138863   3.754   5.423   4.408  0.4039  1.3073 -0.1185
 5816TIP3    H238864   3.812   5.363   4.534  1.7041  0.7054 -0.9989
 5817TIP3   OH238865   6.268   2.588   1.488 -0.0277  0.3561  0.3322
 5817TIP3    H138866   6.178   2.567   1.466 -0.0526  1.2968 -0.5329
 5817TIP3    H238867   6.310   2.606   1.403  0.3261  2.3230  0.8874
 5818TIP3   OH238868   0.596   2.272   0.854  0.0017 -0.1771  0.0021
 5818TIP3    H138869   0.623   2.204   0.793 -0.5951 -0.4316  0.0237
 5818TIP3    H238870   0.580   2.349   0.800 -0.9443 -0.5206 -0.2171
 5819TIP3   OH238871   5.374   1.313  17.216  0.6988 -0.0577  0.2522
 5819TIP3    H138872   5.446   1.363  17.254  1.3199 -0.0113 -0.9560
 5819TIP3    H238873   5.360   1.240  17.277 -0.1493  1.5051  1.9827
 5820TIP3   OH238874   4.841   1.970  16.775  0.3818 -0.1247  0.1310
 5820TIP3    H138875   4.915   1.922  16.813 -0.6699 -0.8119  1.3626
 5820TIP3    H238876   4.789   1.902  16.731  0.0801  0.2320 -0.0635
 5821TIP3   OH238877   2.053   3.202  14.573  0.1077 -0.4719  0.1922
 5821TIP3    H138878   2.059   3.170  14.663 -0.2470 -0.5361  0.1913
 5821TIP3    H238879   1.984   3.149  14.533  0.5968 -0.7826 -0.2570
 5822TIP3   OH238880   4.231   5.457   3.774  0.2393  0.5925 -0.2090
 5822TIP3    H138881   4.216   5.363   3.776 -1.9721  0.9396  0.8122
 5822TIP3    H238882   4.147   5.494   3.747  1.7045  2.1649 -2.8161
 5823TIP3   OH238883   1.346   1.764   4.004 -0.3930  0.1214  0.0162
 5823TIP3    H138884   1.283   1.825   4.043 -0.6908  1.4924 -2.4456
 5823TIP3    H238885   1.300   1.729   3.927  2.0442  1.7401 -2.2932
 5824TIP3   OH238886   4.379   5.698   3.718  0.1383  0.1001  0.2242
 5824TIP3    H138887   4.380   5.642   3.795  2.3697 -2.3192 -1.5046
 5824TIP3    H238888   4.299   5.674   3.672 -0.3491  0.3833  0.9081
 5825TIP3   OH238889   1.686   1.415   4.830  0.3748  0.5011  0.4162
 5825TIP3    H138890   1.773   1.386   4.856  0.7907  1.5468  0.2005
 5825TIP3    H238891   1.627   1.346   4.863  1.2640 -0.1604  0.6347
 5826TIP3   OH238892   6.402   0.559   3.438  0.0711 -0.3407  0.5025
 5826TIP3    H138893   6.402   0.654   3.425  0.0024 -0.3376  0.5248
 5826TIP3    H238894   6.323   0.529   3.394  0.3191 -0.4390  0.1179
 5827TIP3   OH238895   6.574   2.052   0.492  0.7969 -0.1369 -0.1525
 5827TIP3    H138896   6.591   2.037   0.585  0.3504 -0.9938 -0.2022
 5827TIP3    H238897   6.652   2.098   0.461  0.6412  0.7783  0.7896
 5828TIP3   OH238898   6.450   4.910  15.445 -0.2323  0.5580  0.6198
 5828TIP3    H138899   6.357   4.892  15.456  0.0037 -0.0177  1.8146
 5828TIP3    H238900   6.460   4.935  15.353 -1.6235  1.0190  0.5923
 5829TIP3   OH238901   1.001   6.205  13.605 -1.0725 -0.2302 -0.2366
 5829TIP3    H138902   0.930   6.163  13.557 -2.4199  0.3532  1.1954
 5829TIP3    H238903   0.971   6.295  13.618 -1.0568 -0.5315  2.2357
 5830TIP3   OH238904   1.488   4.440   3.883 -0.3267 -0.3170 -0.2612
 5830TIP3    H138905   1.463   4.479   3.967 -1.3361 -0.9471 -0.2609
 5830TIP3    H238906   1.453   4.501   3.818 -1.2010 -0.7912 -0.2468
 5831TIP3   OH238907   2.298   4.793  17.127 -0.0061 -0.3944 -0.0692
 5831TIP3    H138908   2.266   4.705  17.147  0.6947 -1.1017 -1.9305
 5831TIP3    H238909   2.315   4.832  17.212  0.6946 -2.4435  0.7729
 5832TIP3   OH238910   0.934   0.316  15.816 -0.3213  0.1881  0.1170
 5832TIP3    H138911   0.960   0.224  15.818 -0.2099  0.0938 -3.3108
 5832TIP3    H238912   1.013   0.364  15.839 -0.3246 -0.5443  1.7011
 5833TIP3   OH238913   4.468   3.122   6.432 -0.5907  0.1730  0.2421
 5833TIP3    H138914   4.399   3.188   6.434 -2.0109 -1.2795  0.1601
 5833TIP3    H238915   4.528   3.153   6.364 -1.5949  1.0376 -0.2738
 5834TIP3   OH238916   0.007   5.244   0.484 -0.1926 -0.3087 -0.2551
 5834TIP3    H138917  -0.012   5.153   0.460  0.2110 -1.1480  2.4287
 5834TIP3    H238918  -0.019   5.295   0.407 -4.1682 -2.3005 -0.3798
 5835TIP3   OH238919   5.701   5.077   3.802 -0.4222  0.2377  0.4088
 5835TIP3    H138920   5.754   5.027   3.864  0.9384  1.3261  0.1350
 5835TIP3    H238921   5.693   5.164   3.841  0.6446  1.0089 -1.0173
 5836TIP3   OH238922   0.939   0.378  12.147  0.1207  0.1746  0.2913
 5836TIP3    H138923   1.030   0.406  12.141 -0.0530  0.8625  0.8183
 5836TIP3    H238924   0.894   0.424  12.077 -0.0026  0.5717  0.6294
 5837TIP3   OH238925   4.742   4.714  16.505 -0.1811  0.1012 -0.6144
 5837TIP3    H138926   4.733   4.747  16.415  4.0480 -1.4189 -1.6983
 5837TIP3    H238927   4.782   4.786  16.553 -1.0901  0.3819 -0.2593
 5838TIP3   OH238928   2.488   0.131   2.654 -0.3720 -0.0926 -0.6868
 5838TIP3    H138929   2.551   0.063   2.676 -1.0875 -0.3460  0.6303
 5838TIP3    H238930   2.414   0.115   2.711 -1.0819  1.0222 -1.2677
 5839TIP3   OH238931   1.601   6.196   2.262  0.3059  0.6606 -0.2463
 5839TIP3    H138932   1.573   6.233   2.178  1.4837  1.7448 -0.1730
 5839TIP3    H238933   1.640   6.270   2.309  2.5844 -0.6437 -0.0464
 5840TIP3   OH238934   3.345   4.174   3.655 -0.0668  0.9205 -0.6025
 5840TIP3    H138935   3.435   4.181   3.622 -0.4520  2.1073 -1.4310
 5840TIP3    H238936   3.337   4.249   3.715 -0.6330  1.0634 -0.8560
 5841TIP3   OH238937   4.931   0.861  14.822  0.1690 -0.2490 -0.1158
 5841TIP3    H138938   4.944   0.940  14.770 -2.0503 -0.5160 -1.1257
 5841TIP3    H238939   4.855   0.880  14.877 -0.1252 -1.5207 -0.0554
 5842TIP3   OH238940   3.408   2.725   2.423  0.5420  0.4697 -0.5528
 5842TIP3    H138941   3.446   2.671   2.493  0.0959  0.0957 -0.5989
 5842TIP3    H238942   3.350   2.785   2.469  0.8692  0.7628 -0.5231
 5843TIP3   OH238943   5.831   2.090  16.644 -0.1469 -0.3993 -0.0378
 5843TIP3    H138944   5.900   2.023  16.636 -0.2154 -0.3919 -0.7096
 5843TIP3    H238945   5.878   2.171  16.662  0.0694 -0.2807 -1.0967
 5844TIP3   OH238946   5.780   5.590  14.705  0.1399 -0.4476  0.4310
 5844TIP3    H138947   5.688   5.581  14.680 -0.0422 -1.2551  1.3838
 5844TIP3    H238948   5.818   5.503  14.691  0.8334 -0.0468 -0.2365
 5845TIP3   OH238949   3.989   0.650  16.012  0.3797 -0.2784 -0.6692
 5845TIP3    H138950   4.052   0.701  16.064  0.9191 -1.1923 -0.4122
 5845TIP3    H238951   3.904   0.688  16.033  0.8910  1.3954 -1.4973
 5846TIP3   OH238952   6.657   6.490  15.941  0.1254  0.4810 -0.0525
 5846TIP3    H138953   6.563   6.502  15.924  0.2187 -0.2919 -1.1867
 5846TIP3    H238954   6.670   6.395  15.933  1.0407  0.6075 -0.0654
 5847TIP3   OH238955   3.059   0.034  16.913 -0.5054  0.2787  0.1715
 5847TIP3    H138956   2.965   0.050  16.921 -0.7811 -1.3416  0.3745
 5847TIP3    H238957   3.080  -0.022  16.988  0.8572  1.5980  0.7876
 5848TIP3   OH238958   4.852   4.064   5.732 -0.3827 -0.1503  0.0829
 5848TIP3    H138959   4.884   4.111   5.809  0.5043  0.9765 -0.9440
 5848TIP3    H238960   4.757   4.076   5.735 -0.1946  1.5476 -0.0331
 5849TIP3   OH238961   3.623   3.881   3.177  0.0404 -0.3864 -0.5654
 5849TIP3    H138962   3.689   3.944   3.207 -1.3184  0.9147 -0.2784
 5849TIP3    H238963   3.632   3.807   3.237 -0.7156  1.0006  1.3031
 5850TIP3   OH238964   2.224   6.105   1.219  0.3576  0.1853  0.3998
 5850TIP3    H138965   2.196   6.073   1.134  1.6315  0.2443 -0.0487
 5850TIP3    H238966   2.176   6.051   1.282  0.2809 -0.6365 -0.3555
 5851TIP3   OH238967   0.907   6.495   2.497  0.0115 -0.5995  0.3070
 5851TIP3    H138968   0.988   6.447   2.516  0.0534 -0.0915  1.4688
 5851TIP3    H238969   0.851   6.479   2.573 -0.5775 -0.0895 -0.0160
 5852TIP3   OH238970   6.287   3.095  13.042 -0.3638 -0.3857  0.1162
 5852TIP3    H138971   6.364   3.144  13.014  0.3683 -1.5598  0.0172
 5852TIP3    H238972   6.283   3.106  13.136 -0.6890  0.5475 -0.0091
 5853TIP3   OH238973   2.649   2.405  12.249  0.8515  0.1197  0.3608
 5853TIP3    H138974   2.742   2.429  12.245  0.5336  1.1331 -1.5411
 5853TIP3    H238975   2.618   2.441  12.332  1.5606  2.0959 -0.1979
 5854TIP3   OH238976   5.425   4.120   3.816 -0.0192 -0.1654 -0.0707
 5854TIP3    H138977   5.421   4.042   3.871  2.2750 -0.5309 -0.3786
 5854TIP3    H238978   5.377   4.187   3.865  1.1405 -0.7649  1.9174
 5855TIP3   OH238979   3.111   0.764   1.363 -0.2382  0.5926 -0.1993
 5855TIP3    H138980   3.065   0.681   1.352  0.2300 -0.0837  2.5847
 5855TIP3    H238981   3.202   0.740   1.379 -0.0784  1.6320  0.5279
 5856TIP3   OH238982   0.478   3.426   5.332 -0.5101 -0.0160 -0.5559
 5856TIP3    H138983   0.426   3.352   5.300 -2.4655  1.5769 -1.2282
 5856TIP3    H238984   0.428   3.460   5.406  1.7838 -1.0068  1.4944
 5857TIP3   OH238985   1.170   1.508  15.681  0.0203  0.0773 -0.6797
 5857TIP3    H138986   1.236   1.447  15.715 -0.8603 -1.2486 -1.2817
 5857TIP3    H238987   1.171   1.494  15.586 -0.6574  0.5074 -0.7561
 5858TIP3   OH238988   0.623   5.143   3.642  0.1831 -0.2088 -0.7461
 5858TIP3    H138989   0.599   5.052   3.663  0.0651 -0.3908 -1.6437
 5858TIP3    H238990   0.622   5.146   3.546  0.0624  0.7800 -0.7142
 5859TIP3   OH238991   2.156   6.531  12.623 -0.1394 -0.4570  0.0876
 5859TIP3    H138992   2.133   6.509  12.713  0.1597 -1.1661 -0.0030
 5859TIP3    H238993   2.240   6.486  12.608  0.3238  0.4928 -0.2083
 5860TIP3   OH238994   3.631   3.424   3.477  0.2550  0.2413 -0.1483
 5860TIP3    H138995   3.665   3.369   3.406  1.6291 -0.2310  0.8526
 5860TIP3    H238996   3.553   3.378   3.507  0.0913  0.0529 -0.8475
 5861TIP3   OH238997   3.260   0.862  11.940 -0.5916  0.2990  0.5068
 5861TIP3    H138998   3.225   0.908  12.016 -0.7352  2.6663 -0.9755
 5861TIP3    H238999   3.189   0.804  11.912 -2.5343  3.3001 -1.0056
 5862TIP3   OH239000   0.076   1.897  16.417  0.1027 -0.0253 -0.0473
 5862TIP3    H139001   0.094   1.911  16.323  0.0876  1.6816  0.1817
 5862TIP3    H239002   0.161   1.907  16.459  0.2927 -1.8310  0.0327
 5863TIP3   OH239003   4.241   5.398  15.836 -0.0534 -0.4203 -0.2780
 5863TIP3    H139004   4.303   5.464  15.803 -1.7596  1.4779  0.1714
 5863TIP3    H239005   4.269   5.382  15.926  1.2963 -1.4872 -0.8707
 5864TIP3   OH239006   6.282   6.129   0.045 -0.8986  0.1961 -0.0818
 5864TIP3    H139007   6.213   6.195   0.039 -2.2887 -1.2225 -0.1706
 5864TIP3    H239008   6.243   6.058   0.096  1.1405  0.1473  1.4754
 5865TIP3   OH239009   6.226   4.311   0.390  0.3628 -0.1502  0.3107
 5865TIP3    H139010   6.298   4.300   0.328 -0.0910  1.1913 -0.4819
 5865TIP3    H239011   6.269   4.326   0.474  1.0198  0.5193 -0.1361
 5866TIP3   OH239012   5.603   6.391  15.437  0.2620  0.8361 -0.0767
 5866TIP3    H139013   5.538   6.376  15.505  0.0028 -0.1780 -0.5365
 5866TIP3    H239014   5.612   6.307  15.393 -0.8234  1.8798 -2.4071
 5867TIP3   OH239015   5.057   5.019  12.211 -0.1368 -0.0382  0.8550
 5867TIP3    H139016   5.151   5.008  12.220 -0.0295  0.6037  0.5666
 5867TIP3    H239017   5.019   4.955  12.271  0.4751 -0.8501  0.3686
 5868TIP3   OH239018   0.938   5.298   0.673  0.3782 -0.8391  0.0831
 5868TIP3    H139019   0.981   5.218   0.703 -0.4748 -1.6280 -0.7241
 5868TIP3    H239020   1.007   5.348   0.631  0.4833 -2.2363 -1.4783
 5869TIP3   OH239021   1.697   5.827  11.983 -0.0909  0.0080  0.4437
 5869TIP3    H139022   1.773   5.885  11.986  0.6480 -0.9263  0.1468
 5869TIP3    H239023   1.653   5.840  12.068  1.6977 -1.1463  1.5812
 5870TIP3   OH239024   2.666   2.968  11.301 -0.0372  0.2867 -0.2283
 5870TIP3    H139025   2.686   3.058  11.275  0.0672 -0.1591 -1.7532
 5870TIP3    H239026   2.752   2.926  11.307 -0.1535 -0.0167 -0.6899
 5871TIP3   OH239027   6.405   5.847   0.761  0.1182 -1.2526 -0.0828
 5871TIP3    H139028   6.349   5.853   0.839  1.2559  1.7336  0.5807
 5871TIP3    H239029   6.489   5.814   0.794  1.2329  1.8910  0.3746
 5872TIP3   OH239030   6.491   1.483   0.280 -0.2036 -0.2784  0.0365
 5872TIP3    H139031   6.532   1.538   0.347  0.7605 -1.1872  0.2195
 5872TIP3    H239032   6.561   1.423   0.253 -1.0155 -0.9072 -0.7000
 5873TIP3   OH239033   3.596   0.499  16.880  0.1484 -0.4880  0.7232
 5873TIP3    H139034   3.586   0.435  16.809 -0.5791 -0.3868  0.7314
 5873TIP3    H239035   3.518   0.555  16.873 -0.3815 -1.0347  2.1666
 5874TIP3   OH239036   5.651   3.079   0.276 -0.3829 -0.2572 -0.1158
 5874TIP3    H139037   5.569   3.124   0.298 -0.1691 -0.0699  0.2906
 5874TIP3    H239038   5.642   2.992   0.316 -1.0004 -0.7643 -1.2989
 5875TIP3   OH239039   3.522   4.110  16.535 -0.5633  0.0704 -0.2296
 5875TIP3    H139040   3.483   4.161  16.606 -0.0499  0.9446 -0.5692
 5875TIP3    H239041   3.525   4.171  16.461  0.1531 -0.4236 -0.6081
 5876TIP3   OH239042   4.078   1.844   2.300 -0.7895  0.4894 -0.0863
 5876TIP3    H139043   4.002   1.829   2.243 -0.4120  0.5847 -0.6238
 5876TIP3    H239044   4.098   1.758   2.336 -0.7565  0.3408 -0.4541
 5877TIP3   OH239045   2.189   2.990   3.965  0.3198 -0.1939 -0.3351
 5877TIP3    H139046   2.212   2.907   3.922  1.4828 -0.3900  0.6344
 5877TIP3    H239047   2.115   3.023   3.914  0.2492 -1.5105 -1.1313
 5878TIP3   OH239048   2.862   5.942   1.658 -0.6437 -0.4396 -0.0781
 5878TIP3    H139049   2.821   5.932   1.744 -0.1111 -1.0835  0.1044
 5878TIP3    H239050   2.890   6.034   1.656 -0.3350 -0.5135  0.5837
 5879TIP3   OH239051   3.701   5.429   5.053  0.1877  0.3179  0.0570
 5879TIP3    H139052   3.729   5.386   4.972 -1.2683 -0.7174  0.0894
 5879TIP3    H239053   3.608   5.406   5.062  0.6565 -0.7365  2.7278
 5880TIP3   OH239054   3.332   1.055  12.971  0.4818  0.0085  0.2049
 5880TIP3    H139055   3.271   1.036  13.043  0.2534  0.8448  0.2306
 5880TIP3    H239056   3.277   1.060  12.893  0.8194 -1.6497 -0.1634
 5881TIP3   OH239057   1.475   5.824   3.900  0.1107 -0.1012  0.0380
 5881TIP3    H139058   1.533   5.847   3.973  2.7005 -1.6154 -1.4695
 5881TIP3    H239059   1.510   5.873   3.826 -0.0661 -1.6599 -1.0846
 5882TIP3   OH239060   4.277   2.531  15.519 -0.2072  0.2526  0.1260
 5882TIP3    H139061   4.272   2.438  15.499  0.2266 -0.2334  2.2509
 5882TIP3    H239062   4.287   2.573  15.433  1.0273 -1.7453 -0.7357
 5883TIP3   OH239063   5.625   0.935   4.085  0.1320 -0.5519 -0.7584
 5883TIP3    H139064   5.632   0.894   4.171 -0.4510 -1.6782 -1.2335
 5883TIP3    H239065   5.684   1.010   4.089 -0.9672  0.2386  1.1051
 5884TIP3   OH239066   0.481   5.724   1.907  0.1963  0.0503 -0.3716
 5884TIP3    H139067   0.540   5.709   1.981  0.5074 -1.9606 -0.9788
 5884TIP3    H239068   0.530   5.694   1.830 -0.2539  1.7642 -1.3692
 5885TIP3   OH239069   3.426   4.401  12.611  0.6579 -0.0767 -0.0876
 5885TIP3    H139070   3.462   4.402  12.523  1.1653  1.4432  0.1113
 5885TIP3    H239071   3.488   4.348  12.662  1.7702  1.1583 -0.1065
 5886TIP3   OH239072   5.533   4.057  13.119  0.3106  0.3485  0.3594
 5886TIP3    H139073   5.498   3.968  13.117  1.4871 -0.1203 -0.0347
 5886TIP3    H239074   5.628   4.045  13.118  0.4847  1.5907  1.5355
 5887TIP3   OH239075   5.120   4.367  12.664  0.3676 -0.3976 -0.0873
 5887TIP3    H139076   5.118   4.445  12.719 -2.0167 -1.3550  1.2800
 5887TIP3    H239077   5.152   4.398  12.579  2.5280  1.4174  1.3175
 5888TIP3   OH239078   5.584   0.064   5.541  0.7035 -0.7227  0.0774
 5888TIP3    H139079   5.613  -0.026   5.528 -0.9807 -1.0964 -1.2659
 5888TIP3    H239080   5.529   0.083   5.465  0.3395  1.1464  0.7764
 5889TIP3   OH239081   4.979   0.936  10.993 -0.3275 -0.1771  0.2101
 5889TIP3    H139082   4.955   1.028  10.979  1.4717 -0.0968 -2.8162
 5889TIP3    H239083   5.072   0.932  10.971 -0.6334 -2.9285 -0.7617
 5890TIP3   OH239084   6.267   5.229   1.226 -0.0031  0.5443  0.0447
 5890TIP3    H139085   6.238   5.250   1.137  0.1006  2.0768  0.3515
 5890TIP3    H239086   6.186   5.205   1.272  0.1072 -1.5003 -0.7690
 5891TIP3   OH239087   0.701   1.069   3.829  0.0276  0.6851 -0.2154
 5891TIP3    H139088   0.610   1.048   3.811  0.3152 -1.0915  0.2524
 5891TIP3    H239089   0.746   1.055   3.745  0.4890 -2.3625  0.4652
 5892TIP3   OH239090   3.305   4.898   5.413  0.3981 -0.1705 -0.0755
 5892TIP3    H139091   3.391   4.867   5.386  1.4548 -0.1992  3.0962
 5892TIP3    H239092   3.324   4.972   5.472 -1.6471 -1.2617  2.0297
 5893TIP3   OH239093   4.118   1.757  14.942  0.5337 -0.1747 -0.0651
 5893TIP3    H139094   4.094   1.711  15.022 -0.0688 -1.2832 -0.8574
 5893TIP3    H239095   4.037   1.800  14.914  0.7533  0.2470 -0.0515
 5894TIP3   OH239096   6.398   1.217  10.427 -0.1458  0.0955  0.0469
 5894TIP3    H139097   6.395   1.289  10.364 -1.4610  0.0240  0.0091
 5894TIP3    H239098   6.489   1.188  10.426  0.2563  1.3254 -0.4252
 5895TIP3   OH239099   2.783   3.317   2.226  0.5013 -0.0452  0.1222
 5895TIP3    H139100   2.697   3.335   2.262  0.0795  1.1281 -1.3829
 5895TIP3    H239101   2.783   3.223   2.208 -1.4691  0.3615 -2.3015
 5896TIP3   OH239102   2.998   0.051  12.542  0.0440 -0.9200 -0.2669
 5896TIP3    H139103   2.903   0.039  12.550  0.1785 -2.3996 -0.6366
 5896TIP3    H239104   3.035  -0.017  12.599  0.8802  0.2300  0.5735
 5897TIP3   OH239105   2.013   6.329   6.383  0.5795 -0.5421  0.3320
 5897TIP3    H139106   1.981   6.336   6.473  1.0399 -1.0119  0.5335
 5897TIP3    H239107   2.042   6.418   6.361  0.9488 -0.5351  0.8345
 5898TIP3   OH239108   5.262   1.560   3.172  0.1777 -0.1339  0.0511
 5898TIP3    H139109   5.189   1.508   3.139  0.5952 -1.2691  0.8727
 5898TIP3    H239110   5.277   1.528   3.261 -0.3658  2.2772  1.0665
 5899TIP3   OH239111   3.436   6.329  11.028  0.0578  0.5021  0.0190
 5899TIP3    H139112   3.420   6.284  11.111 -2.7769  1.8693  0.2583
 5899TIP3    H239113   3.500   6.273  10.983 -0.3693 -1.6460  1.9819
 5900TIP3   OH239114   5.529   0.419  11.751 -0.3084 -0.0163  0.1553
 5900TIP3    H139115   5.557   0.385  11.666 -1.8530 -1.2037  0.0978
 5900TIP3    H239116   5.495   0.343  11.798 -2.0493  1.1071  0.7693
 5901TIP3   OH239117   4.896   4.480   1.573 -0.4750 -0.0266 -0.6738
 5901TIP3    H139118   4.896   4.532   1.653  0.7488 -0.3519 -0.4587
 5901TIP3    H239119   4.821   4.513   1.523 -0.2954  1.2592 -0.1017
 5902TIP3   OH239120   6.146   5.135   4.825 -0.0250 -0.1153 -0.3492
 5902TIP3    H139121   6.236   5.165   4.827  0.0018 -0.1249 -1.2090
 5902TIP3    H239122   6.097   5.207   4.786 -0.2765 -0.3764 -0.5226
 5903TIP3   OH239123   2.419   2.547   3.178 -0.2450 -0.0010 -0.3135
 5903TIP3    H139124   2.375   2.477   3.227 -0.6274 -0.4349 -1.2719
 5903TIP3    H239125   2.483   2.502   3.124 -1.2615  0.2668 -1.7792
 5904TIP3   OH239126   3.817   1.534  13.392  0.0926  0.4296 -0.1583
 5904TIP3    H139127   3.769   1.466  13.346 -0.3151  0.3017  0.4417
 5904TIP3    H239128   3.904   1.496  13.407 -0.0515  0.1337 -0.0539
 5905TIP3   OH239129   4.845   4.796  17.182 -0.1856  0.7513  0.0880
 5905TIP3    H139130   4.757   4.771  17.154  0.2407 -0.0948 -0.5332
 5905TIP3    H239131   4.858   4.749  17.264  0.0879  0.0138 -0.3706
 5906TIP3   OH239132   1.458   3.787   4.969 -0.1510  0.0089  0.2756
 5906TIP3    H139133   1.529   3.749   4.917 -0.5184 -1.2508  0.6579
 5906TIP3    H239134   1.379   3.769   4.918 -0.4064 -0.4075  0.8096
 5907TIP3   OH239135   6.007   4.959  14.308  0.3060  0.5991 -0.2309
 5907TIP3    H139136   5.918   4.943  14.276  0.7818  0.3804 -1.4735
 5907TIP3    H239137   6.057   4.977  14.229  1.4913  0.1369  0.4102
 5908TIP3   OH239138   4.381   2.457  12.388  0.1775  0.4263 -0.5783
 5908TIP3    H139139   4.297   2.502  12.387 -0.1756 -0.2092  0.0664
 5908TIP3    H239140   4.359   2.364  12.379  0.7155  0.1342  1.0084
 5909TIP3   OH239141   2.324   0.920   1.601 -0.5252  0.3262  0.2405
 5909TIP3    H139142   2.240   0.965   1.593 -0.2123  1.1475  1.4637
 5909TIP3    H239143   2.377   0.979   1.655  0.2917 -0.9568  0.8407
 5910TIP3   OH239144   2.534   4.596  17.011 -0.0421  0.4594 -0.0919
 5910TIP3    H139145   2.479   4.654  16.958  1.3541  0.2559 -1.8069
 5910TIP3    H239146   2.602   4.653  17.047 -0.2695  0.3723  0.4803
 5911TIP3   OH239147   5.146   2.766  14.819 -0.1264  0.1300  1.1325
 5911TIP3    H139148   5.239   2.789  14.830  0.3149 -0.5935 -0.8116
 5911TIP3    H239149   5.137   2.682  14.864  0.6651 -0.7956 -0.3966
 5912TIP3   OH239150   0.826   5.012  15.110  0.4369 -0.4370 -0.1657
 5912TIP3    H139151   0.836   4.927  15.067  0.1144 -0.9767  0.8211
 5912TIP3    H239152   0.858   4.998  15.199  0.3318  0.4606  0.0156
 5913TIP3   OH239153   6.657   6.182  14.092 -0.2340 -0.3667 -0.2030
 5913TIP3    H139154   6.679   6.102  14.046  0.5241 -0.3476  0.1103
 5913TIP3    H239155   6.561   6.186  14.091 -0.3649 -2.3889  1.6809
 5914TIP3   OH239156   0.259   1.410  11.711 -0.2698 -0.4518  0.2433
 5914TIP3    H139157   0.265   1.360  11.793 -0.7630 -0.1538  0.4630
 5914TIP3    H239158   0.258   1.344  11.642  0.9356 -0.6804  0.4337
 5915TIP3   OH239159   5.678   1.975  16.377  0.3022 -0.0293 -0.3371
 5915TIP3    H139160   5.745   1.927  16.426 -0.5131 -0.7178  0.1120
 5915TIP3    H239161   5.596   1.930  16.398 -0.3258  0.9117 -0.7514
 5916TIP3   OH239162   0.427   2.580  17.231 -0.7373 -0.0728  0.0032
 5916TIP3    H139163   0.359   2.512  17.231 -0.6357 -0.1729 -0.3310
 5916TIP3    H239164   0.380   2.660  17.255 -0.7299 -0.3876  1.1379
 5917TIP3   OH239165   5.197   2.999   3.222 -0.1404 -0.1778 -0.1452
 5917TIP3    H139166   5.157   2.966   3.303 -1.0579 -2.4617 -1.4733
 5917TIP3    H239167   5.290   3.007   3.242 -0.3086 -1.0985  1.0198
 5918TIP3   OH239168   2.971   1.923  13.562 -0.2673 -0.3865 -0.0403
 5918TIP3    H139169   3.030   1.857  13.525  0.9197  1.1658 -0.9338
 5918TIP3    H239170   3.002   1.935  13.651  0.0315 -0.4328 -0.1358
 5919TIP3   OH239171   2.492   5.311  11.215 -0.4539  0.2461 -0.3517
 5919TIP3    H139172   2.506   5.221  11.188  1.6484  0.6829 -0.7814
 5919TIP3    H239173   2.492   5.361  11.134 -3.0092  0.5012 -0.2451
 5920TIP3   OH239174   1.561   4.608  11.244 -0.2209  0.1846 -0.1015
 5920TIP3    H139175   1.530   4.552  11.314 -0.5128  0.0072 -0.3757
 5920TIP3    H239176   1.560   4.696  11.282  4.4140 -0.4381  1.8245
 5921TIP3   OH239177   3.942   5.506  15.784  0.1484  0.5480 -0.2971
 5921TIP3    H139178   3.867   5.565  15.772 -0.2663  0.4805  1.7844
 5921TIP3    H239179   4.014   5.565  15.807 -0.3756  0.2300  2.2421
 5922TIP3   OH239180   5.140   2.076  14.133 -0.2241 -0.1524 -0.3603
 5922TIP3    H139181   5.102   1.996  14.171  0.7737  0.1168  1.2520
 5922TIP3    H239182   5.227   2.048  14.103  0.5022  0.5193  1.0578
 5923TIP3   OH239183   0.564   4.246  15.858 -0.6005 -0.1559 -0.4583
 5923TIP3    H139184   0.618   4.178  15.817  1.4844  1.1946 -0.0075
 5923TIP3    H239185   0.496   4.264  15.793  0.6206 -0.5134 -1.8723
 5924TIP3   OH239186   3.548   5.190   0.652 -0.1485 -0.6219  0.7359
 5924TIP3    H139187   3.630   5.236   0.669 -0.7279  0.4233  0.7466
 5924TIP3    H239188   3.574   5.107   0.613  0.8456  0.7068 -1.5348
 5925TIP3   OH239189   1.972   2.460  15.281 -0.4397  0.1175 -0.8506
 5925TIP3    H139190   1.881   2.445  15.306 -0.3882 -0.3767 -0.9498
 5925TIP3    H239191   1.982   2.555  15.282 -0.5607  0.1197  0.5685
 5926TIP3   OH239192   1.771   5.603  11.836 -0.2351  0.2175 -0.1363
 5926TIP3    H139193   1.866   5.594  11.844 -0.3770 -1.5419 -0.1408
 5926TIP3    H239194   1.748   5.674  11.895  1.5022  3.2029 -2.8783
 5927TIP3   OH239195   5.400   1.781  13.197 -0.5411  0.7334  0.1723
 5927TIP3    H139196   5.467   1.816  13.138  0.6053 -0.4563  0.7577
 5927TIP3    H239197   5.447   1.755  13.276 -1.8523  0.9232  1.0462
 5928TIP3   OH239198   6.480   2.111   3.453  0.1313  0.0548  0.2650
 5928TIP3    H139199   6.390   2.143   3.455 -0.6100 -1.9395 -0.4539
 5928TIP3    H239200   6.520   2.148   3.533 -1.3419  0.8184  0.6672
 5929TIP3   OH239201   0.522   1.164  10.751  0.7070 -0.1571 -0.3011
 5929TIP3    H139202   0.529   1.219  10.673  0.0797  1.4265  0.7196
 5929TIP3    H239203   0.609   1.167  10.791  0.3431  1.1815  0.4344
 5930TIP3   OH239204   2.926   3.562  12.501  0.1950  0.0626  0.0219
 5930TIP3    H139205   2.991   3.623  12.466 -0.5487  0.8671  0.0123
 5930TIP3    H239206   2.915   3.496  12.433  0.6752  0.1633 -0.1581
 5931TIP3   OH239207   5.209   5.863  15.323 -0.4873 -0.0048  0.0831
 5931TIP3    H139208   5.180   5.804  15.253  0.9294  0.3862 -0.8582
 5931TIP3    H239209   5.266   5.809  15.378 -0.6122  0.0133  0.2292
 5932TIP3   OH239210   1.164   4.836   2.500  0.2038 -0.2272 -0.5911
 5932TIP3    H139211   1.185   4.876   2.584 -0.2761 -1.5760  0.1868
 5932TIP3    H239212   1.145   4.745   2.521  1.3193 -0.8775 -2.3315
 5933TIP3   OH239213   3.026   1.105  10.410  0.0081  0.5130  0.1355
 5933TIP3    H139214   3.098   1.129  10.351 -0.9949 -2.8476 -2.6442
 5933TIP3    H239215   3.061   1.035  10.464 -1.3481 -1.9066 -1.9733
 5934TIP3   OH239216   0.330   1.848   5.579  0.2576 -0.3815  0.0191
 5934TIP3    H139217   0.369   1.766   5.551  0.4796 -1.0900  2.3425
 5934TIP3    H239218   0.383   1.876   5.654 -1.3619  0.5571  0.8411
 5935TIP3   OH239219   3.449   6.698  16.263  0.2988  0.6032 -0.0929
 5935TIP3    H139220   3.393   6.692  16.340  0.0507  0.4814 -0.2845
 5935TIP3    H239221   3.393   6.674  16.190  0.3994  1.2027 -0.3755
 5936TIP3   OH239222   0.124   6.066   4.660 -0.3592 -0.1878  0.3449
 5936TIP3    H139223   0.045   6.023   4.626 -0.4332 -1.1915  1.7251
 5936TIP3    H239224   0.095   6.106   4.742 -0.0207  1.5879 -0.3826
 5937TIP3   OH239225   6.534   4.161   0.225  0.3051  0.3846  0.0266
 5937TIP3    H139226   6.616   4.162   0.273 -0.0398 -3.2134  0.8589
 5937TIP3    H239227   6.560   4.154   0.133  0.9402  0.2525  0.2142
 5938TIP3   OH239228   5.052   4.689  16.475  0.0784  0.8368  0.0592
 5938TIP3    H139229   5.031   4.663  16.385  1.9675  0.3497 -0.2612
 5938TIP3    H239230   4.966   4.699  16.518 -0.8104 -0.0693 -1.4659
 5939TIP3   OH239231   4.416   3.778  12.526 -0.1334 -0.9511  0.4759
 5939TIP3    H139232   4.454   3.730  12.453  1.7428  1.5428 -0.2861
 5939TIP3    H239233   4.366   3.849  12.485 -1.2573 -1.0990  1.5691
 5940TIP3   OH239234   2.570   2.916   0.600  0.6562 -0.2968  0.0738
 5940TIP3    H139235   2.529   2.829   0.607  1.2482 -0.4766  1.4949
 5940TIP3    H239236   2.502   2.971   0.562 -0.6259 -0.8158  1.5411
 5941TIP3   OH239237   3.603   5.892  11.802  0.4551 -0.1814  0.3032
 5941TIP3    H139238   3.646   5.966  11.760 -0.3637  1.3573  2.1029
 5941TIP3    H239239   3.673   5.830  11.819  0.9310 -0.4736 -2.4990
 5942TIP3   OH239240   4.233   1.964   3.307  0.6452 -0.2354 -0.0674
 5942TIP3    H139241   4.303   1.899   3.318  0.8370  0.1257  0.9009
 5942TIP3    H239242   4.279   2.043   3.278  0.4831 -0.3644 -0.6715
 5943TIP3   OH239243   4.115   1.823  13.759 -0.5068 -0.0977  0.0776
 5943TIP3    H139244   4.115   1.824  13.854  1.1320 -0.2956  0.0812
 5943TIP3    H239245   4.186   1.765  13.735 -0.2293  0.7720 -1.2790
 5944TIP3   OH239246   0.647   6.679  13.656 -0.0592  0.4957  0.2988
 5944TIP3    H139247   0.599   6.631  13.589  0.8294 -1.6272  1.1153
 5944TIP3    H239248   0.614   6.643  13.739 -0.8132  2.7464  1.0053
 5945TIP3   OH239249   5.053   4.666   0.942  0.3473  0.3143  0.4016
 5945TIP3    H139250   5.105   4.585   0.941  0.2105  0.1086  3.7325
 5945TIP3    H239251   4.983   4.650   0.879  1.9356 -1.0258 -1.1067
 5946TIP3   OH239252   0.799   2.551   3.220  0.0725  0.0590 -0.3106
 5946TIP3    H139253   0.716   2.507   3.240 -0.2994 -0.5013 -2.9800
 5946TIP3    H239254   0.848   2.546   3.302 -1.1349 -2.7144  0.3131
 5947TIP3   OH239255   1.701   2.186  12.079 -0.5433 -0.3258 -0.2822
 5947TIP3    H139256   1.680   2.104  12.034 -0.1680 -0.7347  0.2893
 5947TIP3    H239257   1.796   2.190  12.080 -0.5369  1.5126 -2.8231
 5948TIP3   OH239258   3.183   0.033  12.337 -0.5467 -0.0191 -0.3489
 5948TIP3    H139259   3.144   0.087  12.269 -0.9284 -0.7642 -0.7301
 5948TIP3    H239260   3.147   0.068  12.419 -0.6617  0.4029 -0.5797
 5949TIP3   OH239261   6.345   6.694  14.783  0.5544  0.3359  0.7324
 5949TIP3    H139262   6.298   6.771  14.813 -0.8309 -0.3265  0.2652
 5949TIP3    H239263   6.401   6.726  14.712 -0.1340  0.8800  0.4345
 5950TIP3   OH239264   4.981   5.006  17.049 -0.1164  0.3639 -0.1483
 5950TIP3    H139265   4.932   4.929  17.080  1.3328  0.3355  2.1780
 5950TIP3    H239266   4.934   5.080  17.086  0.1129  0.4565 -0.0437
 5951TIP3   OH239267   1.077   0.202   5.000  0.3289  0.0589 -0.0533
 5951TIP3    H139268   1.156   0.220   4.948 -0.5461 -2.2140 -2.2540
 5951TIP3    H239269   1.101   0.228   5.089  3.5907 -0.6519 -0.6502
 5952TIP3   OH239270   2.058   4.545   3.558 -0.2026 -0.2278 -0.3527
 5952TIP3    H139271   2.123   4.534   3.489  0.6874  0.2146  0.4028
 5952TIP3    H239272   2.063   4.638   3.582  0.0931 -0.5553  0.8897
 5953TIP3   OH239273   6.048   1.207   2.984 -0.5503 -0.4560 -0.3828
 5953TIP3    H139274   6.091   1.136   2.936 -1.1303  0.1421 -1.8196
 5953TIP3    H239275   6.079   1.287   2.942 -0.1573  0.1306  1.0171
 5954TIP3   OH239276   0.774   2.333  13.368 -0.5598 -0.3808  0.7338
 5954TIP3    H139277   0.769   2.318  13.463 -0.6336 -0.3311  0.7376
 5954TIP3    H239278   0.865   2.360  13.354 -0.7736  0.4355  0.9143
 5955TIP3   OH239279   4.830   2.185   3.870  0.6968  0.0634 -0.0649
 5955TIP3    H139280   4.773   2.160   3.797 -0.3274  0.5332  0.5644
 5955TIP3    H239281   4.776   2.172   3.948  2.2625 -1.8749  0.7504
 5956TIP3   OH239282   3.472   0.995   5.416  0.1359 -0.0021  0.0481
 5956TIP3    H139283   3.417   0.987   5.493  0.6241  1.0112  0.5072
 5956TIP3    H239284   3.530   0.918   5.420 -1.1688 -1.0270 -0.4000
 5957TIP3   OH239285   1.209   1.117   1.423 -0.4593 -0.2597 -0.0535
 5957TIP3    H139286   1.225   1.126   1.517 -0.8843 -1.1895  0.1169
 5957TIP3    H239287   1.254   1.191   1.383  3.4178 -2.1944  0.4921
 5958TIP3   OH239288   1.258   0.218   5.569  0.0659  0.0886 -0.5674
 5958TIP3    H139289   1.273   0.258   5.654  3.4476  0.4645 -1.2733
 5958TIP3    H239290   1.190   0.153   5.585 -0.1310  0.9145  2.1737
 5959TIP3   OH239291   1.593   0.517   3.893 -0.7805  0.2987  0.3884
 5959TIP3    H139292   1.633   0.450   3.838 -1.0983  0.5744 -0.1823
 5959TIP3    H239293   1.664   0.577   3.914 -0.6717  0.2240  0.2326
 5960TIP3   OH239294   5.249   4.897   3.385 -0.0914 -0.0867  0.0715
 5960TIP3    H139295   5.273   4.926   3.297 -0.3070  0.6828  0.2659
 5960TIP3    H239296   5.265   4.973   3.441 -1.0826 -0.1941  0.5126
 5961TIP3   OH239297   1.562   6.677  11.207 -0.0006 -0.0613 -0.7413
 5961TIP3    H139298   1.597   6.596  11.246 -0.2932  0.5773  0.8555
 5961TIP3    H239299   1.616   6.690  11.129  1.5445 -0.5862  0.2085
 5962TIP3   OH239300   2.215   1.445   6.320  0.2268  0.4001  0.1094
 5962TIP3    H139301   2.157   1.522   6.323 -1.0161 -0.5588  1.1744
 5962TIP3    H239302   2.157   1.371   6.337  1.4065 -0.7920 -0.9448
 5963TIP3   OH239303   3.143   3.852   4.716 -0.3379  0.1783  0.2263
 5963TIP3    H139304   3.118   3.943   4.699 -0.5660  0.3838  1.5544
 5963TIP3    H239305   3.199   3.858   4.793  1.2704 -0.6122 -0.8626
 5964TIP3   OH239306   0.393   6.571   4.150  0.0480 -0.4490 -0.2881
 5964TIP3    H139307   0.446   6.600   4.076 -1.8337  1.2876 -0.9960
 5964TIP3    H239308   0.383   6.649   4.204 -2.9679 -0.3510 -0.9060
 5965TIP3   OH239309   0.493   3.578  16.004  0.3148 -0.2769  0.2145
 5965TIP3    H139310   0.554   3.504  16.001  0.2823 -0.2850 -0.2594
 5965TIP3    H239311   0.544   3.649  16.045  0.7818 -0.1538 -0.5678
 5966TIP3   OH239312   4.416   3.944   4.899  0.0068  0.2008 -0.1590
 5966TIP3    H139313   4.334   3.930   4.852 -0.5806  0.2612  0.8222
 5966TIP3    H239314   4.473   3.988   4.837 -0.3752 -0.6936 -1.1649
 5967TIP3   OH239315   5.525   4.544  14.165  0.0558  0.5189 -0.5616
 5967TIP3    H139316   5.560   4.599  14.095  0.6590  0.6156 -0.1857
 5967TIP3    H239317   5.452   4.594  14.200  0.5101  1.0227 -0.3222
 5968TIP3   OH239318   5.523   1.654   3.811  0.2519 -0.0149  0.0000
 5968TIP3    H139319   5.491   1.687   3.727  0.5988  0.7359  0.1557
 5968TIP3    H239320   5.619   1.664   3.806  0.2391  0.4794  0.6613
 5969TIP3   OH239321   6.419   0.673   2.767  0.2155  0.2079 -0.0883
 5969TIP3    H139322   6.484   0.607   2.746  0.2539  0.3466 -0.4045
 5969TIP3    H239323   6.452   0.716   2.846  0.4968  0.2625 -0.2357
 5970TIP3   OH239324   5.516   2.519   1.893  0.0743  0.0871  0.3429
 5970TIP3    H139325   5.566   2.566   1.825 -0.1254 -0.5349 -0.2386
 5970TIP3    H239326   5.557   2.546   1.975  0.7055  0.3895 -0.0637
 5971TIP3   OH239327   2.264   3.099  12.369 -0.1621 -0.0744  0.4211
 5971TIP3    H139328   2.295   3.170  12.425 -1.7054  0.6612  0.3720
 5971TIP3    H239329   2.175   3.082  12.399 -1.3710  0.9859 -2.3794
 5972TIP3   OH239330   3.710   2.244  15.841 -0.1278 -0.3512  0.1048
 5972TIP3    H139331   3.642   2.271  15.780 -1.0480 -0.0033  1.2691
 5972TIP3    H239332   3.704   2.149  15.843  0.9263 -0.4705 -1.4942
 5973TIP3   OH239333   6.403   6.171  12.872 -0.2655  0.2466  0.7030
 5973TIP3    H139334   6.329   6.167  12.812 -0.3197  1.9524  0.6544
 5973TIP3    H239335   6.373   6.226  12.944  0.8967  0.7826  0.7811
 5974TIP3   OH239336   2.369   0.110  16.969  0.0137  0.0120 -0.0604
 5974TIP3    H139337   2.330   0.196  16.953  1.0537  0.7808  1.3819
 5974TIP3    H239338   2.407   0.085  16.885 -0.7498  0.7096 -0.6258
 5975TIP3   OH239339   6.211   2.355   2.292 -0.2229 -0.6911  0.2918
 5975TIP3    H139340   6.133   2.409   2.275 -0.8580 -1.9001 -0.6928
 5975TIP3    H239341   6.181   2.289   2.354  0.9038  0.8811  2.5532
 5976TIP3   OH239342   2.421   1.628   1.952  0.4409  0.3499 -0.4682
 5976TIP3    H139343   2.512   1.653   1.966  1.0125 -1.6825 -0.5219
 5976TIP3    H239344   2.414   1.539   1.984 -1.1215 -0.1306 -2.0310
 5977TIP3   OH239345   3.823   6.190   2.151 -0.6348  0.3824  0.5440
 5977TIP3    H139346   3.899   6.138   2.123 -1.5249  0.0633 -1.4082
 5977TIP3    H239347   3.858   6.252   2.214  0.7998 -1.3850  1.5438
 5978TIP3   OH239348   3.623   6.020   4.228 -0.6069  0.1622 -0.0982
 5978TIP3    H139349   3.608   5.938   4.275 -0.7175  0.1437 -0.1667
 5978TIP3    H239350   3.550   6.076   4.254 -0.0932  0.5278  0.5899
 5979TIP3   OH239351   3.778   2.814   2.050  0.0143  0.0889  0.1810
 5979TIP3    H139352   3.764   2.751   1.980 -0.7461  0.7729 -0.2860
 5979TIP3    H239353   3.731   2.777   2.125  0.3796 -0.3707  0.1910
 5980TIP3   OH239354   0.605   0.992   4.130 -0.4576  0.1209  0.1534
 5980TIP3    H139355   0.695   0.992   4.160 -0.3552  1.7143 -0.1072
 5980TIP3    H239356   0.608   1.036   4.045 -1.5550  0.6630  0.3904
 5981TIP3   OH239357   3.010   2.726   3.336 -0.7509 -0.1516 -0.3542
 5981TIP3    H139358   3.000   2.635   3.305 -0.2781  0.4313 -2.3173
 5981TIP3    H239359   2.933   2.741   3.390 -0.8055 -1.7550  0.0524
 5982TIP3   OH239360   0.610   1.870   1.842  0.2518  0.1945  0.3879
 5982TIP3    H139361   0.528   1.841   1.801 -0.2489  1.1224  0.7209
 5982TIP3    H239362   0.676   1.808   1.810 -0.6380 -0.7661  0.3827
 5983TIP3   OH239363   5.701   5.413  13.882 -0.2863 -0.4365 -0.1822
 5983TIP3    H139364   5.727   5.505  13.878 -2.2899  0.2079  0.6569
 5983TIP3    H239365   5.632   5.411  13.948  0.6112 -2.7781  0.7146
 5984TIP3   OH239366   0.387   2.669   5.065  0.2537  0.3134  0.2523
 5984TIP3    H139367   0.314   2.618   5.099 -0.8354  0.7095 -1.4269
 5984TIP3    H239368   0.371   2.758   5.095  0.8221  0.1548  1.0654
 5985TIP3   OH239369   3.158   2.799   2.797  0.2065 -0.2890  0.1446
 5985TIP3    H139370   3.159   2.704   2.808 -1.5329 -0.3704 -0.2424
 5985TIP3    H239371   3.065   2.823   2.806  0.7099  1.4473  0.8929
 5986TIP3   OH239372   2.141   4.217  12.660 -0.0703  0.1982  0.3984
 5986TIP3    H139373   2.129   4.273  12.737 -2.6143  1.3364 -0.7830
 5986TIP3    H239374   2.106   4.132  12.687  0.6473  0.1045  1.0579
 5987TIP3   OH239375   3.728   2.202  15.248  0.4265 -0.2362 -0.2925
 5987TIP3    H139376   3.729   2.268  15.179 -1.3791 -0.0474 -0.1460
 5987TIP3    H239377   3.765   2.247  15.324  1.7635 -0.2349 -0.9231
 5988TIP3   OH239378   5.730   0.553  15.597 -0.6893  0.1740  0.3025
 5988TIP3    H139379   5.812   0.541  15.644 -0.4300 -2.3167 -0.7046
 5988TIP3    H239380   5.728   0.481  15.533 -3.8843 -0.1168  0.6489
 5989TIP3   OH239381   0.354   0.230   3.622 -0.0611 -0.2180 -0.5499
 5989TIP3    H139382   0.296   0.301   3.649 -0.0589 -0.3674 -0.1469
 5989TIP3    H239383   0.296   0.167   3.578 -0.2555 -0.5162  0.1356
 5990TIP3   OH239384   3.373   1.469   3.911  0.3389 -0.2161 -0.7456
 5990TIP3    H139385   3.345   1.412   3.839 -0.5623  0.5929 -1.0518
 5990TIP3    H239386   3.293   1.487   3.960  0.5445  1.0362 -0.8441
 5991TIP3   OH239387   5.226   2.663   2.498  0.0014 -0.5513  0.1510
 5991TIP3    H139388   5.307   2.637   2.455  0.5109  0.5566  0.4404
 5991TIP3    H239389   5.253   2.724   2.567 -0.8029 -2.1855  1.9787
 5992TIP3   OH239390   4.785   6.629  15.164  0.4794 -0.3607 -0.4418
 5992TIP3    H139391   4.771   6.661  15.075  0.4317  0.5878 -0.0997
 5992TIP3    H239392   4.792   6.708  15.217 -3.9322 -0.8658  1.1031
 5993TIP3   OH239393   4.845   4.803  11.051  0.6464  0.3790 -0.1911
 5993TIP3    H139394   4.900   4.879  11.029  0.1189  0.8628  0.1648
 5993TIP3    H239395   4.908   4.733  11.068  1.1458  0.8150 -0.2222
 5994TIP3   OH239396   6.562   4.194   5.406 -0.7392  0.1347  0.1149
 5994TIP3    H139397   6.468   4.194   5.420 -0.3022  0.5743  3.4013
 5994TIP3    H239398   6.584   4.102   5.388 -1.6754 -0.1170  0.2564
 5995TIP3   OH239399   5.090   2.400   1.582 -0.4710 -0.1828 -0.1527
 5995TIP3    H139400   5.156   2.393   1.651  0.1299  1.2875 -0.5710
 5995TIP3    H239401   5.141   2.410   1.501 -1.1950 -0.2598 -0.6197
 5996TIP3   OH239402   2.051   0.635  14.915 -0.3021 -0.4021 -0.2237
 5996TIP3    H139403   2.070   0.554  14.867  2.0386 -1.2039  1.9511
 5996TIP3    H239404   2.131   0.687  14.905 -1.0216  0.7681  0.1175
 5997TIP3   OH239405   0.372   0.276   4.088 -0.4390 -0.2030  0.2095
 5997TIP3    H139406   0.316   0.293   4.164 -0.3764 -1.8878  0.6525
 5997TIP3    H239407   0.336   0.197   4.048  1.1967 -0.9374  0.1244
 5998TIP3   OH239408   5.317   0.577   3.581  0.3986 -0.4875  0.0161
 5998TIP3    H139409   5.362   0.641   3.527 -1.5260 -0.5837 -1.7801
 5998TIP3    H239410   5.282   0.514   3.518 -1.3750 -0.9406  1.4289
 5999TIP3   OH239411   6.037   2.031  11.746  0.4117 -0.1086  0.5206
 5999TIP3    H139412   6.067   2.039  11.655  0.4234 -0.2094  0.5170
 5999TIP3    H239413   5.956   1.980  11.739  1.2458 -1.4927  0.7278
 6000TIP3   OH239414   5.345   0.907   0.316 -0.5395 -0.2609  0.0680
 6000TIP3    H139415   5.309   0.893   0.403 -1.0616  0.0248 -0.0977
 6000TIP3    H239416   5.359   0.819   0.281  0.4290 -0.3727  0.7502
 6001TIP3   OH239417   3.823   3.381  14.059 -0.4298 -0.3787  0.1583
 6001TIP3    H139418   3.734   3.346  14.051 -0.3212 -0.5282 -0.4147
 6001TIP3    H239419   3.859   3.339  14.137  0.1448 -2.5092 -1.2277
 6002TIP3   OH239420   1.757   3.921  15.968 -0.3590 -0.1672 -0.5061
 6002TIP3    H139421   1.678   3.961  15.931 -0.0062  0.6394 -0.4123
 6002TIP3    H239422   1.807   3.892  15.892 -0.0492  0.6854 -0.6407
 6003TIP3   OH239423   5.442   5.733  14.281 -0.3243 -0.3790  0.0928
 6003TIP3    H139424   5.393   5.681  14.345 -0.2077 -0.9696 -0.2962
 6003TIP3    H239425   5.374   5.771  14.225 -0.3835 -0.5092  0.0758
 6004TIP3   OH239426   6.377   6.009   6.423  0.2962  0.2781 -0.7694
 6004TIP3    H139427   6.337   6.088   6.386 -1.3329  0.0730  0.4751
 6004TIP3    H239428   6.367   5.943   6.354 -0.1411  0.6484 -1.0658
 6005TIP3   OH239429   4.561   3.612   3.491  0.5643 -0.2393 -0.2860
 6005TIP3    H139430   4.637   3.590   3.436  0.5105 -0.6217 -0.2111
 6005TIP3    H239431   4.486   3.586   3.439  0.4470  0.9753 -0.7329
 6006TIP3   OH239432   3.841   1.165  14.163  0.6121  0.6038  0.1507
 6006TIP3    H139433   3.839   1.091  14.225 -1.7938 -0.1652 -0.7794
 6006TIP3    H239434   3.814   1.127  14.080 -3.2962  2.9548  0.2030
 6007TIP3   OH239435   3.755   5.189   2.478  0.4256  0.3875 -0.4424
 6007TIP3    H139436   3.761   5.118   2.542 -0.5395  0.7571  0.0698
 6007TIP3    H239437   3.667   5.180   2.441  0.5249  0.9420 -0.8151
 6008TIP3   OH239438   4.244   5.282  11.298 -0.6054  0.5481  0.0515
 6008TIP3    H139439   4.266   5.369  11.264 -1.9487  1.1422  0.6726
 6008TIP3    H239440   4.322   5.255  11.347 -0.5957  1.8645  0.7664
 6009TIP3   OH239441   0.220   2.297   5.734 -0.1415  0.0239 -0.2373
 6009TIP3    H139442   0.292   2.241   5.761  0.0954  1.8909  3.2180
 6009TIP3    H239443   0.251   2.339   5.653  2.1858 -0.0282  0.6030
 6010TIP3   OH239444   2.461   4.064  14.821 -0.1447  0.1103  0.6319
 6010TIP3    H139445   2.395   4.132  14.834 -0.7027  0.0652 -1.7173
 6010TIP3    H239446   2.446   4.001  14.891  0.1632  2.2088  2.6452
 6011TIP3   OH239447   1.864   4.073   2.543 -0.3516 -0.3201  0.6240
 6011TIP3    H139448   1.800   4.071   2.614 -0.9444  0.3323  0.1249
 6011TIP3    H239449   1.889   4.165   2.536 -0.7746 -0.2744 -0.4184
 6012TIP3   OH239450   5.057   4.670   4.044 -0.5320 -0.3725  0.2401
 6012TIP3    H139451   5.011   4.586   4.047 -0.1610 -0.6326 -0.8522
 6012TIP3    H239452   5.101   4.669   3.959  0.9631  0.1407  0.9928
 6013TIP3   OH239453   4.086   6.166  15.070 -0.3400 -0.4888 -0.1341
 6013TIP3    H139454   4.085   6.075  15.100 -0.9076  0.1149  1.8286
 6013TIP3    H239455   4.064   6.162  14.977  1.2873 -2.4688 -0.4506
 6014TIP3   OH239456   4.303   2.794   2.557  0.0049  0.4978  0.0707
 6014TIP3    H139457   4.308   2.720   2.498 -0.3856  1.0367 -0.6485
 6014TIP3    H239458   4.256   2.761   2.634  3.9138 -1.2936  1.7916
 6015TIP3   OH239459   5.489   6.363   2.296 -0.3094  0.4230 -0.0496
 6015TIP3    H139460   5.450   6.378   2.210 -0.0517 -0.1627 -0.2675
 6015TIP3    H239461   5.418   6.328   2.350 -0.2081 -0.2009 -0.3169
 6016TIP3   OH239462   5.012   1.123  12.648  0.3731  0.3401  0.4126
 6016TIP3    H139463   4.929   1.085  12.616  0.5525  1.1647 -1.1033
 6016TIP3    H239464   5.078   1.056  12.629  0.2914  0.3240  0.1882
 6017TIP3   OH239465   3.362   1.467   4.428  0.1252 -0.2052 -0.6375
 6017TIP3    H139466   3.312   1.394   4.393 -1.7220  0.0779  1.3460
 6017TIP3    H239467   3.450   1.431   4.443 -0.6223 -1.8459 -0.1570
 6018TIP3   OH239468   2.309   1.780   4.888  0.6534 -0.7218 -0.5507
 6018TIP3    H139469   2.379   1.844   4.892  0.1533 -0.2481  0.7428
 6018TIP3    H239470   2.295   1.752   4.978 -1.9226  0.4141 -0.5551
 6019TIP3   OH239471   3.094   5.852  15.578  0.0296 -0.2861  0.1506
 6019TIP3    H139472   3.006   5.876  15.605  0.2466  0.7911 -0.0821
 6019TIP3    H239473   3.149   5.923  15.610  0.3526  0.8627 -2.8281
 6020TIP3   OH239474   4.951   1.043   3.272  0.7680 -0.4860  0.2687
 6020TIP3    H139475   4.950   0.947   3.277  1.6463 -0.5893 -1.3479
 6020TIP3    H239476   4.886   1.064   3.205  1.2033  0.0101  0.0009
 6021TIP3   OH239477   4.223   3.028   0.496 -0.4328 -0.2416 -0.0367
 6021TIP3    H139478   4.207   2.948   0.545 -1.3749 -0.8259 -1.2743
 6021TIP3    H239479   4.158   3.027   0.426 -0.6296  1.7437  0.0910
 6022TIP3   OH239480   2.182   3.607  14.117  0.1480 -0.1751 -0.2490
 6022TIP3    H139481   2.256   3.627  14.059 -0.1576  1.9061  0.0380
 6022TIP3    H239482   2.153   3.520  14.090  1.3377 -0.1131 -1.7958
 6023TIP3   OH239483   5.361   1.591   2.340 -0.3173 -0.4388 -0.0037
 6023TIP3    H139484   5.324   1.506   2.365 -1.0641  0.9272  3.7811
 6023TIP3    H239485   5.342   1.648   2.414  4.0916  1.8998 -0.5289
 6024TIP3   OH239486   3.524   2.152   2.437 -0.0092 -0.4702  0.3502
 6024TIP3    H139487   3.598   2.138   2.378 -0.0138  0.2785  0.1593
 6024TIP3    H239488   3.449   2.114   2.391  0.2642 -1.2960  0.5770
 6025TIP3   OH239489   0.295   0.883   2.684  0.4925  0.2430 -0.1313
 6025TIP3    H139490   0.349   0.808   2.710  1.2892  0.2522 -1.7391
 6025TIP3    H239491   0.343   0.960   2.715  0.8985  0.2037 -0.6626
 6026TIP3   OH239492   1.808   3.724  12.797  0.0083 -1.0179  0.1820
 6026TIP3    H139493   1.790   3.630  12.803  1.5520 -1.3831 -0.5729
 6026TIP3    H239494   1.862   3.744  12.873 -1.3454 -0.4810  1.0077
 6027TIP3   OH239495   0.057   2.760   0.557 -0.0642  0.2744  0.0880
 6027TIP3    H139496  -0.029   2.744   0.520  0.0775 -0.5354  0.0948
 6027TIP3    H239497   0.047   2.839   0.609 -0.8084  0.1727  0.1033
 6028TIP3   OH239498   0.000   4.090   2.073 -0.2982  0.2777 -0.9059
 6028TIP3    H139499  -0.046   4.060   1.994 -0.2076 -0.1046 -0.8161
 6028TIP3    H239500  -0.068   4.127   2.128 -0.3561  0.5872 -1.1798
 6029TIP3   OH239501   0.605   0.289  14.757  0.5587  0.2116 -0.2247
 6029TIP3    H139502   0.635   0.377  14.780  3.8746 -0.8359 -0.3428
 6029TIP3    H239503   0.677   0.251  14.708 -1.1225 -2.3616 -0.7960
 6030TIP3   OH239504   6.610   6.708  14.300  0.3872 -0.0627  0.1522
 6030TIP3    H139505   6.673   6.720  14.229 -1.9648 -0.7499 -2.1286
 6030TIP3    H239506   6.596   6.614  14.305 -1.1511  0.1485  0.0054
 6031TIP3   OH239507   4.714   1.272  12.779  0.0319 -0.1316 -0.1041
 6031TIP3    H139508   4.715   1.194  12.724 -0.6408  0.7921 -1.4388
 6031TIP3    H239509   4.646   1.254  12.844  2.1629 -2.0485  1.6849
 6032TIP3   OH239510   4.432   2.278   2.816 -0.0121 -0.0475 -0.3561
 6032TIP3    H139511   4.450   2.346   2.881 -0.9495 -0.8372  0.7524
 6032TIP3    H239512   4.454   2.318   2.732  0.1687  1.3538  0.3482
 6033TIP3   OH239513   0.683   1.524  15.150 -0.3400 -0.0881  0.0869
 6033TIP3    H139514   0.701   1.614  15.178 -1.4765 -0.3052  1.5581
 6033TIP3    H239515   0.602   1.531  15.099  0.6485  0.0036 -1.5068
 6034TIP3   OH239516   3.299   2.945  13.144  0.0394 -0.1251 -0.0880
 6034TIP3    H139517   3.212   2.960  13.181  0.3097 -1.6072  1.2572
 6034TIP3    H239518   3.339   3.032  13.138 -1.8070  0.6440 -1.4508
 6035TIP3   OH239519   3.551   3.331   4.146 -0.9113 -0.0637  0.2034
 6035TIP3    H139520   3.601   3.251   4.161  2.2654  1.7916 -0.0545
 6035TIP3    H239521   3.487   3.333   4.217  0.9964 -1.2872  2.0024
 6036TIP3   OH239522   0.558   4.600  16.916  0.1944 -0.6374 -0.0107
 6036TIP3    H139523   0.618   4.669  16.888  0.4415 -0.5627  0.7016
 6036TIP3    H239524   0.572   4.593  17.010 -0.3168 -1.1991  0.0201
 6037TIP3   OH239525   4.755   2.214   6.390  0.4487 -0.4724  0.1113
 6037TIP3    H139526   4.726   2.305   6.384 -0.2966 -0.7984 -1.6053
 6037TIP3    H239527   4.848   2.220   6.415  0.3974  0.7504  0.0402
 6038TIP3   OH239528   6.565   2.586   3.622 -0.1848  0.0314 -0.1228
 6038TIP3    H139529   6.564   2.493   3.600  1.1425  0.0636 -0.3430
 6038TIP3    H239530   6.569   2.588   3.718 -1.9962 -0.1196 -0.0263
 6039TIP3   OH239531   2.473   5.812  12.284 -0.4689  0.4442  0.0732
 6039TIP3    H139532   2.534   5.765  12.227  0.9919  0.5088  1.5252
 6039TIP3    H239533   2.396   5.827  12.230  0.1285 -1.1878 -1.2704
 6040TIP3   OH239534   0.483   6.500   4.710  0.0179  0.3589 -0.3989
 6040TIP3    H139535   0.495   6.570   4.646 -0.2357  1.5151  0.7699
 6040TIP3    H239536   0.539   6.526   4.784  0.7185 -1.2216 -0.3739
 6041TIP3   OH239537   3.676   5.090   6.226  0.0072  0.1330 -0.5637
 6041TIP3    H139538   3.709   5.041   6.301  0.0255 -1.0458 -1.3095
 6041TIP3    H239539   3.693   5.032   6.151 -0.4517  1.0716 -1.4089
 6042TIP3   OH239540   6.187   2.375   0.701 -0.3988  1.1779 -0.2633
 6042TIP3    H139541   6.222   2.461   0.724  0.5765  0.5074  0.7935
 6042TIP3    H239542   6.250   2.313   0.736 -1.0201  0.0218 -1.1558
 6043TIP3   OH239543   4.925   3.957  12.769  0.6271 -0.2736 -0.3618
 6043TIP3    H139544   4.921   3.968  12.674 -0.7045  0.7207 -0.2150
 6043TIP3    H239545   4.937   3.863  12.782 -3.1250 -0.9906 -1.4799
 6044TIP3   OH239546   5.486   2.711  12.030  0.8452 -0.2388 -0.4684
 6044TIP3    H139547   5.402   2.687  11.991 -1.0384  1.8733  2.0892
 6044TIP3    H239548   5.505   2.798  11.995  1.6422 -0.4336 -0.5255
 6045TIP3   OH239549   3.565   6.080   0.527  0.3072 -0.0140  0.6871
 6045TIP3    H139550   3.485   6.045   0.487  0.3679  1.9320 -1.2218
 6045TIP3    H239551   3.552   6.175   0.527  2.4040  0.2961  0.8349
 6046TIP3   OH239552   0.652   4.665  15.823 -0.0936  0.5450  0.5983
 6046TIP3    H139553   0.729   4.654  15.767 -1.2237 -1.5025 -0.6270
 6046TIP3    H239554   0.685   4.656  15.912  0.9102 -1.6818  0.0424
 6047TIP3   OH239555   5.295   4.820  17.083 -0.2113 -0.4907  0.2580
 6047TIP3    H139556   5.235   4.842  17.011 -0.3459  1.4993  0.9702
 6047TIP3    H239557   5.371   4.782  17.039 -0.2630  0.7507 -0.9586
 6048TIP3   OH239558   3.296   4.048  13.971 -0.3890  0.2094 -0.8021
 6048TIP3    H139559   3.371   4.011  14.018  0.2647  0.6845 -1.4749
 6048TIP3    H239560   3.312   4.028  13.879 -1.1753  0.1633 -0.9361
 6049TIP3   OH239561   3.907   3.880  16.530  0.3749 -0.7816 -0.1610
 6049TIP3    H139562   3.875   3.823  16.460 -0.7152 -0.4708  0.0744
 6049TIP3    H239563   4.000   3.858  16.537  0.0647 -2.2706 -0.3362
 6050TIP3   OH239564   4.097   6.642  16.821  0.0051  0.3911 -0.1257
 6050TIP3    H139565   4.020   6.598  16.857 -1.3565  1.4619 -1.6809
 6050TIP3    H239566   4.118   6.710  16.885 -0.0030 -0.2499  0.5682
 6051TIP3   OH239567   6.150   0.935   2.789  0.1788 -0.1085  0.1293
 6051TIP3    H139568   6.079   0.870   2.783 -0.3207  0.3060  1.3010
 6051TIP3    H239569   6.205   0.918   2.712 -1.4194 -0.1690 -1.0303
 6052TIP3   OH239570   5.743   5.393  10.975  0.1589  0.4159 -0.3025
 6052TIP3    H139571   5.684   5.367  11.046  0.7219 -1.0034 -0.3361
 6052TIP3    H239572   5.688   5.391  10.897 -0.7728  3.2016  0.2459
 6053TIP3   OH239573   1.349   4.960   0.961 -0.5514  0.0902  0.2897
 6053TIP3    H139574   1.350   4.994   1.050  0.5926  1.0835 -0.0789
 6053TIP3    H239575   1.440   4.969   0.931 -0.5625 -1.8622 -0.3637
 6054TIP3   OH239576   6.047   3.713   4.746 -0.4903 -0.1130 -0.0440
 6054TIP3    H139577   6.106   3.647   4.782  1.7369  2.3287  0.9637
 6054TIP3    H239578   6.018   3.764   4.822 -0.5704  1.3021 -1.0036
 6055TIP3   OH239579   3.318   4.720   1.706  0.2521 -0.0913 -0.1870
 6055TIP3    H139580   3.255   4.793   1.706 -0.2799 -0.5500 -0.3241
 6055TIP3    H239581   3.298   4.672   1.786 -1.6626 -2.0354 -1.7785
 6056TIP3   OH239582   0.517   2.377   2.629  0.2861  0.0785 -0.5295
 6056TIP3    H139583   0.561   2.315   2.687 -0.2655 -2.4360 -2.7209
 6056TIP3    H239584   0.427   2.381   2.663  1.2568  2.7771  1.9915
 6057TIP3   OH239585   2.000   2.000   0.221 -0.0114  0.5917 -0.1685
 6057TIP3    H139586   1.994   1.925   0.280 -2.6323  0.9997  0.1512
 6057TIP3    H239587   1.929   1.987   0.158  0.3179  2.1397 -0.8838
 6058TIP3   OH239588   6.753   4.396  15.482  0.2020  0.0951  0.0420
 6058TIP3    H139589   6.703   4.328  15.437 -3.0194  2.3939 -0.0708
 6058TIP3    H239590   6.819   4.423  15.418 -0.4442 -0.8483 -1.0437
 6059TIP3   OH239591   5.066   5.917  13.107 -0.3520  0.3542 -0.3359
 6059TIP3    H139592   5.144   5.971  13.124  1.8788 -2.7784 -0.3328
 6059TIP3    H239593   5.068   5.850  13.174 -2.0240 -0.8750 -1.4758
 6060TIP3   OH239594   2.332   2.091   0.496  0.7600 -0.1619 -0.2599
 6060TIP3    H139595   2.370   2.106   0.410  1.5648 -0.9543 -0.0484
 6060TIP3    H239596   2.329   1.996   0.504 -0.8263 -0.1141 -0.0741
 6061TIP3   OH239597   4.820   6.758   1.738 -0.2678 -0.6435 -0.0500
 6061TIP3    H139598   4.804   6.670   1.772 -0.5412 -0.5396  0.0876
 6061TIP3    H239599   4.844   6.744   1.646  1.2341 -0.9795  0.3742
 6062TIP3   OH239600   5.295   6.774  12.116 -0.4159  0.2865  0.1022
 6062TIP3    H139601   5.288   6.740  12.205 -0.6688 -0.1368 -0.0744
 6062TIP3    H239602   5.315   6.696  12.063  1.3702  0.7839  0.0077
 6063TIP3   OH239603   1.125   3.804   0.944  0.2913  0.1031  0.1838
 6063TIP3    H139604   1.156   3.716   0.966  0.1250 -0.3894 -1.4910
 6063TIP3    H239605   1.140   3.812   0.850 -1.3974  1.1760 -0.0143
 6064TIP3   OH239606   2.842   4.364   3.544  0.2329 -0.2120  0.5617
 6064TIP3    H139607   2.921   4.359   3.490  0.0357 -1.1681  0.3397
 6064TIP3    H239608   2.782   4.301   3.503 -0.4364  0.1044  1.0558
 6065TIP3   OH239609   5.721   6.558  15.622  0.2020  0.8221  0.0162
 6065TIP3    H139610   5.708   6.489  15.557  0.9740 -0.2856  1.0123
 6065TIP3    H239611   5.652   6.622  15.604 -1.0172 -0.5980 -0.4250
 6066TIP3   OH239612   3.119   5.802   0.703 -0.1904  0.1672 -0.1383
 6066TIP3    H139613   3.154   5.874   0.756 -0.5879 -0.1051  0.5006
 6066TIP3    H239614   3.193   5.743   0.690 -0.2374 -0.0677  0.6348
 6067TIP3   OH239615   0.608   5.638  10.962 -0.0615 -0.2201  0.3499
 6067TIP3    H139616   0.689   5.685  10.944  1.5925 -1.7697  3.3763
 6067TIP3    H239617   0.603   5.572  10.894  0.9945  0.1599 -0.1033
 6068TIP3   OH239618   5.996   3.418  12.869 -0.0146  0.3864  0.2002
 6068TIP3    H139619   5.969   3.327  12.863  1.2695  0.0275 -0.3325
 6068TIP3    H239620   6.074   3.424  12.813  0.3091  1.6509  0.7617
 6069TIP3   OH239621   0.098   3.737  14.137 -0.1481 -1.0321 -0.6914
 6069TIP3    H139622   0.096   3.825  14.100  0.1586 -1.4229 -1.6690
 6069TIP3    H239623   0.190   3.720  14.156 -0.4919 -0.2206  1.8020
 6070TIP3   OH239624   1.576   0.715  16.557 -0.4763  0.4220  0.1953
 6070TIP3    H139625   1.522   0.671  16.491 -0.5157 -0.9863  1.1558
 6070TIP3    H239626   1.655   0.663  16.562 -2.0804 -1.8195  4.0869
 6071TIP3   OH239627   0.864   0.950   1.896  0.0955  0.1387 -0.4195
 6071TIP3    H139628   0.868   1.002   1.816 -3.0907  0.9248 -0.1494
 6071TIP3    H239629   0.837   0.863   1.867 -0.0340  0.1421 -0.3120
 6072TIP3   OH239630   1.678   6.505   3.636 -0.0892  0.4642  0.2550
 6072TIP3    H139631   1.601   6.480   3.688 -0.2073 -0.2881 -0.2824
 6072TIP3    H239632   1.682   6.441   3.566  1.0762  0.4551  0.3132
 6073TIP3   OH239633   3.243   0.302  16.385  0.8192 -0.0365 -0.1818
 6073TIP3    H139634   3.271   0.240  16.452  2.0220  1.3247  0.5740
 6073TIP3    H239635   3.224   0.383  16.432 -0.4976  0.2697 -1.1930
 6074TIP3   OH239636   4.366   3.037  15.100 -0.7415  0.4749 -0.0762
 6074TIP3    H139637   4.435   2.971  15.106  0.0225  1.2612 -0.1135
 6074TIP3    H239638   4.336   3.048  15.190  1.3316  2.3695  0.4256
 6075TIP3   OH239639   2.070   1.908   4.884 -0.1987  0.7336  0.3116
 6075TIP3    H139640   2.098   1.997   4.903  0.4524  0.3921  0.9700
 6075TIP3    H239641   2.151   1.863   4.858 -0.8377  0.8418 -1.9699
 6076TIP3   OH239642   4.980   2.488  12.762 -0.2735  0.7671  0.5156
 6076TIP3    H139643   5.063   2.521  12.798 -0.0816  0.6353  0.1979
 6076TIP3    H239644   5.006   2.419  12.701 -0.5031  1.7787 -0.7742
 6077TIP3   OH239645   5.396   6.109  16.957 -0.0627 -0.3975 -0.3685
 6077TIP3    H139646   5.340   6.113  17.035 -0.2520 -0.9303 -0.4750
 6077TIP3    H239647   5.337   6.082  16.887  0.3062 -0.8570 -0.5011
 6078TIP3   OH239648   5.884   5.631   0.587  0.0342  0.3945  0.1384
 6078TIP3    H139649   5.979   5.637   0.599 -0.0481 -0.3219  1.2715
 6078TIP3    H239650   5.850   5.622   0.676 -1.1420  1.1827 -0.2198
 6079TIP3   OH239651   0.025   3.485  13.962  0.0472  0.3776 -0.7298
 6079TIP3    H139652  -0.027   3.565  13.965  0.8581  0.9986 -2.6970
 6079TIP3    H239653   0.104   3.509  13.914  1.1771 -1.1166  0.3250
 6080TIP3   OH239654   5.444   5.350   5.629 -0.4594 -0.1004  0.4710
 6080TIP3    H139655   5.440   5.304   5.545 -1.1121  0.9523 -0.0851
 6080TIP3    H239656   5.386   5.301   5.686  1.6469 -2.1008  0.9564
 6081TIP3   OH239657   5.483   0.284   2.522 -0.4329  0.7671  0.2091
 6081TIP3    H139658   5.458   0.193   2.542 -0.6688  0.9520  0.7651
 6081TIP3    H239659   5.452   0.298   2.432 -2.3272  0.9756  0.8640
 6082TIP3   OH239660   4.781   3.495  12.168 -0.2568  0.1260  1.0619
 6082TIP3    H139661   4.698   3.448  12.154  0.2787 -0.4544 -0.2102
 6082TIP3    H239662   4.836   3.432  12.214 -0.2274  0.2210  1.1575
 6083TIP3   OH239663   3.351   0.133  13.543  0.4051  0.0427  0.4289
 6083TIP3    H139664   3.263   0.169  13.553 -0.2809 -1.2231 -0.8539
 6083TIP3    H239665   3.363   0.079  13.620  0.5198  1.1340  1.1889
 6084TIP3   OH239666   0.327   1.810   0.789 -0.3629 -0.7012 -0.2162
 6084TIP3    H139667   0.351   1.889   0.838  0.0991  0.2503 -1.9523
 6084TIP3    H239668   0.231   1.806   0.798 -0.4278  0.2529 -0.4217
 6085TIP3   OH239669   3.505   4.137  12.362  0.3156 -0.6718  0.0111
 6085TIP3    H139670   3.521   4.056  12.314  0.2639 -0.1934 -0.8266
 6085TIP3    H239671   3.447   4.188  12.305 -0.7240 -0.5947  1.1089
 6086TIP3   OH239672   6.649   5.173  14.904 -0.7779  0.0280  0.3521
 6086TIP3    H139673   6.714   5.192  14.836 -0.1843 -2.8108  0.0671
 6086TIP3    H239674   6.586   5.244  14.897 -0.3837  0.1607 -2.7334
 6087TIP3   OH239675   5.992   4.691   2.702  0.4341  0.2641 -0.1717
 6087TIP3    H139676   6.010   4.780   2.672  1.1319 -0.0070 -0.5752
 6087TIP3    H239677   5.898   4.680   2.688  0.0499  1.4493  1.2757
 6088TIP3   OH239678   5.479   1.308  14.416  0.7298 -0.1687 -0.1110
 6088TIP3    H139679   5.450   1.379  14.360  2.3563 -0.5364 -1.4499
 6088TIP3    H239680   5.574   1.317  14.420  0.7122 -0.5844  1.9968
 6089TIP3   OH239681   3.385   4.129  15.785  0.1046 -0.0422 -0.1011
 6089TIP3    H139682   3.354   4.055  15.837 -0.1784  1.6988  2.3033
 6089TIP3    H239683   3.480   4.129  15.798  0.0119  0.5140  0.5850
 6090TIP3   OH239684   3.876   5.445   1.518  1.2048  0.0163  0.4003
 6090TIP3    H139685   3.794   5.487   1.491 -0.7107 -1.3150  3.8565
 6090TIP3    H239686   3.917   5.509   1.576  0.2831 -1.1695  2.4022
 6091TIP3   OH239687   1.000   1.781  16.095  0.5127  0.1261  0.3152
 6091TIP3    H139688   1.011   1.752  16.004 -0.2862 -1.0501  0.5857
 6091TIP3    H239689   1.085   1.818  16.118  1.1650 -0.8482 -0.4678
 6092TIP3   OH239690   6.666   5.730   0.800  0.2349 -0.0233 -0.3232
 6092TIP3    H139691   6.744   5.785   0.787  0.5046 -0.5832 -1.0872
 6092TIP3    H239692   6.679   5.656   0.741 -2.4336  1.5094 -2.9862
 6093TIP3   OH239693   5.835   5.401  16.680 -0.6365  0.1185 -0.0028
 6093TIP3    H139694   5.871   5.354  16.605  2.2661 -0.4226  1.6089
 6093TIP3    H239695   5.774   5.339  16.720 -0.2794 -0.5612 -0.4979
 6094TIP3   OH239696   3.377   2.168   0.435  0.6686 -0.5712  0.3998
 6094TIP3    H139697   3.423   2.105   0.490 -0.4610  0.1104  2.1958
 6094TIP3    H239698   3.442   2.236   0.417  0.9916 -0.6851  1.1114
 6095TIP3   OH239699   4.571   2.947   2.265  0.0835  0.1125  0.0803
 6095TIP3    H139700   4.537   2.864   2.234 -0.8749  0.0532  1.2592
 6095TIP3    H239701   4.542   2.953   2.356  0.5925  1.4866  0.1723
 6096TIP3   OH239702   5.739   5.475   3.614  0.7980  0.3673  0.5397
 6096TIP3    H139703   5.784   5.391   3.601  2.0813  1.1838 -0.4563
 6096TIP3    H239704   5.728   5.482   3.709 -0.4473 -1.4965  0.5381
 6097TIP3   OH239705   2.392   4.553  14.871  0.1448 -0.0975 -0.3121
 6097TIP3    H139706   2.414   4.465  14.903 -0.0317 -0.2145 -0.5106
 6097TIP3    H239707   2.421   4.553  14.780 -0.8051 -0.3019 -0.6159
 6098TIP3   OH239708   2.149   3.456  12.637 -0.7489  0.0131 -0.1179
 6098TIP3    H139709   2.124   3.374  12.679  1.3046  0.6511  2.4891
 6098TIP3    H239710   2.140   3.522  12.706  2.7399  1.1205 -0.6059
 6099TIP3   OH239711   3.919   3.213  14.278 -0.4701  0.5564 -0.3319
 6099TIP3    H139712   3.873   3.131  14.296  0.8732 -0.4320 -1.2321
 6099TIP3    H239713   3.880   3.276  14.338 -0.5565 -1.0725  1.3902
 6100TIP3   OH239714   1.248   0.414   5.842  0.2616  0.2913 -0.3934
 6100TIP3    H139715   1.175   0.467   5.874 -0.2264 -0.2666 -0.5724
 6100TIP3    H239716   1.300   0.396   5.920  0.3292  0.8690 -0.2990
 6101TIP3   OH239717   2.159   6.686   3.865 -0.2898  0.3348 -0.1850
 6101TIP3    H139718   2.089   6.731   3.819  0.0407  0.9462 -0.1032
 6101TIP3    H239719   2.136   6.695   3.958  0.6735  1.8997 -0.0623
 6102TIP3   OH239720   1.509   3.488  14.796  0.3556  0.0506 -0.2784
 6102TIP3    H139721   1.434   3.428  14.790  0.6545 -0.3904  0.4123
 6102TIP3    H239722   1.471   3.569  14.830 -0.2498  0.6271 -2.2220
 6103TIP3   OH239723   1.954   1.336  11.543 -0.1127 -0.1873 -0.4500
 6103TIP3    H139724   1.910   1.252  11.544 -0.6002  0.0567 -1.0999
 6103TIP3    H239725   2.042   1.317  11.509 -0.2206 -0.4320 -0.5881
 6104TIP3   OH239726   3.005   1.739  14.387  0.4935 -0.1678 -1.1016
 6104TIP3    H139727   3.085   1.721  14.436  0.2602  2.2314  0.2107
 6104TIP3    H239728   2.941   1.677  14.421  1.0020 -0.1469 -0.0945
 6105TIP3   OH239729   2.775   4.787  13.805 -0.3752  0.0693 -0.0913
 6105TIP3    H139730   2.715   4.862  13.797 -0.3116  0.0635 -0.6329
 6105TIP3    H239731   2.780   4.770  13.900  1.6069  2.3606  0.2592
 6106TIP3   OH239732   2.369   4.738   2.621  0.5505  0.0162 -0.1540
 6106TIP3    H139733   2.399   4.647   2.625  0.0074 -0.2521 -1.7334
 6106TIP3    H239734   2.443   4.790   2.650  1.3893 -0.8417 -0.7480
 6107TIP3   OH239735   4.095   4.878  13.431  0.1150 -0.0295  0.0359
 6107TIP3    H139736   4.069   4.801  13.380 -0.2862 -0.4598  0.8785
 6107TIP3    H239737   4.101   4.846  13.521  2.2250  0.3652  0.0773
 6108TIP3   OH239738   6.133   4.985   6.285 -0.2336 -0.0142  0.0748
 6108TIP3    H139739   6.086   5.041   6.347  1.1711  0.5874  0.6108
 6108TIP3    H239740   6.136   4.899   6.328 -1.2007 -0.1673 -0.1511
 6109TIP3   OH239741   2.318   6.738  16.549 -0.0343 -0.4006  0.6016
 6109TIP3    H139742   2.334   6.775  16.462 -0.1099 -2.5680 -0.3789
 6109TIP3    H239743   2.233   6.774  16.575 -0.5913 -0.6795 -0.7821
 6110TIP3   OH239744   5.398   6.586   1.295  0.2527 -0.3500  0.0663
 6110TIP3    H139745   5.492   6.574   1.310  0.4082  0.5454 -0.1854
 6110TIP3    H239746   5.383   6.549   1.208  0.2507 -1.0708  0.3678
 6111TIP3   OH239747   4.270   5.008  16.358  0.1052  0.2615 -0.0896
 6111TIP3    H139748   4.280   4.958  16.439  0.7064  0.0924 -0.2677
 6111TIP3    H239749   4.329   4.965  16.296  0.3896  0.9981 -0.3328
 6112TIP3   OH239750   5.336   3.021   5.663 -0.1843  0.0463  0.4113
 6112TIP3    H139751   5.245   3.010   5.688 -0.0654 -2.0617  0.0630
 6112TIP3    H239752   5.385   3.006   5.744 -0.1942  2.8584  0.9734
 6113TIP3   OH239753   0.550   2.847   5.711  0.0706 -0.0226  0.5321
 6113TIP3    H139754   0.478   2.842   5.774  3.2141  2.8131  4.6712
 6113TIP3    H239755   0.564   2.941   5.698  1.7343 -0.5270 -1.7929
 6114TIP3   OH239756   2.653   3.684  12.190 -0.7015 -0.0101  0.8227
 6114TIP3    H139757   2.708   3.759  12.167 -1.1082  0.1375  0.3402
 6114TIP3    H239758   2.639   3.638  12.107  2.3283 -2.5152  1.5716
 6115TIP3   OH239759   6.387   5.393   4.174  0.0171 -0.5044 -0.3684
 6115TIP3    H139760   6.429   5.403   4.260 -0.8167  0.6633 -0.0999
 6115TIP3    H239761   6.392   5.299   4.157  1.0547 -0.6296  0.5160
 6116TIP3   OH239762   4.520   3.674   0.074 -0.3920  0.3745 -0.1375
 6116TIP3    H139763   4.598   3.725   0.096 -0.9135  0.7808  0.7793
 6116TIP3    H239764   4.446   3.728   0.101 -0.9481 -0.9921  1.1836
 6117TIP3   OH239765   2.517   1.515   4.643  0.0219 -0.6906  0.0361
 6117TIP3    H139766   2.545   1.572   4.572 -0.3174  0.2779  0.6655
 6117TIP3    H239767   2.425   1.536   4.657 -0.4145 -2.2230 -0.4884
 6118TIP3   OH239768   5.605   0.251  14.663  0.1130  0.4761 -0.0391
 6118TIP3    H139769   5.628   0.344  14.656  1.1685  0.1717 -0.5565
 6118TIP3    H239770   5.511   0.249  14.642  0.4654  1.1925 -1.7706
 6119TIP3   OH239771   4.362   4.175   0.460  0.4596 -0.0148  0.0479
 6119TIP3    H139772   4.347   4.081   0.462 -0.0308  0.0370 -0.9586
 6119TIP3    H239773   4.425   4.191   0.531 -0.0874 -0.9771  0.7499
 6120TIP3   OH239774   5.816   2.128   0.477  0.5715 -0.7570 -0.1662
 6120TIP3    H139775   5.898   2.087   0.449  2.1189  2.2505 -0.3207
 6120TIP3    H239776   5.837   2.171   0.560 -1.0497 -0.5971  0.1855
 6121TIP3   OH239777   2.023   3.248  11.614 -0.1353  0.3277  0.1369
 6121TIP3    H139778   2.076   3.319  11.578 -1.1715  0.8984 -0.2932
 6121TIP3    H239779   2.066   3.168  11.584 -1.7116  0.7666 -3.5347
 6122TIP3   OH239780   4.685   4.456  14.350  0.6404 -0.7188 -0.3518
 6122TIP3    H139781   4.762   4.419  14.393  1.1748  0.6967 -0.0603
 6122TIP3    H239782   4.611   4.410  14.388  1.2441 -0.9761  0.5193
 6123TIP3   OH239783   0.075   3.266   5.810  0.8179 -0.2601  0.1009
 6123TIP3    H139784   0.115   3.266   5.723  0.1197  1.5668 -0.2488
 6123TIP3    H239785   0.136   3.315   5.865 -0.8696  2.5819 -0.4474
 6124TIP3   OH239786   0.123   5.947  10.678 -0.1156 -0.4467 -0.1459
 6124TIP3    H139787   0.197   5.887  10.681  0.1920 -0.0547  0.2566
 6124TIP3    H239788   0.064   5.910  10.613 -0.2365 -1.5334  0.5762
 6125TIP3   OH239789   3.386   6.686  14.065  0.4506 -0.1111 -0.0580
 6125TIP3    H139790   3.436   6.753  14.112  2.5835 -0.9575 -1.0724
 6125TIP3    H239791   3.321   6.656  14.129  2.0458  0.1460  1.7323
 6126TIP3   OH239792   6.199   0.120   2.386  0.1151 -0.0409  0.1469
 6126TIP3    H139793   6.134   0.101   2.318 -0.5311  1.4122  0.3438
 6126TIP3    H239794   6.195   0.215   2.398  1.5783 -0.0465  0.8737
 6127TIP3   OH239795   4.553   6.733   0.253 -0.3825  0.1414  0.6172
 6127TIP3    H139796   4.460   6.718   0.238 -0.3442  1.1738 -0.7544
 6127TIP3    H239797   4.561   6.828   0.261  0.7805  0.2015 -0.9458
 6128TIP3   OH239798   4.793   0.694   0.310  0.4582 -0.0592 -0.2630
 6128TIP3    H139799   4.879   0.730   0.331  0.0513  0.7872 -0.0223
 6128TIP3    H239800   4.752   0.761   0.255 -0.2199 -0.2614 -0.0112
 6129TIP3   OH239801   4.591   6.698   3.931  0.1595  0.6281 -0.2133
 6129TIP3    H139802   4.668   6.717   3.985 -0.5013  2.2483  0.1888
 6129TIP3    H239803   4.526   6.665   3.993  0.7786 -1.5897 -0.6795
 6130TIP3   OH239804   2.960   0.309   2.680 -0.4476 -0.3084 -0.1166
 6130TIP3    H139805   2.930   0.271   2.763 -0.2997 -1.0472 -0.3935
 6130TIP3    H239806   3.041   0.355   2.703 -1.7072  1.5859  0.6032
 6131TIP3   OH239807   1.986   0.423  13.619  0.8449  0.6092  0.5434
 6131TIP3    H139808   2.019   0.335  13.603  1.7557  1.3818 -2.0760
 6131TIP3    H239809   2.058   0.469  13.662  0.5573  0.2328  1.4299
 6132TIP3   OH239810   0.711   0.402  16.321 -0.2481 -0.2345 -0.0562
 6132TIP3    H139811   0.748   0.387  16.407 -1.0112 -0.5218  0.2269
 6132TIP3    H239812   0.676   0.491  16.325 -2.1545 -1.0015  0.6198
 6133TIP3   OH239813   5.106   0.506  12.210  0.1153  0.0839 -0.3492
 6133TIP3    H139814   5.015   0.477  12.217 -0.2661  1.4543  0.6283
 6133TIP3    H239815   5.157   0.436  12.250 -0.7496  0.4825  1.5423
 6134TIP3   OH239816   0.153   5.059  15.096 -0.1458  0.5086  0.3002
 6134TIP3    H139817   0.127   5.111  15.020 -0.8489  0.3419  0.4220
 6134TIP3    H239818   0.237   5.096  15.124 -0.2403  1.0351 -0.1185
 6135TIP3   OH239819   1.583   3.174  13.616  0.5464  0.0951 -0.3182
 6135TIP3    H139820   1.589   3.084  13.648  0.1788 -0.5860 -2.1246
 6135TIP3    H239821   1.524   3.218  13.678  1.0323 -0.7947  0.7899
 6136TIP3   OH239822   2.065   6.468  16.286 -0.0793  0.3099  0.4237
 6136TIP3    H139823   1.985   6.479  16.339 -0.3880 -0.5135  0.1425
 6136TIP3    H239824   2.067   6.545  16.230  0.3284  1.2640  1.7369
 6137TIP3   OH239825   2.786   6.333  15.329 -0.0931 -0.1069 -0.5117
 6137TIP3    H139826   2.789   6.251  15.379 -1.5744  1.1353  1.7273
 6137TIP3    H239827   2.878   6.356  15.316  0.4517  0.6237  3.6859
 6138TIP3   OH239828   2.185   3.459   1.987  0.2810 -0.8295 -0.8556
 6138TIP3    H139829   2.214   3.400   2.056 -1.0581 -1.0896 -0.5027
 6138TIP3    H239830   2.162   3.402   1.914 -1.2956 -0.7727 -0.4091
 6139TIP3   OH239831   0.924   0.241  11.885 -0.0185  0.6233 -0.0592
 6139TIP3    H139832   0.950   0.150  11.868  1.4346  1.0141  0.0470
 6139TIP3    H239833   0.924   0.249  11.980 -0.0054  0.7809 -0.0711
 6140TIP3   OH239834   2.041   1.706   2.803  0.2244  0.2273 -0.0482
 6140TIP3    H139835   2.003   1.629   2.761 -0.6636  0.0970  0.9548
 6140TIP3    H239836   1.986   1.778   2.774 -0.3338  0.1501  0.7862
 6141TIP3   OH239837   6.732   0.409   2.526  0.3816  0.3687 -0.0513
 6141TIP3    H139838   6.709   0.484   2.471  2.3904  0.9406 -0.1533
 6141TIP3    H239839   6.775   0.348   2.466 -1.7294 -1.1488 -0.0885
 6142TIP3   OH239840   4.823   1.262   2.062 -0.1102  0.5231  0.3597
 6142TIP3    H139841   4.768   1.338   2.039  0.7137  0.9688 -0.1575
 6142TIP3    H239842   4.772   1.215   2.128 -1.9853 -0.1067 -1.4835
 6143TIP3   OH239843   6.170   1.628  14.668 -0.8244  0.3359 -0.2572
 6143TIP3    H139844   6.230   1.660  14.734  0.1954 -1.1774 -0.4211
 6143TIP3    H239845   6.085   1.665  14.692  0.1724  2.5728 -0.0823
 6144TIP3   OH239846   0.122   5.147  13.346  0.4006 -0.2962  0.1086
 6144TIP3    H139847   0.097   5.070  13.397  0.4096 -1.1332 -1.1025
 6144TIP3    H239848   0.132   5.113  13.257 -0.5302  1.3021 -0.6169
 6145TIP3   OH239849   3.821   5.322   3.832 -0.2262 -0.6861  0.5826
 6145TIP3    H139850   3.813   5.367   3.916 -2.2194 -1.1429  0.6748
 6145TIP3    H239851   3.731   5.295   3.811  0.6830 -3.2413 -0.2202
 6146TIP3   OH239852   6.002   0.176   0.593 -0.0713  0.0031 -0.3676
 6146TIP3    H139853   5.911   0.173   0.565 -0.4429 -0.0533  0.8186
 6146TIP3    H239854   6.037   0.255   0.551 -1.1379  0.9758  0.5343
 6147TIP3   OH239855   2.413   6.478  13.332 -0.4832  0.4780 -0.3170
 6147TIP3    H139856   2.346   6.545  13.344  0.4156  1.3234  0.1364
 6147TIP3    H239857   2.472   6.490  13.407 -1.5405 -2.3372  1.0476
 6148TIP3   OH239858   1.005   5.582  12.597 -0.2785  0.0164  0.7380
 6148TIP3    H139859   0.977   5.498  12.563  0.8525  0.0798 -0.3915
 6148TIP3    H239860   1.097   5.570  12.619 -0.4740  0.5587  1.9048
 6149TIP3   OH239861   0.802   4.729   5.220  0.0616 -0.0189 -0.0053
 6149TIP3    H139862   0.723   4.674   5.221  0.0471 -0.0178 -0.7108
 6149TIP3    H239863   0.848   4.703   5.140  2.5356 -2.4621  2.1125
 6150TIP3   OH239864   2.516   3.676   0.191  0.1044 -0.0298 -0.2017
 6150TIP3    H139865   2.423   3.658   0.203  0.2587  0.3273  1.6793
 6150TIP3    H239866   2.553   3.672   0.279  1.5550  1.6624 -0.6949
 6151TIP3   OH239867   1.092   4.421   4.495  0.3268 -0.6857  0.2909
 6151TIP3    H139868   1.017   4.363   4.482 -0.1436  0.1129 -0.6345
 6151TIP3    H239869   1.168   4.363   4.493 -0.2930 -1.5622  1.7173
 6152TIP3   OH239870   4.111   6.672  13.506 -0.7515 -0.9586  0.7437
 6152TIP3    H139871   4.130   6.745  13.565  0.5454 -0.2056 -0.5437
 6152TIP3    H239872   4.182   6.610  13.521  0.0377 -0.4023 -0.5451
 6153TIP3   OH239873   0.049   1.445   0.871  0.2136  0.4652  0.1148
 6153TIP3    H139874   0.135   1.405   0.876  0.6960  1.4653 -0.0409
 6153TIP3    H239875   0.038   1.469   0.779 -0.8113 -0.8919 -0.1366
 6154TIP3   OH239876   3.507   6.037   5.238  0.4856 -0.5180  0.0141
 6154TIP3    H139877   3.414   6.051   5.218  0.1629  0.0229  1.8148
 6154TIP3    H239878   3.551   6.114   5.203  0.3625 -1.1387 -1.5350
 6155TIP3   OH239879   3.030   1.797  14.118  0.2531  0.4678 -0.1064
 6155TIP3    H139880   3.017   1.758  14.205 -0.6844 -1.5140 -1.1084
 6155TIP3    H239881   3.083   1.732  14.071 -1.1045  0.5197 -1.7206
 6156TIP3   OH239882   4.868   0.444  11.917  0.0417  0.0584  0.2434
 6156TIP3    H139883   4.901   0.472  11.832  1.5125  1.0667  1.1015
 6156TIP3    H239884   4.862   0.349  11.911 -0.8266  0.2018 -1.3027
 6157TIP3   OH239885   0.872   1.236  14.918  0.5541 -0.1434 -0.5132
 6157TIP3    H139886   0.791   1.234  14.866 -0.1761  0.9840  0.5397
 6157TIP3    H239887   0.933   1.288  14.866  0.0425  0.4091 -0.5775
 6158TIP3   OH239888   6.649   2.160   1.774  0.3462  0.1021 -0.1644
 6158TIP3    H139889   6.694   2.235   1.812 -0.6753  0.9332 -0.5670
 6158TIP3    H239890   6.662   2.090   1.838 -1.5992  1.5573  1.8964
 6159TIP3   OH239891   0.319   5.627  16.101 -0.1695  0.3568  0.2317
 6159TIP3    H139892   0.331   5.675  16.184  1.3937 -0.1133  0.2879
 6159TIP3    H239893   0.332   5.693  16.033 -1.1948  0.6886  0.3527
 6160TIP3   OH239894   0.567   0.155  13.608 -0.0608  0.2937 -0.8885
 6160TIP3    H139895   0.631   0.198  13.666 -0.1837 -1.2920  0.4493
 6160TIP3    H239896   0.592   0.063  13.608 -2.0223 -0.2651 -0.7510
 6161TIP3   OH239897   4.638   1.344   0.225  0.5447 -0.0236  0.7103
 6161TIP3    H139898   4.679   1.289   0.158 -1.3594  1.2038 -1.5629
 6161TIP3    H239899   4.580   1.284   0.273  1.9419 -0.9154  1.3014
 6162TIP3   OH239900   5.296   1.644  11.699 -0.5986 -0.2830  0.1423
 6162TIP3    H139901   5.253   1.726  11.723 -0.5364 -0.2484  0.1347
 6162TIP3    H239902   5.327   1.607  11.782 -2.1034 -1.1288  0.3541
 6163TIP3   OH239903   3.940   5.821   6.072  0.0537 -0.0911  0.8141
 6163TIP3    H139904   4.032   5.803   6.049 -0.1039 -0.4795  0.4736
 6163TIP3    H239905   3.928   5.779   6.157 -0.4671 -2.1230 -0.2316
 6164TIP3   OH239906   1.592   2.089  13.841 -0.0014  0.4570 -0.0792
 6164TIP3    H139907   1.646   2.013  13.864 -1.1076  0.1209  1.4863
 6164TIP3    H239908   1.608   2.152  13.911 -0.5277  0.9384 -0.3904
 6165TIP3   OH239909   0.723   0.790   5.393 -0.1395  0.1722 -0.0330
 6165TIP3    H139910   0.727   0.694   5.393 -3.1194 -0.0117 -0.5780
 6165TIP3    H239911   0.786   0.817   5.460 -0.9491 -2.2822  1.8073
 6166TIP3   OH239912   1.834   5.117   1.077  0.2995  0.1148  0.3365
 6166TIP3    H139913   1.778   5.153   1.007  0.4433  0.0346  0.1810
 6166TIP3    H239914   1.820   5.022   1.072  0.9202  0.0457 -0.1018
 6167TIP3   OH239915   4.787   3.629  17.012  0.7322 -0.1462 -0.1650
 6167TIP3    H139916   4.698   3.626  16.976  0.2573  2.2320  0.6891
 6167TIP3    H239917   4.818   3.717  16.992  2.5861 -0.6626  0.3233
 6168TIP3   OH239918   0.963   2.631   5.185 -0.1614  0.0516  0.0003
 6168TIP3    H139919   0.978   2.672   5.270 -0.7406 -0.7665  0.5028
 6168TIP3    H239920   0.896   2.565   5.202 -0.1060 -0.2745 -1.0443
 6169TIP3   OH239921   5.279   2.659  10.985  0.0376  0.4924  0.5859
 6169TIP3    H139922   5.314   2.591  10.929  0.1788  0.0294  1.2315
 6169TIP3    H239923   5.356   2.705  11.019 -0.0570  1.0125  0.1138
 6170TIP3   OH239924   0.048   4.346  13.806  0.0086 -0.6835 -0.0290
 6170TIP3    H139925   0.117   4.355  13.872 -0.8975  1.5160  0.6743
 6170TIP3    H239926   0.009   4.260  13.824  3.2265 -2.4516 -1.1400
 6171TIP3   OH239927   1.246   5.376   2.272 -0.2855 -0.7725  0.4914
 6171TIP3    H139928   1.261   5.421   2.190 -1.5975 -2.2575 -0.6104
 6171TIP3    H239929   1.328   5.384   2.321  0.9723 -1.0604 -1.5480
 6172TIP3   OH239930   0.570   2.164  13.270 -0.0769  0.0333 -0.0546
 6172TIP3    H139931   0.528   2.215  13.202 -0.0655 -0.9736 -0.8240
 6172TIP3    H239932   0.644   2.217  13.298  0.5286  0.0040 -1.5573
 6173TIP3   OH239933   2.020   1.558  12.129  0.4838 -0.3953 -0.3725
 6173TIP3    H139934   2.064   1.628  12.176 -2.0233  0.6384  0.5290
 6173TIP3    H239935   2.007   1.593  12.041  1.7740 -0.8489 -0.7495
 6174TIP3   OH239936   1.370   2.043   0.718  0.3652  0.5943  0.0174
 6174TIP3    H139937   1.383   1.965   0.773 -0.8317  1.0997  1.0222
 6174TIP3    H239938   1.436   2.105   0.749  0.9281  0.2079 -0.3862
 6175TIP3   OH239939   1.896   4.361  14.713 -0.9777  0.2934  0.2199
 6175TIP3    H139940   1.943   4.280  14.734  0.9688  1.3468  0.0029
 6175TIP3    H239941   1.825   4.333  14.655  1.1281 -0.9445 -1.8418
 6176TIP3   OH239942   4.286   5.930   0.825 -0.2073  0.1907  0.5365
 6176TIP3    H139943   4.314   5.853   0.875 -0.5758  0.8760  1.7987
 6176TIP3    H239944   4.234   5.893   0.753  0.9702 -0.8480  0.1937
 6177TIP3   OH239945   2.698   2.958   1.429  0.0334  0.2071 -0.0350
 6177TIP3    H139946   2.650   2.890   1.381 -2.2595  2.3820 -0.9341
 6177TIP3    H239947   2.731   2.914   1.507  0.8509 -2.5674 -1.8613
 6178TIP3   OH239948   5.868   4.222   5.845  0.1543 -0.3451 -0.2311
 6178TIP3    H139949   5.811   4.167   5.790 -0.8360 -0.7283  1.1463
 6178TIP3    H239950   5.842   4.311   5.824  0.2706 -0.4623 -0.8982
 6179TIP3   OH239951   4.752   1.087  16.663 -0.5381  0.1495 -0.0326
 6179TIP3    H139952   4.779   1.013  16.610  1.5783 -0.7251  2.1907
 6179TIP3    H239953   4.805   1.160  16.632 -0.9090  0.1810 -0.6030
 6180TIP3   OH239954   3.510   0.832  14.287  0.2813 -0.0039 -0.0521
 6180TIP3    H139955   3.423   0.798  14.263 -0.2081  1.7968 -0.9002
 6180TIP3    H239956   3.528   0.898  14.221  2.5232 -0.6812 -0.1473
 6181TIP3   OH239957   4.363   5.446   3.461  0.3483 -0.3750 -0.3022
 6181TIP3    H139958   4.295   5.492   3.412 -2.0259 -3.1801  0.2117
 6181TIP3    H239959   4.355   5.480   3.550 -0.8732 -1.2002 -0.0911
 6182TIP3   OH239960   5.112   5.719   0.847 -0.2701  0.3604  0.2772
 6182TIP3    H139961   5.145   5.800   0.808 -1.4384  0.0366 -1.4152
 6182TIP3    H239962   5.022   5.711   0.815 -0.2799 -1.4484  0.6852
 6183TIP3   OH239963   1.885   5.392   6.244  0.0025  0.2418 -0.0503
 6183TIP3    H139964   1.866   5.480   6.275 -1.1984 -0.2789  0.7871
 6183TIP3    H239965   1.799   5.357   6.217  0.6360 -0.2530 -1.4894
 6184TIP3   OH239966   1.736   0.030   0.156 -1.1590 -0.6034  0.5667
 6184TIP3    H139967   1.828   0.013   0.178 -1.3351 -0.6637  1.2482
 6184TIP3    H239968   1.707  -0.050   0.112 -0.5753 -0.1693 -0.6263
 6185TIP3   OH239969   4.545   0.126  13.875 -0.3001 -0.1561  0.0339
 6185TIP3    H139970   4.520   0.127  13.967  0.2357  0.5182  0.1728
 6185TIP3    H239971   4.600   0.048  13.867  2.6117  1.7226  1.0918
 6186TIP3   OH239972   6.054   2.569  13.151  0.0485 -0.5066  0.1082
 6186TIP3    H139973   6.097   2.653  13.135  0.6158 -1.0218 -1.1120
 6186TIP3    H239974   6.073   2.549  13.243  0.5678  0.3162  0.1802
 6187TIP3   OH239975   5.095   1.051   5.078  0.0386 -0.3470  0.3886
 6187TIP3    H139976   5.126   1.118   5.139  1.1761  1.0809 -1.6913
 6187TIP3    H239977   5.001   1.068   5.069 -0.1023 -0.4460  1.5433
 6188TIP3   OH239978   5.377   3.844   1.513  0.3449 -0.3493 -0.6636
 6188TIP3    H139979   5.473   3.845   1.516  0.4078 -0.6849 -2.0901
 6188TIP3    H239980   5.351   3.924   1.558  1.3412  0.5439 -1.6564
 6189TIP3   OH239981   1.440   4.924   4.127  0.0269  0.5637 -0.6088
 6189TIP3    H139982   1.523   4.896   4.166  0.4258  0.7769 -1.3075
 6189TIP3    H239983   1.381   4.851   4.142  0.5729  0.0680 -0.8458
 6190TIP3   OH239984   5.852   3.074  16.906 -0.1409 -0.4414  0.4506
 6190TIP3    H139985   5.811   3.064  16.820 -0.6511 -2.4028  0.9061
 6190TIP3    H239986   5.799   3.141  16.950 -0.9345 -0.6892 -0.1259
 6191TIP3   OH239987   4.774   6.517   3.456  0.0128  0.3058 -0.0781
 6191TIP3    H139988   4.740   6.504   3.544  1.0371  0.6992  0.3785
 6191TIP3    H239989   4.761   6.433   3.412  0.6090 -0.2479  0.8137
 6192TIP3   OH239990   2.942   2.443  11.576  0.4690 -0.3983  0.3407
 6192TIP3    H139991   2.922   2.432  11.669  0.4287 -0.0190  0.3765
 6192TIP3    H239992   2.996   2.522  11.572 -0.7073  0.3959 -0.1195
 6193TIP3   OH239993   1.337   1.782   5.363  0.5931  0.0551  0.2045
 6193TIP3    H139994   1.354   1.866   5.321  1.5891 -0.9495 -1.4511
 6193TIP3    H239995   1.424   1.749   5.385  0.1545 -0.0920  1.7609
 6194TIP3   OH239996   0.449   6.277   5.669  0.2237 -0.2648 -0.3267
 6194TIP3    H139997   0.463   6.299   5.762 -1.4017 -0.1583 -0.0798
 6194TIP3    H239998   0.486   6.190   5.659 -1.5751 -1.2210  1.0016
 6195TIP3   OH239999   2.284   4.009  12.013  0.1991 -0.4501  0.4052
 6195TIP3    H140000   2.282   4.077  11.945  1.8022 -0.1736  0.6018
 6195TIP3    H240001   2.202   3.962  12.003  0.0449  0.1306 -1.1797
 6196TIP3   OH240002   1.632   3.808  11.472 -0.0804 -0.3485 -0.4164
 6196TIP3    H140003   1.695   3.848  11.532  1.1992 -4.2638  1.0430
 6196TIP3    H240004   1.548   3.847  11.495  1.1735  1.8683  0.4874
 6197TIP3   OH240005   6.518   4.292  13.237 -0.1701 -0.0586 -0.3209
 6197TIP3    H140006   6.435   4.337  13.258 -0.1366  0.4697 -1.3183
 6197TIP3    H240007   6.497   4.236  13.163  0.7455  1.2851 -1.6217
 6198TIP3   OH240008   5.719   1.888  13.790 -0.1501  0.6172  0.1098
 6198TIP3    H140009   5.768   1.820  13.836 -0.2671 -0.7971 -1.7551
 6198TIP3    H240010   5.786   1.936  13.741  0.0042  2.2521  1.8735
 6199TIP3   OH240011   6.003   4.541  12.124 -0.1664  0.5562  0.9995
 6199TIP3    H140012   5.985   4.452  12.094  0.4883  0.6575  0.2900
 6199TIP3    H240013   5.965   4.597  12.056 -1.3779  0.8423  1.8887
 6200TIP3   OH240014   6.685   2.137   0.763  0.3821  0.1427  0.0461
 6200TIP3    H140015   6.778   2.129   0.742  0.4693  0.6815  0.2136
 6200TIP3    H240016   6.683   2.157   0.856 -0.0187 -2.4028  0.6226
 6201TIP3   OH240017   6.308   5.145  11.379  0.0227  0.1993  0.5715
 6201TIP3    H140018   6.271   5.233  11.379 -1.0698 -0.2288 -0.6554
 6201TIP3    H240019   6.370   5.144  11.307  1.8097  0.6495  2.0768
 6202TIP3   OH240020   1.563   4.909   6.534 -0.0679  0.5081 -0.3002
 6202TIP3    H140021   1.551   4.973   6.463 -1.8479  0.5604  0.0076
 6202TIP3    H240022   1.633   4.852   6.504 -0.4876  0.8158 -1.9041
 6203TIP3   OH240023   0.363   1.231   1.641 -0.1252 -0.0399 -0.1646
 6203TIP3    H140024   0.330   1.186   1.563  1.2121  0.0092 -0.7744
 6203TIP3    H240025   0.305   1.202   1.711  0.0653 -1.9397 -0.7412
 6204TIP3   OH240026   5.962   2.827  17.208 -0.1340  0.0026 -0.0320
 6204TIP3    H140027   5.964   2.823  17.112 -0.1565 -0.7174 -0.0050
 6204TIP3    H240028   6.054   2.823  17.234 -0.0506  1.5508 -0.0716
 6205TIP3   OH240029   6.576   1.998  12.312  0.2460  0.0027  0.3844
 6205TIP3    H140030   6.590   1.935  12.242 -1.2464 -0.6566  0.6692
 6205TIP3    H240031   6.647   2.062  12.301  1.6696 -1.6084 -0.0092
 6206TIP3   OH240032   3.751   4.468  11.304  0.1257 -0.1262 -0.4469
 6206TIP3    H140033   3.695   4.540  11.334  1.4044  0.8240 -0.2549
 6206TIP3    H240034   3.752   4.476  11.209 -0.3682 -0.3823 -0.4747
 6207TIP3   OH240035   3.939   2.513  14.616 -0.1576  0.0834  0.1684
 6207TIP3    H140036   3.960   2.595  14.571 -0.3526 -0.0333 -0.1366
 6207TIP3    H240037   4.011   2.455  14.594 -0.5006 -0.1298 -0.3961
 6208TIP3   OH240038   5.937   5.982   5.003  0.4556 -0.2759  0.0718
 6208TIP3    H140039   5.930   5.915   5.072  1.4816  1.5516  2.0116
 6208TIP3    H240040   5.868   6.045   5.024  0.1705 -0.1772 -1.1387
 6209TIP3   OH240041   3.956   0.957   5.115  0.2936  0.1246 -0.2634
 6209TIP3    H140042   3.970   0.884   5.054  0.1972  0.0065 -0.1451
 6209TIP3    H240043   4.027   1.019   5.095  0.3560  0.0129 -0.3870
 6210TIP3   OH240044   6.636   2.764   2.860  0.6101 -0.4059  0.5015
 6210TIP3    H140045   6.560   2.744   2.914  1.1932 -0.3059  1.3887
 6210TIP3    H240046   6.659   2.680   2.819  0.2438 -0.5154  0.5173
 6211TIP3   OH240047   2.348   0.101  12.722 -0.3502  0.0473  0.0738
 6211TIP3    H140048   2.329   0.194  12.726  1.2007  0.3099  2.9988
 6211TIP3    H240049   2.440   0.094  12.746 -0.6772 -2.2805  0.8461
 6212TIP3   OH240050   5.701   1.057  12.503  0.3987 -0.5892  0.5494
 6212TIP3    H140051   5.620   1.088  12.461 -0.6706 -1.9350  1.5612
 6212TIP3    H240052   5.742   1.137  12.536 -0.9768  0.0573  0.7688
 6213TIP3   OH240053   3.758   2.583   4.839 -0.5035  0.3465  0.3991
 6213TIP3    H140054   3.791   2.668   4.811  0.2130 -0.2466 -0.6140
 6213TIP3    H240055   3.695   2.602   4.908 -1.1525  1.7548 -0.5799
 6214TIP3   OH240056   5.464   2.690  16.999 -0.0557 -0.6618  0.2181
 6214TIP3    H140057   5.447   2.657  16.911  0.7615 -1.6728  0.4284
 6214TIP3    H240058   5.543   2.744  16.990 -0.4180 -0.1227  0.1990
 6215TIP3   OH240059   1.287   2.012   6.492  0.0137  0.2101  0.4735
 6215TIP3    H140060   1.267   1.934   6.440  0.8675  0.3526 -0.0699
 6215TIP3    H240061   1.301   1.979   6.581 -0.3499 -0.1612  0.3982
 6216TIP3   OH240062   6.353   5.494   2.241 -0.7257 -0.1238  0.0003
 6216TIP3    H140063   6.342   5.567   2.302 -1.6187  1.2608 -1.7772
 6216TIP3    H240064   6.446   5.496   2.218 -0.6766  0.2515  0.2258
 6217TIP3   OH240065   1.485   0.860   2.395  0.5237  0.0562 -0.2261
 6217TIP3    H140066   1.510   0.769   2.413  0.8438  0.1542 -0.1798
 6217TIP3    H240067   1.445   0.890   2.477  1.4517  0.3163  0.1412
 6218TIP3   OH240068   2.594   3.608   6.782  0.2355  0.1072 -0.1104
 6218TIP3    H140069   2.510   3.646   6.807  0.5095  0.5158  0.1963
 6218TIP3    H240070   2.659   3.672   6.811  0.4876  1.3232 -3.1604
 6219TIP3   OH240071   1.153   2.865  12.823 -0.1500 -0.1954 -0.3373
 6219TIP3    H140072   1.166   2.780  12.865  0.7873 -1.3197 -2.8215
 6219TIP3    H240073   1.233   2.915  12.843 -0.7295  0.1471  1.1755
 6220TIP3   OH240074   4.261   5.214   2.541  0.4975  1.1068 -0.2340
 6220TIP3    H140075   4.209   5.205   2.461 -1.6240  0.1615  1.2119
 6220TIP3    H240076   4.207   5.268   2.599  2.0870  1.9305  0.5074
 6221TIP3   OH240077   2.937   0.223   5.382  0.1011 -0.7173 -0.4806
 6221TIP3    H140078   2.852   0.218   5.338  0.8175 -1.1671 -1.8385
 6221TIP3    H240079   2.998   0.249   5.313  1.5099 -2.9010 -0.0991
 6222TIP3   OH240080   5.589   4.196  16.362  0.1680 -0.6302  0.1397
 6222TIP3    H140081   5.676   4.236  16.362 -0.5778  1.0518  0.4057
 6222TIP3    H240082   5.560   4.202  16.271 -1.0887  2.0735  0.6741
 6223TIP3   OH240083   2.837   5.178  13.336  0.1890  0.5047 -0.1956
 6223TIP3    H140084   2.794   5.109  13.286  0.0210  1.5189 -1.4855
 6223TIP3    H240085   2.772   5.207  13.400  0.0067 -0.0228 -0.1430
 6224TIP3   OH240086   4.343   5.355  12.441  0.0425 -0.5942  0.1462
 6224TIP3    H140087   4.433   5.358  12.472  0.6521 -1.2590 -1.5015
 6224TIP3    H240088   4.305   5.278  12.483 -0.4077  0.8388  2.4726
 6225TIP3   OH240089   2.129   2.191  11.734 -0.1301  0.1599 -0.1229
 6225TIP3    H140090   2.124   2.285  11.749  0.3087  0.2030 -0.2308
 6225TIP3    H240091   2.159   2.183  11.643 -4.1703 -0.0787 -1.5335
 6226TIP3   OH240092   0.447   5.865  14.732  0.2620 -0.3852 -0.0510
 6226TIP3    H140093   0.452   5.806  14.807  0.5223 -2.0054 -1.3073
 6226TIP3    H240094   0.436   5.807  14.656 -2.5314  1.3104 -1.0341
 6227TIP3   OH240095   3.344   4.218   5.553  0.5685 -0.1999 -0.2308
 6227TIP3    H140096   3.335   4.218   5.648  1.8850  1.7690 -0.0760
 6227TIP3    H240097   3.395   4.139   5.534 -2.3254 -2.2618  0.3826
 6228TIP3   OH240098   0.361   1.552  15.968  0.0299  0.1683  1.0389
 6228TIP3    H140099   0.313   1.492  15.911 -2.7246  1.3334  2.0488
 6228TIP3    H240100   0.376   1.630  15.915 -1.6958  0.8807  1.5557
 6229TIP3   OH240101   3.312   1.424   3.341  0.3395  0.0472  0.4075
 6229TIP3    H140102   3.381   1.402   3.403  0.7850  0.7570  0.1631
 6229TIP3    H240103   3.335   1.511   3.309 -0.4166  0.0915 -0.0220
 6230TIP3   OH240104   5.288   3.491  12.430 -0.1648  0.1428 -0.3853
 6230TIP3    H140105   5.333   3.575  12.441 -0.4879 -0.0530  2.9897
 6230TIP3    H240106   5.290   3.475  12.336  3.7401  1.8200 -0.6991
 6231TIP3   OH240107   4.441   5.979   5.381 -0.1502  0.3825 -0.5465
 6231TIP3    H140108   4.481   6.041   5.441 -0.8479  1.8075 -1.5206
 6231TIP3    H240109   4.514   5.948   5.327  0.1617  0.5927 -0.2488
 6232TIP3   OH240110   4.985   5.098  15.716 -0.2300 -0.0930  0.2268
 6232TIP3    H140111   4.928   5.147  15.657  0.0241 -0.0787 -0.0073
 6232TIP3    H240112   5.067   5.088  15.667  0.2073  0.4889  0.8419
 6233TIP3   OH240113   1.394   1.657   0.646 -0.4319 -0.2391  0.1192
 6233TIP3    H140114   1.414   1.728   0.707  0.6483 -0.5278  0.1081
 6233TIP3    H240115   1.330   1.603   0.692  0.5048 -0.5513  1.0628
 6234TIP3   OH240116   1.878   6.594   4.687  0.1765  0.2792 -0.2335
 6234TIP3    H140117   1.882   6.565   4.595 -0.4481  0.0668 -0.1948
 6234TIP3    H240118   1.786   6.582   4.712  0.2589  0.7277  0.2958
 6235TIP3   OH240119   5.654   5.946   1.074 -0.2041 -0.0592 -0.5525
 6235TIP3    H140120   5.628   5.862   1.036 -1.5433  0.9932 -2.0233
 6235TIP3    H240121   5.575   5.978   1.117  0.2137  0.5972 -0.2656
 6236TIP3   OH240122   5.472   2.545   4.013 -0.0237 -0.5080 -0.4701
 6236TIP3    H140123   5.512   2.513   3.932 -1.7843 -0.1088 -1.5346
 6236TIP3    H240124   5.417   2.473   4.043 -3.0458  0.9530 -2.2212
 6237TIP3   OH240125   5.033   3.928  13.235  0.5155 -0.4062  0.1945
 6237TIP3    H140126   5.073   3.981  13.304  0.1156 -0.2026  0.2694
 6237TIP3    H240127   5.030   3.985  13.159  0.4804 -0.4623  0.1539
 6238TIP3   OH240128   2.423   5.364   2.730  0.1737  0.0079 -0.1404
 6238TIP3    H140129   2.359   5.371   2.659 -0.6984 -0.6020  0.5711
 6238TIP3    H240130   2.370   5.352   2.809  1.0857  1.6265  0.7473
 6239TIP3   OH240131   0.042   1.281   4.846  0.3105 -0.2520 -1.1688
 6239TIP3    H140132   0.075   1.196   4.878 -2.9026 -1.0429  0.2755
 6239TIP3    H240133   0.062   1.281   4.753  4.0389 -0.7803 -0.4484
 6240TIP3   OH240134   1.191   0.332  15.488  0.5200  0.0359  0.0189
 6240TIP3    H140135   1.159   0.242  15.487  1.5659 -0.3395 -1.3507
 6240TIP3    H240136   1.144   0.374  15.415  0.1125  0.5804  0.5875
 6241TIP3   OH240137   3.126   2.650   1.941 -0.3582 -0.8206  0.1380
 6241TIP3    H140138   3.217   2.677   1.948 -0.3897 -1.0222  1.5682
 6241TIP3    H240139   3.076   2.731   1.955 -0.4021 -0.5600 -1.4482
 6242TIP3   OH240140   2.512   6.534   2.003 -0.5855  0.1698  0.6321
 6242TIP3    H140141   2.607   6.543   2.007 -0.6447  0.7461  0.7285
 6242TIP3    H240142   2.498   6.462   1.941 -0.0574 -0.8223  1.6488
 6243TIP3   OH240143   1.493   1.159  16.713 -0.2076  0.2935 -0.5289
 6243TIP3    H140144   1.414   1.170  16.766 -0.7875  3.0751 -1.8826
 6243TIP3    H240145   1.563   1.141  16.776 -1.2268  1.5836  1.0077
 6244TIP3   OH240146   0.312   3.255   5.594 -0.4745 -0.0406  0.0097
 6244TIP3    H140147   0.235   3.296   5.555  0.5477  1.5263 -0.3788
 6244TIP3    H240148   0.362   3.222   5.519 -1.1718 -1.8210  0.3031
 6245TIP3   OH240149   1.459   5.309   1.681  0.0048 -0.1346  0.2765
 6245TIP3    H140150   1.405   5.303   1.760 -0.6423  0.3563 -0.1230
 6245TIP3    H240151   1.454   5.401   1.655  4.3712  0.8853  2.5178
 6246TIP3   OH240152   0.769   2.223  15.572 -0.2801  0.3004  0.5038
 6246TIP3    H140153   0.695   2.193  15.625 -0.3917  3.4963  2.2873
 6246TIP3    H240154   0.750   2.315  15.554  1.1225  0.0024 -2.8342
 6247TIP3   OH240155   3.085   6.671  12.067 -0.2240 -0.2997  0.2559
 6247TIP3    H140156   3.057   6.722  11.991  0.1528 -0.7055 -0.1558
 6247TIP3    H240157   3.027   6.700  12.137  0.5627  1.3265  0.2430
 6248TIP3   OH240158   2.855   1.052  15.288  0.1945  0.3405 -0.0859
 6248TIP3    H140159   2.937   1.075  15.332 -0.6521  0.4156  1.5041
 6248TIP3    H240160   2.836   0.963  15.316  1.6041 -1.0608 -3.3899
 6249TIP3   OH240161   6.007   6.432   0.415 -1.0362  0.5456 -0.1890
 6249TIP3    H140162   6.072   6.499   0.392 -0.6022  0.8859  1.9628
 6249TIP3    H240163   6.044   6.350   0.382 -0.4655  1.0216 -0.7414
 6250TIP3   OH240164   1.230   3.523  10.648 -0.3489  0.1875  0.1438
 6250TIP3    H140165   1.242   3.498  10.556  0.5932  0.4886  0.1748
 6250TIP3    H240166   1.284   3.601  10.658 -1.1898  0.7045  0.7179
 6251TIP3   OH240167   3.352   3.621  14.402  0.6282  0.5154  0.7536
 6251TIP3    H140168   3.359   3.567  14.323 -2.0215 -2.1706  2.2823
 6251TIP3    H240169   3.325   3.707  14.369 -2.0646 -0.9803 -1.1998
 6252TIP3   OH240170   5.869   4.860   5.652 -0.2773  0.4436  0.1733
 6252TIP3    H140171   5.917   4.928   5.605  0.4437  0.2187  0.5698
 6252TIP3    H240172   5.932   4.828   5.717 -1.1058  0.4310  0.9726
 6253TIP3   OH240173   1.383   1.684  16.698  0.9007 -0.2704 -0.2305
 6253TIP3    H140174   1.360   1.597  16.730  1.1309 -0.0813  0.4757
 6253TIP3    H240175   1.448   1.670  16.631  0.8241 -0.6532 -0.2231
 6254TIP3   OH240176   3.110   1.450   2.786  0.1005  0.1509 -0.3812
 6254TIP3    H140177   3.155   1.527   2.751 -0.1529  0.0937 -0.8280
 6254TIP3    H240178   3.135   1.449   2.879  2.0339 -0.6065 -0.8956
 6255TIP3   OH240179   0.935   6.759   5.052  0.2416  0.3044 -0.0505
 6255TIP3    H140180   0.895   6.728   4.970  0.0627 -0.2432  0.2427
 6255TIP3    H240181   0.990   6.833   5.025  0.5476 -0.1692 -0.7337
 6256TIP3   OH240182   1.719   3.717  16.585 -0.0807 -0.4708  0.1029
 6256TIP3    H140183   1.672   3.790  16.544 -0.4414 -1.2167 -0.8245
 6256TIP3    H240184   1.811   3.741  16.576 -0.0174 -1.6080 -3.1388
 6257TIP3   OH240185   4.174   2.094  14.994  0.1269  0.7301 -0.5462
 6257TIP3    H140186   4.112   2.166  15.005 -0.2722  0.5214 -1.3857
 6257TIP3    H240187   4.127   2.016  15.023  0.0927  0.6115 -0.9143
 6258TIP3   OH240188   1.681   0.585   0.465  0.1310 -0.4552 -0.8084
 6258TIP3    H140189   1.656   0.620   0.551  3.7749 -1.9847  0.9936
 6258TIP3    H240190   1.638   0.500   0.460  1.9882 -1.5339  0.7352
 6259TIP3   OH240191   1.718   6.525  15.679  0.0870 -1.0222 -0.1055
 6259TIP3    H140192   1.711   6.586  15.752  0.0245 -0.3160 -0.6919
 6259TIP3    H240193   1.758   6.577  15.608 -1.3895 -1.2297 -1.1050
 6260TIP3   OH240194   4.716   0.121   1.159  0.3330 -0.6404 -0.0641
 6260TIP3    H140195   4.684   0.033   1.180 -0.2781 -0.5317 -0.5254
 6260TIP3    H240196   4.637   0.174   1.153  0.7833  0.2498  1.6099
 6261TIP3   OH240197   3.768   1.675   3.219 -0.1016 -0.1058  0.1404
 6261TIP3    H140198   3.713   1.752   3.206  0.2042  0.1340  0.2410
 6261TIP3    H240199   3.775   1.635   3.132 -1.7909 -1.0760  0.4356
 6262TIP3   OH240200   0.834   3.987   0.608 -0.1728  0.3435  0.6249
 6262TIP3    H140201   0.744   3.971   0.636  0.4091 -1.0098  1.7707
 6262TIP3    H240202   0.831   4.073   0.567 -2.3041 -0.3467 -0.7756
 6263TIP3   OH240203   5.220   3.112  13.731 -0.5607  0.2480  0.5410
 6263TIP3    H140204   5.236   3.158  13.649 -0.6626  0.1564  0.4720
 6263TIP3    H240205   5.302   3.122  13.780  0.4384 -1.9529 -0.6340
 6264TIP3   OH240206   5.641   1.034  12.058 -0.5554  0.5326 -0.0963
 6264TIP3    H140207   5.641   0.965  11.992 -2.3896 -0.1182  0.5516
 6264TIP3    H240208   5.714   1.012  12.116  0.3298  0.4557 -1.2277
 6265TIP3   OH240209   3.258   0.125   2.336 -0.5956  0.1823 -0.0866
 6265TIP3    H140210   3.310   0.186   2.389  2.7195 -1.1593 -1.6527
 6265TIP3    H240211   3.245   0.171   2.253  0.0823 -0.4183 -0.5221
 6266TIP3   OH240212   3.710   1.332  13.263 -0.3415 -0.1116 -0.4578
 6266TIP3    H140213   3.623   1.294  13.252 -0.0307 -0.3533 -2.2466
 6266TIP3    H240214   3.765   1.286  13.199  1.5470 -1.2956  1.9090
 6267TIP3   OH240215   2.897   4.802   3.994 -0.2580  0.6106 -0.4781
 6267TIP3    H140216   2.846   4.756   3.927 -0.1491 -0.0263 -0.1275
 6267TIP3    H240217   2.982   4.757   3.994  0.1681  1.4060 -0.7764
 6268TIP3   OH240218   1.165   1.292  12.351 -0.0936 -0.2188  0.5145
 6268TIP3    H140219   1.070   1.281  12.354  0.1215 -2.3114 -0.0306
 6268TIP3    H240220   1.200   1.203  12.348  1.9282  0.5011  1.6447
 6269TIP3   OH240221   5.087   1.454  12.370  0.4972  0.1231  0.2335
 6269TIP3    H140222   5.169   1.433  12.415  0.6228  1.8715  0.8664
 6269TIP3    H240223   5.020   1.451  12.439  0.3686  0.7845  0.1408
 6270TIP3   OH240224   1.486   0.802   5.087  0.0257  0.2231  0.0915
 6270TIP3    H140225   1.437   0.733   5.132 -0.6633  1.6942  1.6657
 6270TIP3    H240226   1.420   0.868   5.064  0.3744 -0.4138 -3.0035
 6271TIP3   OH240227   0.424   6.047  11.881 -0.0157  0.2798 -0.7390
 6271TIP3    H140228   0.507   6.089  11.905 -0.5823  0.4166  1.0014
 6271TIP3    H240229   0.359   6.117  11.888 -0.5379 -0.2270 -0.4844
 6272TIP3   OH240230   3.435   1.229  13.739  0.5311 -0.1087  0.5019
 6272TIP3    H140231   3.484   1.148  13.750  0.6052 -0.2055 -0.5698
 6272TIP3    H240232   3.457   1.260  13.651 -1.0431  0.0341  0.1449
 6273TIP3   OH240233   6.237   2.353  15.711 -0.2367 -0.2755  0.2532
 6273TIP3    H140234   6.293   2.352  15.633  0.6077  1.3242  0.8212
 6273TIP3    H240235   6.170   2.418  15.692  0.0454  0.2112  0.9086
 6274TIP3   OH240236   2.946   0.881   0.912  0.4048 -1.0739 -0.2991
 6274TIP3    H140237   2.906   0.899   0.997 -0.1807 -2.2760 -0.3021
 6274TIP3    H240238   2.877   0.835   0.863  1.1491 -1.4720 -0.9842
 6275TIP3   OH240239   0.446   2.334  13.102 -0.0528  0.4630 -0.5522
 6275TIP3    H140240   0.380   2.310  13.036 -0.0891 -1.1924  0.0423
 6275TIP3    H240241   0.407   2.408  13.148 -1.4725 -0.4043 -0.2972
 6276TIP3   OH240242   3.435   1.836  14.882  0.4151 -0.1892 -0.0008
 6276TIP3    H140243   3.455   1.753  14.926  1.1374  1.1410  2.2495
 6276TIP3    H240244   3.343   1.828  14.857  0.8890 -2.2767 -1.1985
 6277TIP3   OH240245   3.900   5.045   4.991  0.5703 -0.5579  0.0568
 6277TIP3    H140246   3.859   5.111   4.936 -0.6421 -0.5483  0.9493
 6277TIP3    H240247   3.849   5.047   5.072  2.3533 -0.5142  1.2080
 6278TIP3   OH240248   4.899   5.686   1.390 -0.2504 -0.5669  0.1216
 6278TIP3    H140249   4.932   5.596   1.387  3.0646  0.6425 -1.1159
 6278TIP3    H240250   4.906   5.717   1.300  0.9608  1.7276  0.9697
 6279TIP3   OH240251   5.313   5.548  15.887  0.3121  0.4669 -0.0100
 6279TIP3    H140252   5.242   5.485  15.881 -0.1312  0.8945  0.6739
 6279TIP3    H240253   5.334   5.553  15.980  1.2416  0.3385 -0.2071
 6280TIP3   OH240254   5.403   3.782  13.089 -0.5020  0.4561  0.3842
 6280TIP3    H140255   5.359   3.754  13.169 -0.5243  1.3978  0.7058
 6280TIP3    H240256   5.462   3.709  13.068  1.1101  1.1018  2.4908
 6281TIP3   OH240257   3.426   5.532   1.185  0.4142  0.0843  0.0134
 6281TIP3    H140258   3.378   5.574   1.114  0.7953  0.9111  0.2372
 6281TIP3    H240259   3.489   5.475   1.142  1.1140  1.1059 -0.3279
 6282TIP3   OH240260   3.263   5.138   1.069 -0.5147 -0.0885 -0.3611
 6282TIP3    H140261   3.337   5.119   1.012  0.0464 -2.1703  0.9904
 6282TIP3    H240262   3.210   5.058   1.067 -1.9090  0.8032 -0.0939
 6283TIP3   OH240263   3.729   0.545   5.315  0.4594 -0.3389 -0.0417
 6283TIP3    H140264   3.749   0.456   5.345 -0.8078 -1.1044 -1.4162
 6283TIP3    H240265   3.771   0.552   5.229  0.0418  0.1748 -0.2123
 6284TIP3   OH240266   0.458   4.529  10.765 -0.2600 -0.1968  0.0358
 6284TIP3    H140267   0.517   4.563  10.698  0.6700 -0.7795  0.5465
 6284TIP3    H240268   0.513   4.472  10.819 -0.7602  1.0426  1.8964
 6285TIP3   OH240269   6.551   6.649   1.202  0.4961  0.4722  0.0992
 6285TIP3    H140270   6.527   6.557   1.196  0.3026  0.5563 -0.4528
 6285TIP3    H240271   6.577   6.661   1.293  2.7648 -0.6880 -0.3416
 6286TIP3   OH240272   5.324   3.263   3.337 -0.2446  0.8906  0.0029
 6286TIP3    H140273   5.325   3.256   3.432  0.8180  2.9137  0.1800
 6286TIP3    H240274   5.382   3.193   3.307 -0.6781  0.1673  0.8196
 6287TIP3   OH240275   0.831   0.755   1.417  0.2794  0.0980 -0.3054
 6287TIP3    H140276   0.747   0.770   1.374  0.4076 -0.9589 -0.9527
 6287TIP3    H240277   0.886   0.716   1.349  0.5931 -1.2678  0.6969
 6288TIP3   OH240278   4.425   4.938   1.742  0.1718  0.2270  0.1564
 6288TIP3    H140279   4.521   4.936   1.733  0.1339  0.6203 -0.3561
 6288TIP3    H240280   4.411   4.965   1.833  0.5560  1.5304 -0.1519
 6289TIP3   OH240281   1.391   3.780  14.452  0.5128  0.7633  0.3928
 6289TIP3    H140282   1.390   3.839  14.528 -0.3201  0.2884  0.7494
 6289TIP3    H240283   1.301   3.748  14.445  1.3487 -1.9265  1.3289
 6290TIP3   OH240284   0.061   1.038  12.815  0.0364  0.3682  0.0747
 6290TIP3    H140285  -0.028   1.001  12.810 -0.4654  1.3021  1.6995
 6290TIP3    H240286   0.048   1.126  12.849  1.7052  0.0346  1.6081
 6291TIP3   OH240287   0.850   5.916   4.376 -0.1336  0.0627  0.0129
 6291TIP3    H140288   0.770   5.915   4.428 -0.2295  1.5743 -0.0882
 6291TIP3    H240289   0.863   5.824   4.350 -1.0555 -0.4154  1.1937
 6292TIP3   OH240290   2.074   4.190  15.914  0.1270  0.1125 -0.5301
 6292TIP3    H140291   2.105   4.101  15.932  0.6044  0.4906  0.5740
 6292TIP3    H240292   2.084   4.200  15.820  2.1392 -0.2499 -0.3818
 6293TIP3   OH240293   1.346   2.051  11.008  0.1683 -0.1986 -0.1281
 6293TIP3    H140294   1.322   1.960  10.991  1.1396  0.0089 -2.9191
 6293TIP3    H240295   1.439   2.057  10.982  0.1719  1.5181  0.1850
 6294TIP3   OH240296   5.255   5.559  14.086  0.0422  0.2724  0.1823
 6294TIP3    H140297   5.203   5.587  14.010  0.9472 -1.7920 -1.2396
 6294TIP3    H240298   5.316   5.632  14.100  1.1208 -0.0969 -2.2777
 6295TIP3   OH240299   1.823   0.869   1.392  0.5303  0.3043  0.0516
 6295TIP3    H140300   1.729   0.854   1.383  0.6742 -1.6616  1.3864
 6295TIP3    H240301   1.843   0.938   1.329 -1.5015 -0.4769 -1.5062
 6296TIP3   OH240302   0.307   3.188  13.322  0.0138 -0.0989 -0.1268
 6296TIP3    H140303   0.274   3.276  13.303 -1.3001 -0.1480  1.8532
 6296TIP3    H240304   0.332   3.153  13.236 -2.1731  1.1258 -1.3005
 6297TIP3   OH240305   1.544   1.557   1.076 -0.1237  0.5741  0.8054
 6297TIP3    H140306   1.613   1.575   1.012 -0.8637  0.5420 -0.0256
 6297TIP3    H240307   1.464   1.591   1.035 -1.1396 -2.1896  0.3401
 6298TIP3   OH240308   4.820   3.507   3.299 -0.1964  0.1858 -0.4524
 6298TIP3    H140309   4.818   3.451   3.377 -3.1119 -1.8206 -1.8671
 6298TIP3    H240310   4.908   3.543   3.297  0.5208 -1.2405  2.7000
 6299TIP3   OH240311   4.026   5.848   3.238 -0.1277 -0.0585  0.6521
 6299TIP3    H140312   3.957   5.906   3.270 -0.2616  0.8150 -1.2010
 6299TIP3    H240313   4.094   5.906   3.205  0.1557 -0.9520 -0.3490
 6300TIP3   OH240314   6.606   6.735  11.090  0.1074  0.3444 -0.5666
 6300TIP3    H140315   6.610   6.822  11.130 -1.3198  0.0323  0.3062
 6300TIP3    H240316   6.588   6.751  10.998 -2.7019  0.9369  0.0470
 6301TIP3   OH240317   0.765   1.260  11.220  0.3992  0.0010 -0.0778
 6301TIP3    H140318   0.766   1.355  11.209 -0.2463 -0.0530 -0.6837
 6301TIP3    H240319   0.832   1.228  11.159  0.6404  0.0682  0.1507
 6302TIP3   OH240320   1.962   6.734  16.564 -1.0745 -0.2680  0.4792
 6302TIP3    H140321   1.867   6.744  16.566 -0.9340  2.3600 -1.9984
 6302TIP3    H240322   1.996   6.819  16.594  0.4875 -0.7715  0.2138
 6303TIP3   OH240323   2.981   2.763   4.289  0.0305  0.3055 -0.6097
 6303TIP3    H140324   2.891   2.768   4.321  0.1754 -0.4311 -0.0673
 6303TIP3    H240325   2.978   2.798   4.200 -0.8518 -0.0450 -0.7140
 6304TIP3   OH240326   3.850   6.067   0.342  0.3526 -0.7285 -0.1458
 6304TIP3    H140327   3.909   6.062   0.417 -1.4372  1.6636  1.5167
 6304TIP3    H240328   3.762   6.062   0.380 -0.5575 -0.5304 -2.1701
 6305TIP3   OH240329   3.891   1.674  12.256 -0.2842  0.4489  0.2512
 6305TIP3    H140330   3.899   1.588  12.296  1.9757  0.7875  0.6162
 6305TIP3    H240331   3.862   1.657  12.166 -3.5495 -0.4266  1.3992
 6306TIP3   OH240332   5.874   1.271   0.207  0.4129  0.2164 -0.2265
 6306TIP3    H140333   5.934   1.312   0.268  0.1400  2.1167 -1.2098
 6306TIP3    H240334   5.794   1.256   0.258  0.1619  1.8497 -0.1198
 6307TIP3   OH240335   5.221   6.445  13.485 -0.2188 -0.2669 -0.6772
 6307TIP3    H140336   5.278   6.447  13.562  0.1503  0.1751 -0.9584
 6307TIP3    H240337   5.277   6.476  13.413 -0.2318 -1.7468 -1.3376
 6308TIP3   OH240338   0.491   3.861   4.394 -0.4564  0.6216 -0.2149
 6308TIP3    H140339   0.434   3.808   4.449  0.0896 -0.5263 -0.7225
 6308TIP3    H240340   0.465   3.838   4.304 -0.1941  1.1889 -0.4334
 6309TIP3   OH240341   1.165   0.878  12.812 -0.0102 -0.1871 -0.4212
 6309TIP3    H140342   1.198   0.789  12.799  2.0057  0.5143 -0.1679
 6309TIP3    H240343   1.076   0.865  12.845  0.2276 -2.1129 -0.4604
 6310TIP3   OH240344   3.654   0.672  13.221 -0.0991  0.1192  0.2439
 6310TIP3    H140345   3.624   0.640  13.136  1.6969 -0.8185 -0.0458
 6310TIP3    H240346   3.716   0.742  13.200 -0.8139  0.9407  0.8188
 6311TIP3   OH240347   1.520   6.681  16.388  0.0558  0.4030  0.4135
 6311TIP3    H140348   1.485   6.592  16.386 -0.9041  0.7747  0.4865
 6311TIP3    H240349   1.580   6.681  16.462  0.4006 -0.3014  0.1506
 6312TIP3   OH240350   3.548   6.152  11.947 -0.1287  0.4567 -0.7168
 6312TIP3    H140351   3.514   6.063  11.936  0.3820  0.3596 -1.4775
 6312TIP3    H240352   3.564   6.159  12.041 -0.4959 -0.1370 -0.6046
 6313TIP3   OH240353   1.780   4.996  14.846 -0.3187  0.0855  0.1683
 6313TIP3    H140354   1.758   4.905  14.828  1.7740 -1.1670  3.4200
 6313TIP3    H240355   1.856   5.014  14.790  0.7616 -0.9954  1.2324
 6314TIP3   OH240356   2.004   3.633   0.137  0.3864 -0.0055  0.2474
 6314TIP3    H140357   1.911   3.616   0.121 -0.0778  0.0143  2.7437
 6314TIP3    H240358   2.049   3.582   0.070 -1.4204  0.2645 -1.2222
 6315TIP3   OH240359   6.189   0.247  16.496 -0.3751 -0.8656  0.1441
 6315TIP3    H140360   6.147   0.190  16.560 -0.9360  0.2408  0.7781
 6315TIP3    H240361   6.171   0.335  16.528  0.4346 -0.3363 -0.8529
 6316TIP3   OH240362   4.292   4.477   2.502  0.4826 -0.0373  0.2021
 6316TIP3    H140363   4.224   4.440   2.558  0.2956  1.4133  0.9544
 6316TIP3    H240364   4.333   4.544   2.556  1.1088  0.5362 -0.9788
 6317TIP3   OH240365   2.626   4.086  16.508  0.9811 -0.1719 -0.4216
 6317TIP3    H140366   2.614   4.120  16.419  1.8284  0.7636 -0.1811
 6317TIP3    H240367   2.643   4.163  16.561  1.6804 -0.8540  0.3459
 6318TIP3   OH240368   0.259   0.781   4.533 -0.4018 -0.0383  0.4333
 6318TIP3    H140369   0.180   0.830   4.508 -0.6943  0.1954  1.8001
 6318TIP3    H240370   0.242   0.692   4.501 -1.5482 -0.1715  1.3921
 6319TIP3   OH240371   5.619   0.366   0.366 -0.5583  0.2560  0.0626
 6319TIP3    H140372   5.678   0.390   0.437  0.9791  0.6608 -1.3074
 6319TIP3    H240373   5.626   0.270   0.361  2.0634  0.4797 -1.7696
 6320TIP3   OH240374   0.564   4.440  12.499 -0.6519 -0.2685  0.1235
 6320TIP3    H140375   0.622   4.447  12.574 -0.0834 -0.3370 -0.3109
 6320TIP3    H240376   0.535   4.349  12.499 -0.7234 -0.2464  0.3071
 6321TIP3   OH240377   3.519   3.809   1.442  0.5721 -0.1102 -0.0364
 6321TIP3    H140378   3.554   3.725   1.413 -2.1411 -0.6214 -2.0215
 6321TIP3    H240379   3.528   3.807   1.537  4.3291 -0.8600 -0.3332
 6322TIP3   OH240380   2.061   2.088   4.485 -0.0516  0.3143  0.0289
 6322TIP3    H140381   2.119   2.025   4.528  0.0179 -0.3043 -0.9533
 6322TIP3    H240382   2.039   2.047   4.401  0.0066  1.5994 -0.6262
 6323TIP3   OH240383   4.873   5.322   3.752 -0.0112 -0.4732  0.0279
 6323TIP3    H140384   4.952   5.337   3.803  1.5100  0.3879 -2.4559
 6323TIP3    H240385   4.896   5.351   3.664 -2.8704 -0.9129 -0.9160
 6324TIP3   OH240386   3.689   2.294  13.190  0.0070 -0.5320 -0.0081
 6324TIP3    H140387   3.712   2.386  13.185 -0.0825 -0.4967  0.2149
 6324TIP3    H240388   3.756   2.255  13.245  0.5770 -0.7794 -0.8735
 6325TIP3   OH240389   1.318   0.193   1.541  0.0459  0.2053  0.0424
 6325TIP3    H140390   1.272   0.240   1.471 -1.0922  0.3131  0.8477
 6325TIP3    H240391   1.316   0.253   1.616 -1.2897 -1.0569  1.0357
 6326TIP3   OH240392   6.291   2.641  16.314 -0.2309 -0.5630  0.1962
 6326TIP3    H140393   6.378   2.629  16.275 -0.0089 -1.3814  0.9125
 6326TIP3    H240394   6.293   2.730  16.349 -0.5276  0.2803 -1.8470
 6327TIP3   OH240395   4.970   1.046  13.774 -0.1330  0.1563 -0.3226
 6327TIP3    H140396   4.937   0.962  13.741 -0.9791 -0.5660  2.2515
 6327TIP3    H240397   5.003   1.026  13.861  1.5687  2.1146 -0.4837
 6328TIP3   OH240398   4.417   3.028   4.022 -0.2830 -0.0251 -0.0233
 6328TIP3    H140399   4.491   3.063   3.973 -0.1866 -0.9048 -0.5108
 6328TIP3    H240400   4.359   2.990   3.955 -0.6191 -0.3604  0.4499
 6329TIP3   OH240401   0.969   1.764   3.552 -0.2342 -0.4867  0.1126
 6329TIP3    H140402   0.937   1.830   3.490 -1.0596 -0.7161  0.2936
 6329TIP3    H240403   1.011   1.698   3.496  0.7985  0.3049 -0.0505
 6330TIP3   OH240404   0.984   0.958   1.544  0.3304 -0.1418  0.0851
 6330TIP3    H140405   1.040   1.009   1.486 -1.2173 -0.2641 -1.5888
 6330TIP3    H240406   0.973   0.874   1.499 -1.1775 -0.1123  0.3703
 6331TIP3   OH240407   1.609   0.758   1.865 -0.2267  0.1886  0.6448
 6331TIP3    H140408   1.554   0.837   1.860 -0.3539  0.0490 -0.2726
 6331TIP3    H240409   1.592   0.713   1.783  0.2625 -0.5286  0.9396
 6332TIP3   OH240410   0.251   4.659   6.086 -0.0077  0.5954  0.0459
 6332TIP3    H140411   0.160   4.689   6.080 -0.9419 -1.8625  1.3773
 6332TIP3    H240412   0.284   4.699   6.166  0.4136  2.2132 -0.8973
 6333TIP3   OH240413   1.900   4.788  14.382 -0.5277  0.2499  0.3832
 6333TIP3    H140414   1.987   4.749  14.374 -0.1985  1.1645 -0.6887
 6333TIP3    H240415   1.914   4.869  14.430 -1.3164 -1.2263  3.2499
 6334TIP3   OH240416   0.632   4.065   0.383  0.8701 -0.3471 -0.6073
 6334TIP3    H140417   0.611   4.018   0.302 -1.0300 -2.3504  0.9721
 6334TIP3    H240418   0.546   4.090   0.418  1.6315 -0.1340  1.1388
 6335TIP3   OH240419   3.477   2.955   1.116  0.1583  0.0657 -0.1186
 6335TIP3    H140420   3.481   3.050   1.131  1.1491  0.3573 -2.0815
 6335TIP3    H240421   3.487   2.945   1.021 -1.5985 -1.9172 -0.1439
 6336TIP3   OH240422   1.020   0.403  14.747  0.5805 -0.2925 -0.6210
 6336TIP3    H140423   0.927   0.394  14.724  0.1086  0.1698  1.0408
 6336TIP3    H240424   1.064   0.337  14.694 -0.7981 -1.0526 -0.8491
 6337TIP3   OH240425   2.805   5.457   0.831  0.3657  0.4684  0.4022
 6337TIP3    H140426   2.871   5.509   0.785  0.4382 -0.7989 -0.9695
 6337TIP3    H240427   2.813   5.483   0.923  1.9056  1.2376  0.0646
 6338TIP3   OH240428   4.802   1.241   0.875  0.3760 -0.5679 -0.2259
 6338TIP3    H140429   4.711   1.269   0.869  0.2782 -0.5806  1.0571
 6338TIP3    H240430   4.797   1.154   0.914  0.9134 -0.7457 -0.5555
 6339TIP3   OH240431   3.556   4.727  16.442  0.3428  0.5916 -0.2204
 6339TIP3    H140432   3.625   4.755  16.383 -0.6556  1.5785 -0.9211
 6339TIP3    H240433   3.510   4.807  16.467 -0.0034  0.0516  0.9446
 6340TIP3   OH240434   4.141   0.977  12.580 -0.6534  0.5747  0.1507
 6340TIP3    H140435   4.060   0.965  12.532  0.2696  1.0930 -1.5755
 6340TIP3    H240436   4.205   0.924  12.533 -0.7944 -3.1424  3.8160
 6341TIP3   OH240437   5.737   3.329   5.893 -0.3300 -0.2631 -0.1720
 6341TIP3    H140438   5.755   3.258   5.832  0.0317 -0.4187  0.1178
 6341TIP3    H240439   5.821   3.349   5.934 -0.9305 -1.5910  1.8204
 6342TIP3   OH240440   4.953   3.795   1.002  0.4357 -0.3625 -0.0849
 6342TIP3    H140441   4.955   3.712   0.954  0.6761 -0.1969 -0.3650
 6342TIP3    H240442   5.043   3.827   0.997  0.5188 -0.4609  0.6859
 6343TIP3   OH240443   2.996   1.540  13.230  0.9259  0.0576 -0.0529
 6343TIP3    H140444   3.006   1.445  13.239  3.7170  0.2527 -0.8678
 6343TIP3    H240445   3.060   1.565  13.165  0.5579  2.5986  0.5236
 6344TIP3   OH240446   2.170   2.521  12.103 -0.1269  0.0774 -0.4128
 6344TIP3    H140447   2.248   2.575  12.090 -0.8168  1.0426 -0.5862
 6344TIP3    H240448   2.112   2.576  12.155 -0.5788 -0.7503 -0.0360
 6345TIP3   OH240449   5.536   2.417   2.516  0.1036 -0.4868  0.0504
 6345TIP3    H140450   5.480   2.361   2.461  0.7738 -1.0019 -0.1101
 6345TIP3    H240451   5.558   2.491   2.460 -0.9871  0.0761  0.3421
 6346TIP3   OH240452   2.823   0.247  14.792 -0.7138 -0.5649 -0.8629
 6346TIP3    H140453   2.773   0.289  14.722 -2.0792  1.5767  1.3263
 6346TIP3    H240454   2.830   0.313  14.860  1.5947 -2.2190  0.5863
 6347TIP3   OH240455   5.767   4.965   0.914 -0.3118  0.0369  0.0214
 6347TIP3    H140456   5.850   5.009   0.895  0.4700 -0.9148  1.1598
 6347TIP3    H240457   5.716   5.030   0.962  0.0639  0.3585 -0.0101
 6348TIP3   OH240458   4.966   0.787  11.948  0.1699  0.0011  0.4772
 6348TIP3    H140459   5.033   0.850  11.922  2.3758 -2.0500  1.0109
 6348TIP3    H240460   4.919   0.768  11.867  1.3354  0.2281 -0.2765
 6349TIP3   OH240461   2.492   2.899  15.885 -0.0504 -0.1355  0.3245
 6349TIP3    H140462   2.400   2.924  15.891 -0.1752 -0.5930  0.3256
 6349TIP3    H240463   2.492   2.805  15.900  0.2718 -0.3594 -1.0482
 6350TIP3   OH240464   5.258   1.166   4.161 -0.4932  0.3253 -0.7854
 6350TIP3    H140465   5.239   1.099   4.227 -0.2040  1.0238  0.0147
 6350TIP3    H240466   5.174   1.181   4.118 -0.1824 -1.7963 -2.1467
 6351TIP3   OH240467   0.402   1.610  16.502  0.7648 -0.1573  0.4983
 6351TIP3    H140468   0.484   1.604  16.452  1.3082 -1.4765  1.5400
 6351TIP3    H240469   0.406   1.538  16.564 -1.8127 -1.0751 -0.3390
 6352TIP3   OH240470   0.037   0.836  11.307  0.1145  0.0841 -0.5149
 6352TIP3    H140471   0.049   0.911  11.366 -1.9769  1.4171 -1.7227
 6352TIP3    H240472  -0.056   0.815  11.314 -0.1861  0.2781 -3.3139
 6353TIP3   OH240473   6.448   2.259  11.404 -0.4809  0.1047 -0.0215
 6353TIP3    H140474   6.373   2.313  11.380 -0.0874  0.5973 -0.1406
 6353TIP3    H240475   6.478   2.295  11.488  0.0492  0.3536 -0.3138
 6354TIP3   OH240476   3.633   3.721   2.022  0.2492 -0.0710  0.0470
 6354TIP3    H140477   3.683   3.801   2.011  0.1860 -0.4052 -3.0248
 6354TIP3    H240478   3.564   3.744   2.085  0.1479  2.3164 -0.8962
 6355TIP3   OH240479   3.578   2.367   1.144  0.3826  0.4731 -0.5504
 6355TIP3    H140480   3.606   2.319   1.066 -0.7736 -2.2826  0.6589
 6355TIP3    H240481   3.535   2.301   1.198 -0.2149  2.6693  1.7311
 6356TIP3   OH240482   3.883   0.863  13.199  1.1968 -0.1548  0.3464
 6356TIP3    H140483   3.939   0.941  13.197  0.6557  0.2389  0.5116
 6356TIP3    H240484   3.925   0.805  13.262  1.6236 -0.0126  0.1942
 6357TIP3   OH240485   6.157   4.995  16.538  0.4137 -0.4107 -0.2236
 6357TIP3    H140486   6.234   4.947  16.569  0.7850  0.5482  0.3498
 6357TIP3    H240487   6.181   5.023  16.449  1.3888  1.2772  0.5326
 6358TIP3   OH240488   3.568   1.672  15.559  0.1806 -0.4274 -0.0369
 6358TIP3    H140489   3.615   1.590  15.544  0.3673 -0.1436 -1.0764
 6358TIP3    H240490   3.533   1.665  15.647  1.7338 -0.8762  0.5593
 6359TIP3   OH240491   2.555   3.967  12.051 -0.2327 -0.2338  0.4713
 6359TIP3    H140492   2.553   3.897  11.985 -0.0499  0.8054 -0.6518
 6359TIP3    H240493   2.463   3.993  12.061 -0.4850 -1.5433  1.9148
 6360TIP3   OH240494   2.879   1.355  10.452 -0.7601 -0.1934  0.6818
 6360TIP3    H140495   2.918   1.271  10.429  0.6693  0.1815  1.6574
 6360TIP3    H240496   2.788   1.334  10.475 -0.4423 -1.4590  0.8171
 6361TIP3   OH240497   5.633   3.421  16.697  0.0441  0.2446  0.2810
 6361TIP3    H140498   5.621   3.408  16.602  0.5377  0.3687  0.2001
 6361TIP3    H240499   5.627   3.515  16.709 -1.0446  0.1482  0.5219
 6362TIP3   OH240500   1.523   5.080   1.920 -0.1182  0.7248  0.9761
 6362TIP3    H140501   1.442   5.039   1.950 -0.7792  0.9607 -0.4636
 6362TIP3    H240502   1.579   5.083   1.998 -0.6875 -1.3738  1.4987
 6363TIP3   OH240503   1.647   6.066  13.597 -0.3677  0.0880  0.0404
 6363TIP3    H140504   1.738   6.078  13.625 -0.4270  1.3319 -0.2457
 6363TIP3    H240505   1.635   5.971  13.594  0.8700 -0.0870  0.2433
 6364TIP3   OH240506   5.795   0.053   2.788  0.0482 -0.4665  0.3323
 6364TIP3    H140507   5.725   0.091   2.734  0.2986  3.4970  2.5828
 6364TIP3    H240508   5.755  -0.023   2.829 -2.0826  0.1281 -0.5510
 6365TIP3   OH240509   4.361   5.365  16.739 -0.1786  0.2043  0.1372
 6365TIP3    H140510   4.356   5.319  16.823 -0.0204 -0.3121 -0.1397
 6365TIP3    H240511   4.452   5.357  16.712 -0.1449  0.7001  0.1000
 6366TIP3   OH240512   1.229   5.727  13.291 -0.1942 -0.2567  0.3298
 6366TIP3    H140513   1.272   5.778  13.222 -1.2646 -0.3400 -0.4135
 6366TIP3    H240514   1.286   5.737  13.367  0.8733  0.0484 -0.4956
 6367TIP3   OH240515   5.687   0.287   4.644 -0.5752 -0.1709 -0.1737
 6367TIP3    H140516   5.595   0.272   4.663 -1.2412  0.7859 -2.5120
 6367TIP3    H240517   5.706   0.374   4.679 -1.5050  1.1029 -2.6925
 6368TIP3   OH240518   0.120   1.241  11.295  0.7176  0.3142 -0.1270
 6368TIP3    H140519   0.134   1.302  11.222  1.0318  0.3889 -0.0038
 6368TIP3    H240520   0.024   1.234  11.302  0.6818  0.6586 -0.2543
 6369TIP3   OH240521   6.597   1.893   3.080 -0.4765 -0.0253  0.6498
 6369TIP3    H140522   6.653   1.889   3.157  1.0266  3.3914 -0.1408
 6369TIP3    H240523   6.511   1.868   3.112  0.4981 -0.5334  3.0095
 6370TIP3   OH240524   6.589   0.201   4.943  0.1152 -0.6378  0.2904
 6370TIP3    H140525   6.594   0.106   4.935  0.0541 -0.5240 -1.3816
 6370TIP3    H240526   6.676   0.232   4.919 -0.8561 -0.1028 -2.7984
 6371TIP3   OH240527   3.063   0.109  12.930 -0.5456 -0.0015  0.2100
 6371TIP3    H140528   3.089   0.028  12.888 -2.1128  0.0690 -0.9472
 6371TIP3    H240529   3.127   0.174  12.900 -2.0230  0.2112 -2.7108
 6372TIP3   OH240530   5.285   2.012  13.771  0.1885  0.2177  0.1940
 6372TIP3    H140531   5.327   1.983  13.852 -0.4313 -2.0544 -0.2513
 6372TIP3    H240532   5.192   2.021  13.793  0.0043 -0.4843 -0.2558
 6373TIP3   OH240533   2.817   3.581   2.043 -0.3469  0.4683 -0.0510
 6373TIP3    H140534   2.911   3.565   2.035 -0.6234 -0.9391 -0.6920
 6373TIP3    H240535   2.788   3.516   2.108 -0.6859  1.6813  1.0354
 6374TIP3   OH240536   5.698   0.090   1.686 -0.6325 -0.1761  0.4902
 6374TIP3    H140537   5.681   0.083   1.780  1.1190  2.0021  0.9992
 6374TIP3    H240538   5.721   0.182   1.672 -0.3861 -0.5775 -1.9971
 6375TIP3   OH240539   2.339   6.005  13.373  0.1363 -0.0037  0.1040
 6375TIP3    H140540   2.251   5.980  13.346  0.1438  0.5919 -0.4915
 6375TIP3    H240541   2.335   6.101  13.382  0.8400  0.0822 -0.3905
 6376TIP3   OH240542   3.176   0.652   2.250 -0.5317  0.3402 -0.0920
 6376TIP3    H140543   3.241   0.603   2.301  0.6690  1.2295 -0.7353
 6376TIP3    H240544   3.093   0.636   2.295  0.1209 -0.8349  0.7321
 6377TIP3   OH240545   6.231   2.180  13.359 -0.4037 -0.1214 -0.5144
 6377TIP3    H140546   6.320   2.214  13.366  0.2296 -1.8386 -0.1210
 6377TIP3    H240547   6.233   2.122  13.283 -1.0855 -0.5041 -0.2457
 6378TIP3   OH240548   2.015   4.567   6.063  0.0847  0.3815  0.4908
 6378TIP3    H140549   2.010   4.473   6.051 -0.9796  0.4653  0.2483
 6378TIP3    H240550   2.094   4.593   6.015  0.3967 -0.3797  0.5850
 6379TIP3   OH240551   2.516   3.283   2.304  0.0369 -0.5463  0.0440
 6379TIP3    H140552   2.448   3.299   2.239 -0.4467 -0.0091  0.6831
 6379TIP3    H240553   2.503   3.191   2.329 -1.3079 -0.0843  1.1304
 6380TIP3   OH240554   1.467   4.092   4.815 -0.6692 -0.0272  0.6531
 6380TIP3    H140555   1.398   4.028   4.831 -0.4373 -0.8268 -1.4629
 6380TIP3    H240556   1.535   4.043   4.769 -0.3184  1.6428 -0.6348
 6381TIP3   OH240557   3.353   6.651  12.030  0.4599  0.2729 -0.3611
 6381TIP3    H140558   3.359   6.558  12.011  0.1418  0.4600 -1.4353
 6381TIP3    H240559   3.260   6.667  12.046  0.3606  0.5850 -1.2054
 6382TIP3   OH240560   4.950   3.754   5.079 -0.3216  0.6184  0.7037
 6382TIP3    H140561   4.991   3.700   5.011  1.3608  1.2528  1.2014
 6382TIP3    H240562   4.961   3.703   5.159 -0.2347  0.9329  0.8888
 6383TIP3   OH240563   4.564   3.004  12.680 -0.4726  0.1214  0.9325
 6383TIP3    H140564   4.550   3.053  12.761 -1.1427 -0.0205  0.9097
 6383TIP3    H240565   4.478   3.003  12.637  0.2869  1.8056 -0.7001
 6384TIP3   OH240566   2.780   3.684  14.251  0.5001 -0.0788  0.4929
 6384TIP3    H140567   2.734   3.662  14.332  0.6105 -0.7416  0.3839
 6384TIP3    H240568   2.851   3.742  14.278 -0.7086  1.3907  0.5953
 6385TIP3   OH240569   1.019   2.066  17.239 -0.2229 -0.0046  0.4163
 6385TIP3    H140570   1.055   1.978  17.226 -1.0019 -0.3798  0.7861
 6385TIP3    H240571   1.022   2.106  17.152 -1.2202 -0.9159 -0.0431
 6386TIP3   OH240572   2.173   5.800  16.421  0.5928 -0.5376  0.1264
 6386TIP3    H140573   2.212   5.735  16.362  0.7739 -0.3330  0.0165
 6386TIP3    H240574   2.219   5.882  16.399 -1.7307  0.2946 -1.8860
 6387TIP3   OH240575   6.732   5.835   4.651  0.7282  0.3853 -0.5087
 6387TIP3    H140576   6.785   5.773   4.702  3.4334  2.6148 -0.4961
 6387TIP3    H240577   6.675   5.876   4.716 -0.3037 -1.2592 -0.3407
 6388TIP3   OH240578   2.837   5.158   0.805 -0.2488 -0.7663 -0.3186
 6388TIP3    H140579   2.905   5.148   0.872  0.2671 -1.5605 -0.9557
 6388TIP3    H240580   2.820   5.252   0.802  1.3480 -0.4820 -0.6659
 6389TIP3   OH240581   1.560   1.322   4.248  0.3358  0.6069  0.2489
 6389TIP3    H140582   1.487   1.322   4.186  1.0190 -1.5164 -0.5794
 6389TIP3    H240583   1.578   1.229   4.264  2.0581  1.1193  1.4095
 6390TIP3   OH240584   4.400   5.338  13.582  0.2737 -0.1064  0.2549
 6390TIP3    H140585   4.331   5.402  13.565 -0.0625 -0.5248  0.0482
 6390TIP3    H240586   4.354   5.254  13.589  0.4329 -0.0082  2.9370
 6391TIP3   OH240587   2.923   2.941   0.035  0.3737  0.3939 -0.3055
 6391TIP3    H140588   2.838   2.937   0.080  1.6269 -0.9659  2.0524
 6391TIP3    H240589   2.978   2.992   0.094  1.4492  0.5236 -1.4164
 6392TIP3   OH240590   2.423   3.371   2.905  0.4825  0.0905 -0.7348
 6392TIP3    H140591   2.496   3.428   2.883  0.1280  1.0427  0.4917
 6392TIP3    H240592   2.464   3.289   2.931  1.1378  0.7433  0.3137
 6393TIP3   OH240593   3.998   1.579  13.120  0.2123 -0.6424 -0.5882
 6393TIP3    H140594   4.028   1.518  13.187 -1.7347 -1.8768 -0.7858
 6393TIP3    H240595   3.986   1.662  13.167  0.3130 -1.0982  0.2575
 6394TIP3   OH240596   3.186   2.287  16.453  0.9139 -0.0835 -0.6364
 6394TIP3    H140597   3.154   2.202  16.422 -0.3130 -0.1160  0.6413
 6394TIP3    H240598   3.141   2.351  16.397  0.6931 -0.2217 -0.6182
 6395TIP3   OH240599   2.012   3.555   6.278  0.8360 -0.0226 -0.4616
 6395TIP3    H140600   2.061   3.556   6.196  1.7922 -3.0731  0.0227
 6395TIP3    H240601   2.062   3.614   6.335  2.4718 -0.9963 -0.8306
 6396TIP3   OH240602   6.103   5.945   4.525 -0.0063 -0.1001 -0.0791
 6396TIP3    H140603   6.131   5.975   4.612 -2.3997  0.7952  0.4066
 6396TIP3    H240604   6.146   5.860   4.514 -0.6743 -0.8172  2.5297
 6397TIP3   OH240605   4.158   0.294  12.856  0.5185  0.2815 -0.2235
 6397TIP3    H140606   4.125   0.221  12.908 -1.9105  1.3187 -0.2233
 6397TIP3    H240607   4.130   0.276  12.767 -0.3152  1.3145 -0.1846
 6398TIP3   OH240608   3.005   5.138   5.738 -0.0062 -0.1665  0.1331
 6398TIP3    H140609   3.085   5.187   5.723  0.1276 -0.6507 -0.8241
 6398TIP3    H240610   2.983   5.102   5.652  1.1158 -3.6329  1.2260
 6399TIP3   OH240611   5.911   0.628  13.222  0.3880 -0.4345  0.4972
 6399TIP3    H140612   5.991   0.659  13.265  0.1653  1.8732 -0.6621
 6399TIP3    H240613   5.915   0.666  13.134 -0.8811 -2.1633 -0.3206
 6400TIP3   OH240614   4.075   0.717   4.446  0.2557  0.0282  0.5876
 6400TIP3    H140615   3.994   0.746   4.405  0.5685  1.2600  0.8037
 6400TIP3    H240616   4.122   0.670   4.377 -0.4895 -0.3839  0.3663
 6401TIP3   OH240617   5.747   6.516  11.986  0.1180  0.6806 -0.0057
 6401TIP3    H140618   5.769   6.521  11.893  1.8917  2.1211  0.4614
 6401TIP3    H240619   5.821   6.471  12.026 -0.4988  0.3258  0.7644
 6402TIP3   OH240620   1.781   4.545  12.546 -0.6121 -0.0576 -0.3357
 6402TIP3    H140621   1.734   4.597  12.611 -0.2140 -0.0463 -0.0572
 6402TIP3    H240622   1.850   4.603  12.514 -0.2064 -0.3989 -0.0718
 6403TIP3   OH240623   4.426   0.958  12.033 -0.2214 -0.4492  0.6073
 6403TIP3    H140624   4.381   0.919  11.959 -1.1862 -0.3874  1.1530
 6403TIP3    H240625   4.513   0.918  12.033  0.1952  0.4290 -1.2548
 6404TIP3   OH240626   1.162   6.229   1.127 -0.3469 -0.5884  0.8954
 6404TIP3    H140627   1.125   6.141   1.130 -2.3570  0.2511  1.2366
 6404TIP3    H240628   1.088   6.287   1.142  0.8940  1.1914  0.3059
 6405TIP3   OH240629   4.908   3.284   2.778 -0.0510 -0.2132  0.0552
 6405TIP3    H140630   4.990   3.242   2.752 -0.2187 -0.9108  0.6288
 6405TIP3    H240631   4.933   3.351   2.841  0.0765 -0.4660  0.2733
 6406TIP3   OH240632   2.104   3.656   1.692  0.1625 -0.1368  0.5267
 6406TIP3    H140633   2.090   3.730   1.633 -0.3790 -1.6995 -1.3057
 6406TIP3    H240634   2.199   3.655   1.707  0.1880  0.8404  0.4646
 6407TIP3   OH240635   2.241   1.079  12.669 -0.1752  0.5097  0.2243
 6407TIP3    H140636   2.235   1.054  12.762  0.1058  2.0470  0.6703
 6407TIP3    H240637   2.151   1.080  12.638 -0.1292 -2.0395 -0.0870
 6408TIP3   OH240638   5.697   4.652  12.152 -0.1129 -0.3950 -0.5589
 6408TIP3    H140639   5.771   4.599  12.182  0.3643  0.4502 -0.2474
 6408TIP3    H240640   5.730   4.742  12.151 -1.0967 -0.0300 -0.5445
 6409TIP3   OH240641   4.546   0.225   0.293  0.8050 -0.3220  0.0673
 6409TIP3    H140642   4.619   0.260   0.344  0.5212 -0.9249  0.9041
 6409TIP3    H240643   4.473   0.221   0.355  0.1884 -0.1755 -0.6376
 6410TIP3   OH240644   3.578   5.800  16.651  0.0778  0.5245  0.1461
 6410TIP3    H140645   3.626   5.833  16.726  0.4432 -0.8697  0.5406
 6410TIP3    H240646   3.620   5.716  16.631 -1.5389 -0.2341 -0.1292
 6411TIP3   OH240647   4.772   6.410  15.722  0.3732  0.5363  0.4960
 6411TIP3    H140648   4.808   6.418  15.810  0.7237 -0.6250  0.4699
 6411TIP3    H240649   4.694   6.466  15.722  1.0039  1.4205  1.1886
 6412TIP3   OH240650   1.942   0.326   5.565  0.3064  0.2458 -0.5128
 6412TIP3    H140651   1.866   0.310   5.508 -0.8167 -2.3754  1.6032
 6412TIP3    H240652   2.014   0.279   5.522 -0.5478 -1.7833  0.1974
 6413TIP3   OH240653   1.021   2.195  16.657  0.4704  0.0338 -0.3985
 6413TIP3    H140654   1.025   2.161  16.568  1.3012  0.2933 -0.4643
 6413TIP3    H240655   0.930   2.181  16.684 -0.1154  1.1341 -1.7575
 6414TIP3   OH240656   0.146   2.155   5.445 -0.3104  0.0622 -0.7177
 6414TIP3    H140657   0.224   2.191   5.404 -1.3244  2.0777 -0.9222
 6414TIP3    H240658   0.077   2.165   5.379 -1.4022  1.0506  0.5620
 6415TIP3   OH240659   4.389   1.005   4.725 -0.2427 -0.2278  0.1291
 6415TIP3    H140660   4.299   0.990   4.696 -0.3543 -0.0955  0.4034
 6415TIP3    H240661   4.439   1.019   4.644 -0.8313  1.6499  0.0660
 6416TIP3   OH240662   3.928   0.600   0.696  0.6436  0.0201 -0.0762
 6416TIP3    H140663   3.950   0.692   0.684  0.5575  0.1259  0.5511
 6416TIP3    H240664   3.861   0.600   0.765  2.1836 -0.6598  1.4625
 6417TIP3   OH240665   2.301   2.405   3.828  0.0182 -0.7130 -0.5468
 6417TIP3    H140666   2.217   2.408   3.875  0.8689  1.4485  0.9048
 6417TIP3    H240667   2.292   2.472   3.760  0.8931  0.1525  0.1867
 6418TIP3   OH240668   0.259   1.000  14.303 -0.4994  0.1520 -0.4718
 6418TIP3    H140669   0.327   0.934  14.317 -1.4131 -0.8715 -0.8402
 6418TIP3    H240670   0.308   1.080  14.282  0.5839 -0.5624 -0.7216
 6419TIP3   OH240671   1.305   3.349  13.668 -0.1268 -0.7568  0.7307
 6419TIP3    H140672   1.237   3.333  13.733 -0.6948 -2.3700 -0.2486
 6419TIP3    H240673   1.261   3.339  13.584  1.1441 -1.0147  0.0849
 6420TIP3   OH240674   0.114   4.673  17.184  0.2639 -0.2560  0.1653
 6420TIP3    H140675   0.201   4.648  17.155 -0.4037  0.5098 -2.6383
 6420TIP3    H240676   0.101   4.761  17.150 -2.0004 -0.7594 -0.4039
 6421TIP3   OH240677   2.215   2.740  16.892  0.1080 -0.0046  0.0147
 6421TIP3    H140678   2.239   2.647  16.887 -2.4829 -0.6943  0.0643
 6421TIP3    H240679   2.163   2.756  16.813  0.6045  1.4325 -0.0351
 6422TIP3   OH240680   0.022   6.028  11.590  0.2839 -0.5295  0.1928
 6422TIP3    H140681  -0.039   5.965  11.629  0.1125  0.1426  1.0364
 6422TIP3    H240682   0.096   6.031  11.651  0.5298 -0.3019 -0.1116
 6423TIP3   OH240683   0.032   5.262   1.757  0.1417 -0.1100 -0.1292
 6423TIP3    H140684  -0.046   5.308   1.727  0.0075  0.4225  1.0233
 6423TIP3    H240685   0.103   5.298   1.703 -0.0092  1.2497  0.5430
 6424TIP3   OH240686   6.555   3.893  14.594 -0.4005 -0.6268 -0.2569
 6424TIP3    H140687   6.472   3.927  14.561 -0.3825 -0.8299 -0.5159
 6424TIP3    H240688   6.619   3.915  14.526  0.1558  1.3326  0.8418
 6425TIP3   OH240689   6.108   5.391   4.138  0.0552  0.1597 -1.0907
 6425TIP3    H140690   6.203   5.402   4.147  0.0386  0.8779 -1.7811
 6425TIP3    H240691   6.077   5.475   4.105 -1.3508  1.2770  2.8394
 6426TIP3   OH240692   2.446   0.467  12.341  0.4202  0.7176 -0.5109
 6426TIP3    H140693   2.352   0.468  12.362  0.2982  0.2013 -1.0220
 6426TIP3    H240694   2.462   0.379  12.307  1.7035 -0.2293  2.3618
 6427TIP3   OH240695   4.469   1.778   4.846  0.4860  0.0900 -0.2512
 6427TIP3    H140696   4.385   1.798   4.887  1.4047  1.0883  1.2425
 6427TIP3    H240697   4.475   1.837   4.771  0.1598  0.5281  0.0677
 6428TIP3   OH240698   4.290   4.713   1.342  0.0396  0.1929  0.1659
 6428TIP3    H140699   4.365   4.745   1.293  1.2183 -1.3370  0.9102
 6428TIP3    H240700   4.216   4.726   1.284  1.2465 -0.5465 -1.5755
 6429TIP3   OH240701   4.338   1.156  10.834 -0.3934  0.2967  0.3721
 6429TIP3    H140702   4.371   1.246  10.838  3.7840 -1.1590  1.0096
 6429TIP3    H240703   4.329   1.129  10.925 -0.9050 -0.2045  0.1814
 6430TIP3   OH240704   4.482   4.591  11.502 -0.0539 -0.5268 -0.2113
 6430TIP3    H140705   4.415   4.632  11.446  0.8322  1.1475 -0.0725
 6430TIP3    H240706   4.432   4.530  11.556 -1.6186  1.2632  0.4395
 6431TIP3   OH240707   2.764   3.035   5.054 -0.5099  0.4264 -0.4472
 6431TIP3    H140708   2.813   3.048   5.135 -0.8778  1.3736 -0.3601
 6431TIP3    H240709   2.679   3.000   5.082 -0.1174 -0.6026 -0.5437
 6432TIP3   OH240710   2.279   4.337  11.021 -0.4934  0.4057 -0.0210
 6432TIP3    H140711   2.342   4.293  10.964  0.7381 -0.7801  2.2021
 6432TIP3    H240712   2.194   4.311  10.988  0.2161 -1.0650 -0.7095
 6433TIP3   OH240713   3.486   3.433  14.214 -0.1106  0.5633 -0.6693
 6433TIP3    H140714   3.424   3.455  14.144  1.2722  2.8074 -1.2447
 6433TIP3    H240715   3.512   3.343  14.195 -0.0562  1.0026 -2.8405
 6434TIP3   OH240716   5.250   2.462  12.130 -0.1960  0.2294  0.2751
 6434TIP3    H140717   5.236   2.529  12.063 -2.5115 -0.4914 -0.0249
 6434TIP3    H240718   5.315   2.403  12.093 -0.1789  0.8025 -0.6183
 6435TIP3   OH240719   6.534   0.831   2.962 -0.2650  0.1092  0.2263
 6435TIP3    H140720   6.456   0.882   2.985  0.8921  1.8097  0.5184
 6435TIP3    H240721   6.552   0.779   3.040 -0.1893  0.9235  0.7632
 6436TIP3   OH240722   3.712   0.323   1.733  0.2996 -0.2920 -0.5134
 6436TIP3    H140723   3.691   0.376   1.809 -0.2001 -0.7878 -0.2934
 6436TIP3    H240724   3.631   0.274   1.716  0.7394 -0.9484 -0.7313
 6437TIP3   OH240725   2.679   3.636   3.479  0.2953  0.1205 -0.6252
 6437TIP3    H140726   2.692   3.582   3.556 -0.4753  0.2417 -0.4021
 6437TIP3    H240727   2.640   3.577   3.414  2.1851 -0.3262 -1.3984
 6438TIP3   OH240728   4.067   1.770  14.030 -0.0773  0.5726 -0.3373
 6438TIP3    H140729   4.087   1.859  14.058 -1.5107  0.9098 -0.3512
 6438TIP3    H240730   4.036   1.726  14.110 -0.2277  0.3499 -0.5161
 6439TIP3   OH240731   2.110   6.156  12.635 -0.3750 -0.4492  0.0454
 6439TIP3    H140732   2.084   6.064  12.625 -2.5205  0.1910 -0.4937
 6439TIP3    H240733   2.184   6.153  12.696 -0.9755 -2.4652  0.7248
 6440TIP3   OH240734   4.931   4.630  11.445 -0.0941  0.3741  0.4957
 6440TIP3    H140735   4.965   4.697  11.504 -0.9684  0.8616  0.4501
 6440TIP3    H240736   4.916   4.675  11.363  1.6339 -0.4214 -0.2912
 6441TIP3   OH240737   5.181   3.214  10.981  0.2469  0.2461 -0.0748
 6441TIP3    H140738   5.261   3.263  11.002 -0.3444  1.5466 -0.8222
 6441TIP3    H240739   5.206   3.157  10.909  0.6900  0.1475  0.1547
 6442TIP3   OH240740   5.793   3.531   1.468  0.1949 -0.0930  0.1495
 6442TIP3    H140741   5.811   3.611   1.418  0.1928 -0.6581 -0.7736
 6442TIP3    H240742   5.800   3.557   1.559 -0.0864  1.0273 -0.1479
 6443TIP3   OH240743   6.440   5.372   0.562  0.3739  0.6358 -0.3407
 6443TIP3    H140744   6.390   5.424   0.499 -2.3751  0.6117  1.7378
 6443TIP3    H240745   6.439   5.283   0.527  0.9782  1.0679 -1.4723
 6444TIP3   OH240746   4.792   6.535  12.013 -0.4632  0.4458  0.0834
 6444TIP3    H140747   4.828   6.535  12.102 -2.0184  0.0418  0.7322
 6444TIP3    H240748   4.711   6.585  12.020  0.1913  1.7631 -1.4622
 6445TIP3   OH240749   2.155   1.490   2.312 -0.1118  0.9100  0.3893
 6445TIP3    H140750   2.121   1.422   2.254  1.8032  1.9866 -2.1133
 6445TIP3    H240751   2.135   1.572   2.268  3.8983  1.6553 -0.2739
 6446TIP3   OH240752   1.880   5.670   2.459 -0.0541  0.0936 -0.2360
 6446TIP3    H140753   1.800   5.640   2.503  2.0321 -3.7354  1.2659
 6446TIP3    H240754   1.895   5.757   2.495 -2.4919  0.0853  0.9447
 6447TIP3   OH240755   5.909   1.774  17.168 -0.2808  0.0510  0.0674
 6447TIP3    H140756   5.908   1.679  17.182 -3.8560  0.1567  0.9298
 6447TIP3    H240757   5.916   1.784  17.073  1.0596 -1.0327  0.0314
 6448TIP3   OH240758   2.938   0.616   0.555 -0.3500  0.0887 -0.2490
 6448TIP3    H140759   3.031   0.632   0.574  0.2728 -0.7135 -2.4441
 6448TIP3    H240760   2.931   0.521   0.548 -1.9315 -0.0671  2.5575
 6449TIP3   OH240761   0.296   3.719   4.141 -0.1943 -0.0231 -0.4512
 6449TIP3    H140762   0.256   3.696   4.225  0.4050 -0.3645 -0.2574
 6449TIP3    H240763   0.384   3.682   4.145 -0.3938 -0.6447 -1.4977
 6450TIP3   OH240764   2.212   1.745  17.121  0.1610 -0.1262  0.3916
 6450TIP3    H140765   2.224   1.839  17.109 -0.2573 -0.3453 -1.9305
 6450TIP3    H240766   2.121   1.737  17.150 -0.3500  0.0603 -1.1386
 6451TIP3   OH240767   6.192   0.935   4.033  0.2948  0.1346  0.0707
 6451TIP3    H140768   6.145   1.015   4.054 -1.6728 -1.1821  0.8765
 6451TIP3    H240769   6.143   0.866   4.079  2.9401 -1.3097  0.8147
 6452TIP3   OH240770   0.281   0.803  14.899  0.2553  0.1920  0.2864
 6452TIP3    H140771   0.294   0.724  14.847 -1.8003  1.2083 -1.8402
 6452TIP3    H240772   0.320   0.873  14.847  0.6882  0.8390  1.4504
 6453TIP3   OH240773   1.977   2.541   6.642 -0.8099 -0.3479  0.2007
 6453TIP3    H140774   1.918   2.501   6.578 -0.9220  0.9908 -0.5460
 6453TIP3    H240775   2.060   2.494   6.630 -1.0256 -0.5734 -0.4523
 6454TIP3   OH240776   1.264   5.265   1.886  0.1830  0.1109  0.5047
 6454TIP3    H140777   1.277   5.173   1.910 -2.9607 -0.6402 -0.5601
 6454TIP3    H240778   1.203   5.299   1.952  0.0085  0.9971 -0.1060
 6455TIP3   OH240779   1.949   3.544   5.375  0.4406  0.2673 -0.1627
 6455TIP3    H140780   1.890   3.508   5.441 -0.2286  1.5755 -0.0210
 6455TIP3    H240781   1.902   3.620   5.340  1.7918  0.9881 -0.4454
 6456TIP3   OH240782   4.337   4.628  12.269 -0.1268  0.0954 -0.4128
 6456TIP3    H140783   4.295   4.587  12.194 -0.1649 -0.5399 -0.0478
 6456TIP3    H240784   4.409   4.679  12.231 -1.1349  1.0932 -1.0232
 6457TIP3   OH240785   1.285   4.976   1.996 -0.6271  0.2505  0.4773
 6457TIP3    H140786   1.256   4.905   1.938 -1.3868  1.0838 -0.1683
 6457TIP3    H240787   1.239   4.960   2.078 -1.9605  0.8474 -0.1440
 6458TIP3   OH240788   5.229   3.357  14.203  0.3698 -0.2543 -0.4374
 6458TIP3    H140789   5.199   3.436  14.248  0.7639 -0.6202  0.5018
 6458TIP3    H240790   5.152   3.301  14.197 -0.7597  1.5828 -4.2263
 6459TIP3   OH240791   2.670   4.839  14.072 -0.3979 -0.4565  0.0585
 6459TIP3    H140792   2.762   4.845  14.096 -0.0922  1.5660 -1.4754
 6459TIP3    H240793   2.626   4.901  14.131 -0.2214  1.3883 -1.6925
 6460TIP3   OH240794   1.127   2.266  14.720  0.3939  0.0228  0.1185
 6460TIP3    H140795   1.078   2.186  14.740 -1.7437  1.3698  0.4156
 6460TIP3    H240796   1.102   2.287  14.630  0.6360  0.5770  0.1803
 6461TIP3   OH240797   0.277   6.135  17.118 -0.2463  0.2085  0.8055
 6461TIP3    H140798   0.191   6.095  17.104 -0.4608  0.9582 -0.0412
 6461TIP3    H240799   0.330   6.104  17.044  0.3200 -0.5384  1.5159
 6462TIP3   OH240800   6.276   4.847   3.583  0.0823 -0.2848 -0.1870
 6462TIP3    H140801   6.299   4.795   3.660 -2.0382  0.6588  1.1207
 6462TIP3    H240802   6.328   4.926   3.591 -0.5801  0.0776  0.6167
 6463TIP3   OH240803   6.302   1.476   2.629  0.2553  0.4507 -0.5579
 6463TIP3    H140804   6.316   1.569   2.646  1.6916  0.2815 -0.7984
 6463TIP3    H240805   6.340   1.461   2.542 -1.4143 -0.0286 -1.2310
 6464TIP3   OH240806   5.862   5.948   1.864  0.1123 -0.1499 -0.8505
 6464TIP3    H140807   5.902   5.975   1.782  1.6989 -1.7600 -0.6100
 6464TIP3    H240808   5.776   5.915   1.839 -0.1090  0.9776 -1.6414
 6465TIP3   OH240809   5.569   4.437   3.844  0.0594 -0.1718 -0.0484
 6465TIP3    H140810   5.590   4.439   3.750 -0.0461  1.8268 -0.0344
 6465TIP3    H240811   5.477   4.410   3.847 -0.0689  0.1986 -0.5460
 6466TIP3   OH240812   2.670   1.548  10.738  0.1964 -0.1677  0.3927
 6466TIP3    H140813   2.631   1.588  10.661  0.4006  0.5252  0.6490
 6466TIP3    H240814   2.607   1.480  10.763 -0.6170  0.6190  0.5190
 6467TIP3   OH240815   3.308   5.440   3.802 -0.6150  0.1213 -0.1178
 6467TIP3    H140816   3.275   5.473   3.886  1.6659  0.8913  0.5081
 6467TIP3    H240817   3.327   5.519   3.752 -1.0936 -0.3375 -1.0225
 6468TIP3   OH240818   1.056   0.750   5.120 -0.0840 -0.1598 -0.2931
 6468TIP3    H140819   1.068   0.717   5.209  0.3786 -0.9273 -0.6305
 6468TIP3    H240820   1.132   0.715   5.072 -0.7549 -0.4157 -1.1701
 6469TIP3   OH240821   6.628   6.534   5.419 -0.6230 -0.3457  0.6987
 6469TIP3    H140822   6.635   6.556   5.326 -1.7973 -1.9527  0.2289
 6469TIP3    H240823   6.660   6.613   5.464  0.0453  0.4077 -1.0514
 6470TIP3   OH240824   2.340   3.631   4.401 -0.1629 -0.8668 -0.0759
 6470TIP3    H140825   2.355   3.670   4.316 -2.2294 -0.3890 -0.2537
 6470TIP3    H240826   2.339   3.705   4.462 -1.5968 -0.8667 -0.0707
 6471TIP3   OH240827   5.117   0.312   2.453 -0.0305  1.0217 -0.5280
 6471TIP3    H140828   5.212   0.303   2.446 -0.1365 -0.2121 -0.5350
 6471TIP3    H240829   5.083   0.281   2.369 -0.6046 -1.8641  0.7073
 6472TIP3   OH240830   3.734   3.267  17.030 -0.0629  0.3961  0.1077
 6472TIP3    H140831   3.706   3.359  17.028 -0.5130  0.2779  0.9517
 6472TIP3    H240832   3.732   3.240  16.938  0.0460  1.2224 -0.1449
 6473TIP3   OH240833   3.239   3.394  15.667  0.0131  0.1932  0.3395
 6473TIP3    H140834   3.178   3.356  15.731 -1.1262  0.3923 -0.6112
 6473TIP3    H240835   3.256   3.483  15.700 -0.3367  0.1937  0.5207
 6474TIP3   OH240836   3.067   6.687   4.564  0.1973 -0.1009  0.0383
 6474TIP3    H140837   3.004   6.736   4.617  0.0128 -0.0002 -0.2802
 6474TIP3    H240838   3.131   6.753   4.536  0.5719 -0.2411  0.5495
 6475TIP3   OH240839   4.134   2.307   2.134  0.2983  0.0258 -0.4926
 6475TIP3    H140840   4.219   2.267   2.152  0.6655  1.2541  0.5445
 6475TIP3    H240841   4.104   2.340   2.219 -0.4631  1.0676 -1.1547
 6476TIP3   OH240842   0.037   6.036   1.811  0.5869 -0.7648  0.1177
 6476TIP3    H140843   0.089   5.969   1.855 -1.3604 -2.3662  0.0338
 6476TIP3    H240844  -0.052   6.000   1.809  0.2119  0.1791 -3.2195
 6477TIP3   OH240845   2.427   6.133   2.511 -0.2061  0.7733 -0.2117
 6477TIP3    H140846   2.440   6.103   2.421  0.0108  0.9154 -0.2295
 6477TIP3    H240847   2.387   6.059   2.556  1.7697 -0.1234  0.1384
 6478TIP3   OH240848   0.268   5.159   2.263  0.7221  0.0980  0.1474
 6478TIP3    H140849   0.194   5.212   2.233 -0.4352 -2.3667 -1.4260
 6478TIP3    H240850   0.343   5.194   2.214 -0.1827 -0.2326 -1.5179
 6479TIP3   OH240851   4.601   1.410  15.047  0.5145 -0.0092  0.4421
 6479TIP3    H140852   4.506   1.401  15.047  0.5146 -0.0465  0.0604
 6479TIP3    H240853   4.627   1.396  15.138  0.1111  0.5131  0.6335
 6480TIP3   OH240854   1.598   4.609   0.753 -0.3333 -0.4599 -0.1966
 6480TIP3    H140855   1.549   4.684   0.719 -1.0865 -0.8152  0.1103
 6480TIP3    H240856   1.688   4.641   0.760 -0.9919  1.0451  1.8050
 6481TIP3   OH240857   6.662   5.097   2.649  0.4886 -0.6454  0.2425
 6481TIP3    H140858   6.615   5.013   2.646  0.7050 -0.7599  0.0826
 6481TIP3    H240859   6.608   5.156   2.596 -0.7550 -0.1293  2.0250
 6482TIP3   OH240860   4.876   3.113   3.020  0.4016 -0.1005 -0.3927
 6482TIP3    H140861   4.807   3.161   3.067  0.6766  0.0069 -0.1042
 6482TIP3    H240862   4.893   3.167   2.942  0.1144 -0.1588 -0.4970
 6483TIP3   OH240863   3.582   3.347   2.325 -0.0618  0.1744  0.2875
 6483TIP3    H140864   3.616   3.334   2.236  0.1001 -2.1093  0.6652
 6483TIP3    H240865   3.572   3.442   2.333  2.0551  0.5780 -1.3825
 6484TIP3   OH240866   4.465   4.904   4.807 -0.0744  0.3664 -0.0651
 6484TIP3    H140867   4.526   4.918   4.880 -0.1294  0.0700  0.0375
 6484TIP3    H240868   4.393   4.964   4.825  0.2284  0.7838 -0.2354
 6485TIP3   OH240869   0.711   6.361   1.843  0.5656  0.5785 -0.2317
 6485TIP3    H140870   0.619   6.334   1.849  0.2955  1.1190 -1.6766
 6485TIP3    H240871   0.757   6.302   1.902 -0.6324 -0.0965  0.0531
 6486TIP3   OH240872   5.505   5.805  15.969 -0.2910 -0.3901  0.3592
 6486TIP3    H140873   5.551   5.839  16.046 -1.9487  2.1340  0.2692
 6486TIP3    H240874   5.431   5.756  16.005 -0.5354  0.0028  0.3896
 6487TIP3   OH240875   1.129   5.347  15.596  0.0522 -0.5760 -0.4040
 6487TIP3    H140876   1.225   5.340  15.591  0.0584 -0.5285 -0.3500
 6487TIP3    H240877   1.106   5.306  15.679  0.3421  2.6164  1.3083
 6488TIP3   OH240878   3.185   1.383  14.176  0.1003 -0.8289 -0.2259
 6488TIP3    H140879   3.273   1.400  14.142 -0.1778  0.6020 -0.2720
 6488TIP3    H240880   3.127   1.392  14.100 -0.3690  0.9858  0.3293
 6489TIP3   OH240881   6.382   4.384   5.819  0.0984 -0.4979  0.0509
 6489TIP3    H140882   6.350   4.296   5.797  0.2843 -1.1742  2.4027
 6489TIP3    H240883   6.337   4.442   5.757 -1.2005 -2.0737 -0.5080
 6490TIP3   OH240884   4.472   4.587  10.777 -0.3770  0.3945 -0.0409
 6490TIP3    H140885   4.403   4.582  10.843  1.1367 -1.5075  1.4625
 6490TIP3    H240886   4.525   4.662  10.804  1.0169 -1.1721  1.7702
 6491TIP3   OH240887   5.354   4.855   1.853  0.0050  0.2391 -0.0673
 6491TIP3    H140888   5.341   4.772   1.898 -0.1989  0.1799 -0.2339
 6491TIP3    H240889   5.266   4.891   1.843  0.0607  0.3094 -0.3124
 6492TIP3   OH240890   0.933   3.697   2.555 -0.1786 -0.1155 -0.0781
 6492TIP3    H140891   0.957   3.605   2.566 -0.4277 -0.2114 -0.3261
 6492TIP3    H240892   1.009   3.746   2.586 -0.5608 -0.3906  1.3093
 6493TIP3   OH240893   3.616   1.182  16.028  0.3262 -0.2791  0.3049
 6493TIP3    H140894   3.687   1.237  16.062  0.9964 -0.5892 -0.5537
 6493TIP3    H240895   3.584   1.229  15.951  0.1981 -0.5743  0.1797
 6494TIP3   OH240896   3.525   5.263   5.363 -0.2801  0.5269  0.4474
 6494TIP3    H140897   3.504   5.229   5.276  1.6239  1.8694 -0.5714
 6494TIP3    H240898   3.571   5.191   5.407 -0.6318  0.0858  0.0957
 6495TIP3   OH240899   5.162   2.038  12.983  0.0836  0.2296  0.5845
 6495TIP3    H140900   5.192   2.096  12.913 -1.6885 -0.5379 -0.8585
 6495TIP3    H240901   5.069   2.060  12.994  0.3334  0.3422  2.7184
 6496TIP3   OH240902   0.646   1.856  16.386 -0.0339 -0.1992  0.7355
 6496TIP3    H140903   0.701   1.934  16.376 -0.1189 -0.3540 -1.0949
 6496TIP3    H240904   0.709   1.784  16.392  0.0185 -0.1408  0.8864
 6497TIP3   OH240905   1.085   4.536   3.089  0.2504 -0.3856 -0.0643
 6497TIP3    H140906   1.177   4.537   3.062  0.4522  0.4129  0.6375
 6497TIP3    H240907   1.043   4.602   3.032  0.2769 -0.1682  0.1652
 6498TIP3   OH240908   5.242   0.266  15.787 -0.5701  0.3534 -0.3206
 6498TIP3    H140909   5.315   0.250  15.847 -1.1906 -0.0644  0.3257
 6498TIP3    H240910   5.284   0.277  15.702  0.2318 -0.1277 -0.0009
 6499TIP3   OH240911   0.974   5.392   1.088 -0.0800 -1.0291 -0.3369
 6499TIP3    H140912   0.960   5.457   1.157 -1.6112  0.0643 -1.6147
 6499TIP3    H240913   0.901   5.407   1.027  0.7149 -2.5845 -1.6971
 6500TIP3   OH240914   5.897   5.127   2.327  0.4576  0.8040 -0.0031
 6500TIP3    H140915   5.855   5.162   2.248 -0.4637  0.8839  0.5176
 6500TIP3    H240916   5.836   5.061   2.359  1.0601  0.4296  0.3741
 6501TIP3   OH240917   6.487   1.981  16.429 -0.0707 -0.5139  0.3779
 6501TIP3    H140918   6.544   1.997  16.505 -1.5998  0.2187  1.3990
 6501TIP3    H240919   6.480   1.886  16.424  0.9241 -0.6028  0.4682
 6502TIP3   OH240920   1.472   0.308  14.616  0.2277  0.1889  0.2033
 6502TIP3    H140921   1.564   0.300  14.592  0.6289 -0.2959  1.7960
 6502TIP3    H240922   1.474   0.330  14.709 -1.2382  2.5457 -0.3055
 6503TIP3   OH240923   6.257   5.140   0.209  0.0075  0.2840 -0.4151
 6503TIP3    H140924   6.218   5.053   0.212  0.5871 -0.0626 -2.3008
 6503TIP3    H240925   6.206   5.187   0.142  0.8431  0.8118 -0.6853
 6504TIP3   OH240926   4.168   6.383  11.543  0.5672 -0.0376  0.3170
 6504TIP3    H140927   4.230   6.437  11.591  0.0956 -0.7241  1.7146
 6504TIP3    H240928   4.089   6.382  11.597  1.0296 -3.2972  1.0947
 6505TIP3   OH240929   0.460   4.323   4.227  0.0245  0.2422  0.2580
 6505TIP3    H140930   0.386   4.330   4.166 -0.4928 -2.1812  0.5713
 6505TIP3    H240931   0.526   4.274   4.179 -0.0369 -0.8919  1.3213
 6506TIP3   OH240932   6.095   1.576  15.383  0.1883  0.1365 -0.7707
 6506TIP3    H140933   6.082   1.628  15.462  2.0368 -1.3880  0.5787
 6506TIP3    H240934   6.016   1.522  15.376 -0.8641  1.6934 -1.0964
 6507TIP3   OH240935   0.677   5.077  11.410 -0.2202 -0.1546  0.4856
 6507TIP3    H140936   0.628   5.156  11.432  1.2992  0.6894  0.8603
 6507TIP3    H240937   0.690   5.032  11.493  2.5356  1.3176  0.9039
 6508TIP3   OH240938   6.057   1.630   5.347 -0.2723 -0.2724 -0.1175
 6508TIP3    H140939   5.972   1.665   5.319 -1.2007 -3.0202 -0.9483
 6508TIP3    H240940   6.045   1.610   5.440 -0.6307 -0.8170 -0.2724
 6509TIP3   OH240941   2.026   1.026  11.304  0.3203 -0.3632  0.4391
 6509TIP3    H140942   2.029   1.078  11.224 -1.2223 -0.2275  0.4403
 6509TIP3    H240943   2.116   1.024  11.336  1.2152 -1.5168 -1.9922
 6510TIP3   OH240944   3.676   2.819   3.909 -0.4047  0.7369 -0.6110
 6510TIP3    H140945   3.678   2.888   3.976 -0.9008 -0.6494  0.8649
 6510TIP3    H240946   3.742   2.846   3.845  0.2202  1.9984  0.5301
 6511TIP3   OH240947   2.465   2.877   5.384  1.2781 -0.2556 -0.0945
 6511TIP3    H140948   2.557   2.884   5.409  0.7374 -0.3394  2.0700
 6511TIP3    H240949   2.417   2.899   5.464 -0.6070  0.9950 -1.5256
 6512TIP3   OH240950   5.470   2.947  12.336  0.0372  0.0268  0.0161
 6512TIP3    H140951   5.437   3.006  12.404  0.2514 -0.8359  0.8708
 6512TIP3    H240952   5.546   2.904  12.376 -0.8154 -1.6897 -0.1942
 6513TIP3   OH240953   3.461   1.169  16.297  0.2359 -0.3645 -0.0258
 6513TIP3    H140954   3.444   1.113  16.221  1.6074 -0.9569  0.0705
 6513TIP3    H240955   3.457   1.258  16.263  0.7975 -0.6254 -0.8007
 6514TIP3   OH240956   4.891   2.038  14.292 -0.1051 -0.2107  0.2773
 6514TIP3    H140957   4.894   1.965  14.354 -0.6861 -0.7321 -0.3143
 6514TIP3    H240958   4.943   2.106  14.335 -0.0389 -0.7589  1.0957
 6515TIP3   OH240959   5.837   0.951  13.228 -0.7607 -0.2092  0.5425
 6515TIP3    H140960   5.791   1.025  13.269  1.3090  1.1172  0.5426
 6515TIP3    H240961   5.893   0.992  13.162  0.0067 -1.8481  0.1524
 6516TIP3   OH240962   5.340   6.006  15.118  0.3913 -0.1318 -1.1752
 6516TIP3    H140963   5.426   5.979  15.086  1.5607  1.1312  0.7740
 6516TIP3    H240964   5.303   5.926  15.157  2.7259  0.3029  2.2229
 6517TIP3   OH240965   2.253   2.863   3.344 -0.0209 -0.4939 -0.3789
 6517TIP3    H140966   2.277   2.916   3.267  1.2698 -0.3459  0.1038
 6517TIP3    H240967   2.161   2.881   3.358  0.1365  0.7846 -0.8896
 6518TIP3   OH240968   0.038   3.076   4.515  0.2749 -0.2397  0.3528
 6518TIP3    H140969  -0.029   3.044   4.455  1.3433 -1.3337 -0.2844
 6518TIP3    H240970   0.077   2.997   4.553  0.0774  0.4204  1.9825
 6519TIP3   OH240971   6.447   2.205   4.916  0.4149 -0.1654 -0.1981
 6519TIP3    H140972   6.437   2.111   4.930  0.0316  0.0977  1.3922
 6519TIP3    H240973   6.454   2.214   4.821  0.1820 -1.7670 -0.3884
 6520TIP3   OH240974   6.714   6.570  12.089  0.2550 -0.2640  0.0539
 6520TIP3    H140975   6.635   6.581  12.141 -1.0508 -0.2763 -1.8923
 6520TIP3    H240976   6.739   6.659  12.064 -0.0081 -0.3794 -0.6115
 6521TIP3   OH240977   3.955   5.115  13.433  0.1166 -0.4776  0.5633
 6521TIP3    H140978   3.941   5.129  13.527  0.6975 -1.0481  0.7363
 6521TIP3    H240979   4.030   5.056  13.428  0.5068  0.0741 -0.2811
 6522TIP3   OH240980   3.121   6.673  14.931 -0.1318 -0.6585 -0.0057
 6522TIP3    H140981   3.058   6.690  14.861 -1.3154  2.0754  1.6452
 6522TIP3    H240982   3.125   6.755  14.980  3.2449 -1.4283  1.1252
 6523TIP3   OH240983   5.851   6.086   4.166 -0.3465  0.3701  0.1656
 6523TIP3    H140984   5.876   6.177   4.155  2.1349 -0.3839 -0.7372
 6523TIP3    H240985   5.852   6.050   4.077 -0.5706 -0.7251  0.5960
 6524TIP3   OH240986   6.577   2.373  16.561  1.1629  0.1514  0.1771
 6524TIP3    H140987   6.629   2.319  16.621 -2.0636 -0.0727  2.9052
 6524TIP3    H240988   6.552   2.312  16.491  1.0950 -0.8143  1.0239
 6525TIP3   OH240989   1.889   3.876   2.348  0.0543 -0.4525 -0.4169
 6525TIP3    H140990   1.904   3.913   2.261 -3.4813 -1.1948 -1.4091
 6525TIP3    H240991   1.875   3.952   2.404 -2.5340 -0.0818 -1.5168
 6526TIP3   OH240992   0.819   6.257  11.566 -0.0760  0.2746 -0.4636
 6526TIP3    H140993   0.763   6.269  11.489  0.9554 -2.2926 -1.6477
 6526TIP3    H240994   0.851   6.168  11.559  2.3036  0.9298  1.4728
 6527TIP3   OH240995   6.189   3.640  12.061 -0.1694  0.3356  0.0713
 6527TIP3    H140996   6.153   3.607  11.978  0.5710  0.4364 -0.2986
 6527TIP3    H240997   6.272   3.594  12.071 -0.8920 -0.6711  1.4516
 6528TIP3   OH240998   0.776   4.731  16.764  0.2116  0.1542 -0.6254
 6528TIP3    H140999   0.841   4.747  16.695 -0.9483  2.3968 -1.2156
 6528TIP3    H241000   0.788   4.803  16.825  1.2160 -1.7947  1.5916
 6529TIP3   OH241001   1.545   5.761  12.928 -0.4714 -0.4978 -0.5497
 6529TIP3    H141002   1.538   5.675  12.969 -0.4450 -0.5251 -0.6046
 6529TIP3    H241003   1.478   5.760  12.859 -0.3892 -0.5188 -0.6299
 6530TIP3   OH241004   3.501   0.976   0.581  0.4578  0.0578 -0.0985
 6530TIP3    H141005   3.587   1.008   0.556  0.9671  0.4461  2.0171
 6530TIP3    H241006   3.518   0.911   0.649 -0.9133  0.6048  0.8079
 6531TIP3   OH241007   0.011   0.194   4.109  0.1391 -0.4382 -0.4962
 6531TIP3    H141008   0.012   0.099   4.101  2.1696 -0.4244 -0.8651
 6531TIP3    H241009  -0.081   0.217   4.119 -0.5018 -2.3335 -1.7205
 6532TIP3   OH241010   0.232   2.295  11.786  0.1432 -0.2493 -0.0496
 6532TIP3    H141011   0.232   2.278  11.880  1.6325 -1.2022 -0.1957
 6532TIP3    H241012   0.199   2.384  11.777  0.0488 -0.1311  1.3697
 6533TIP3   OH241013   0.413   5.888  15.378 -0.5820  0.0107  0.3053
 6533TIP3    H141014   0.396   5.815  15.437 -1.1295 -1.5952 -1.7995
 6533TIP3    H241015   0.377   5.964  15.423 -1.6747 -1.3001  1.6885
 6534TIP3   OH241016   0.402   4.730  11.903  0.3836  0.0883  0.0506
 6534TIP3    H141017   0.475   4.670  11.885  0.1122  0.2208 -1.5597
 6534TIP3    H241018   0.379   4.713  11.994 -0.9040 -3.5862 -0.8894
 6535TIP3   OH241019   3.714   5.363   6.744  0.4905 -0.0980 -0.2300
 6535TIP3    H141020   3.644   5.415   6.782  0.7564  0.0902 -0.0011
 6535TIP3    H241021   3.725   5.398   6.655  1.9778  1.5186  0.5685
 6536TIP3   OH241022   5.020   5.716   2.578 -0.1808 -0.1997 -0.0008
 6536TIP3    H141023   4.957   5.704   2.649  0.9579  0.0207  1.0764
 6536TIP3    H241024   5.096   5.665   2.606  0.3669  0.0950 -0.9503
 6537TIP3   OH241025   1.326   6.523  16.958 -0.3200 -0.3802  0.5133
 6537TIP3    H141026   1.405   6.497  17.005  0.0274 -1.2195 -0.5010
 6537TIP3    H241027   1.351   6.518  16.866 -1.5363 -0.5900  0.1906
 6538TIP3   OH241028   4.173   4.161   1.885  0.5806  0.1451  0.0787
 6538TIP3    H141029   4.163   4.113   1.967 -0.4059  2.5871  1.4530
 6538TIP3    H241030   4.087   4.201   1.871  1.6432  2.3380 -0.4471
 6539TIP3   OH241031   1.858   4.080   4.898  0.7909  0.3300 -0.1297
 6539TIP3    H141032   1.787   4.096   4.960  0.5053  1.7284 -0.7942
 6539TIP3    H241033   1.827   4.007   4.844  1.1727 -1.1022  1.5399
 6540TIP3   OH241034   1.939   5.911  14.759 -0.0048  0.5593  0.4912
 6540TIP3    H141035   2.016   5.954  14.723  0.5176 -2.2884 -1.9987
 6540TIP3    H241036   1.865   5.953  14.716  0.3798  0.6554 -0.0782
 6541TIP3   OH241037   3.219   0.538  13.549  0.3856  0.4202 -0.1622
 6541TIP3    H141038   3.220   0.603  13.479 -0.1637 -1.0845 -1.5967
 6541TIP3    H241039   3.260   0.582  13.623  2.4533  1.5253 -1.9045
 6542TIP3   OH241040   6.597   0.799   5.751 -0.5684 -0.0854 -0.4012
 6542TIP3    H141041   6.502   0.808   5.755 -0.7184 -0.7171 -2.0304
 6542TIP3    H241042   6.612   0.704   5.752  0.1372  0.0177  1.1909
 6543TIP3   OH241043   5.529   3.661  11.203  0.2061 -0.3364  0.3677
 6543TIP3    H141044   5.539   3.736  11.261  1.5146 -0.1694 -0.0590
 6543TIP3    H241045   5.446   3.676  11.159 -1.2774 -0.9455  2.8698
 6544TIP3   OH241046   5.552   6.333  17.066 -0.1510  0.2926  0.1027
 6544TIP3    H141047   5.494   6.256  17.066  0.6898 -0.3634  1.4565
 6544TIP3    H241048   5.640   6.297  17.054  0.4976  0.7898  2.9672
 6545TIP3   OH241049   0.253   2.874  15.496  0.2603  0.5704  0.3403
 6545TIP3    H141050   0.255   2.780  15.512  0.8319  0.5247 -0.0056
 6545TIP3    H241051   0.324   2.909  15.550 -0.5032  0.9143  1.1502
 6546TIP3   OH241052   1.258   1.178  16.857 -0.2586 -0.2855  0.1928
 6546TIP3    H141053   1.183   1.161  16.914 -1.2576  0.6698 -0.8008
 6546TIP3    H241054   1.225   1.161  16.769  0.4219  1.0333 -0.3262
 6547TIP3   OH241055   1.074   3.846   4.071 -0.1375 -0.6294  0.2524
 6547TIP3    H141056   0.983   3.828   4.094 -0.0640 -0.4072  0.7327
 6547TIP3    H241057   1.113   3.760   4.055 -1.0094 -0.6058 -2.2232
 6548TIP3   OH241058   3.062   5.889  14.883 -0.0260 -0.7043 -0.4369
 6548TIP3    H141059   3.128   5.909  14.950 -1.1810 -0.9061  0.7769
 6548TIP3    H241060   3.091   5.938  14.806  1.6599 -0.9562  0.0098
 6549TIP3   OH241061   4.278   2.011   0.082  0.0706 -0.0734 -0.1820
 6549TIP3    H141062   4.354   2.070   0.077  0.7908 -0.9700  0.0728
 6549TIP3    H241063   4.286   1.969   0.167 -0.8532  0.0074 -0.0581
 6550TIP3   OH241064   3.211   1.734   1.551 -0.6110 -0.0395 -0.2000
 6550TIP3    H141065   3.279   1.756   1.487 -0.9434  0.3494 -0.4184
 6550TIP3    H241066   3.192   1.641   1.536  0.6223 -0.4372  0.5622
 6551TIP3   OH241067   1.632   0.364  12.363  0.4870  0.4088  0.5231
 6551TIP3    H141068   1.626   0.280  12.408  1.8365  0.6001  1.0898
 6551TIP3    H241069   1.543   0.399  12.365 -0.4282 -1.7186 -1.1592
 6552TIP3   OH241070   1.748   1.412  12.152  0.5943 -0.1112 -0.1262
 6552TIP3    H141071   1.830   1.462  12.154 -1.2876  3.0704  0.4050
 6552TIP3    H241072   1.705   1.440  12.071  0.1457 -1.9919 -0.5554
 6553TIP3   OH241073   6.397   4.002  12.517 -0.1736 -0.4130  0.1646
 6553TIP3    H141074   6.349   3.958  12.587  1.0539 -1.0919  0.5863
 6553TIP3    H241075   6.482   4.023  12.555  0.0513  0.3289 -0.7340
 6554TIP3   OH241076   6.671   5.867  14.419  0.4963  0.0956  0.6889
 6554TIP3    H141077   6.763   5.853  14.397 -0.0152 -0.2938 -1.2598
 6554TIP3    H241078   6.632   5.905  14.340 -1.2688 -0.8248  1.0824
 6555TIP3   OH241079   0.767   2.870   3.555 -1.3062 -0.1689 -0.1072
 6555TIP3    H141080   0.812   2.824   3.484 -0.9178  2.5208 -1.6350
 6555TIP3    H241081   0.676   2.874   3.526 -1.2760  0.3128 -0.1392
 6556TIP3   OH241082   6.764   3.842   1.403  0.3508  0.1608  0.2240
 6556TIP3    H141083   6.839   3.840   1.344  1.3615  0.5989  1.4628
 6556TIP3    H241084   6.741   3.750   1.415 -0.6270  0.1112 -1.7626
 6557TIP3   OH241085   2.921   6.621   3.815 -0.2583 -0.2262 -0.1060
 6557TIP3    H141086   2.830   6.600   3.792 -0.6331 -0.4152  1.4580
 6557TIP3    H241087   2.914   6.663   3.900  1.0134  1.0421 -0.6194
 6558TIP3   OH241088   4.713   4.536  11.103 -0.0322 -0.2018  0.2349
 6558TIP3    H141089   4.762   4.618  11.115 -0.5779  0.2867 -0.7717
 6558TIP3    H241090   4.740   4.505  11.017 -0.8722 -0.3460  0.0199
 6559TIP3   OH241091   3.525   3.571   6.346  0.0383  0.3026  0.2171
 6559TIP3    H141092   3.440   3.598   6.312 -0.4688 -2.8162 -1.1563
 6559TIP3    H241093   3.505   3.516   6.421  0.9005  0.6600  0.7185
 6560TIP3   OH241094   2.456   5.697  11.405 -0.3946 -0.4482  0.0556
 6560TIP3    H141095   2.494   5.757  11.342  2.0512  1.7018  3.3810
 6560TIP3    H241096   2.378   5.743  11.438 -0.5031 -0.6412  0.0687
 6561TIP3   OH241097   2.086   6.314  13.825  0.0839  0.0349 -0.2051
 6561TIP3    H141098   2.053   6.404  13.823 -0.5000 -0.1842 -0.7657
 6561TIP3    H241099   2.142   6.308  13.747  0.9894  0.2335  0.4251
 6562TIP3   OH241100   2.317   0.359  11.980 -0.4375  0.1861 -0.3659
 6562TIP3    H141101   2.250   0.342  12.046  1.4312 -2.2054  1.0053
 6562TIP3    H241102   2.341   0.451  11.994 -1.0460  0.1086  1.3920
 6563TIP3   OH241103   2.222   6.145   0.341  0.4163 -0.7186  0.0188
 6563TIP3    H141104   2.200   6.189   0.259 -0.8865 -0.3658  0.5426
 6563TIP3    H241105   2.191   6.055   0.329 -1.0856 -0.3055  0.6338
 6564TIP3   OH241106   0.896   2.866  14.691  0.3617 -0.8940  0.7151
 6564TIP3    H141107   0.864   2.924  14.622 -1.3101 -1.5373  0.9203
 6564TIP3    H241108   0.875   2.778  14.660  1.5998 -1.3206  1.0482
 6565TIP3   OH241109   4.964   0.039  12.913  0.0718  0.2184  0.4636
 6565TIP3    H141110   5.004   0.078  12.835 -0.2838 -0.0433  0.1460
 6565TIP3    H241111   4.892   0.099  12.935  0.3022  0.4020  0.7129
 6566TIP3   OH241112   1.987   4.982  16.101 -0.1300  0.2437 -0.1493
 6566TIP3    H141113   1.973   5.076  16.112 -1.2732 -0.0517  1.1025
 6566TIP3    H241114   2.070   4.965  16.146  0.2344  0.7004 -0.6456
 6567TIP3   OH241115   3.193   2.339   0.630  0.0863 -0.1510  0.7037
 6567TIP3    H141116   3.241   2.292   0.561  0.4440 -1.0301  1.5469
 6567TIP3    H241117   3.230   2.427   0.628 -0.9543  0.2692 -1.2421
 6568TIP3   OH241118   5.996   5.057  15.871 -0.5879 -0.3913 -0.3192
 6568TIP3    H141119   5.933   5.061  15.799 -1.0002 -0.0383  0.0644
 6568TIP3    H241120   5.954   5.103  15.943  0.3382  0.3292 -0.2339
 6569TIP3   OH241121   0.654   5.453   1.996  0.0496  0.3314  0.2616
 6569TIP3    H141122   0.596   5.488   1.928 -0.1626  1.0764  0.8165
 6569TIP3    H241123   0.684   5.369   1.961 -1.1025  0.0881 -0.1820
 6570TIP3   OH241124   0.386   4.440  11.419  0.0077  0.0489  0.1795
 6570TIP3    H141125   0.307   4.386  11.413  0.7080 -1.2353  1.9668
 6570TIP3    H241126   0.442   4.410  11.347  0.7117 -2.2347  1.5916
 6571TIP3   OH241127   6.378   0.315   6.184 -0.3106  0.4588 -0.2711
 6571TIP3    H141128   6.445   0.382   6.168 -0.4004  0.2165 -1.6863
 6571TIP3    H241129   6.295   0.362   6.173 -0.3757  0.4647  0.2372
 6572TIP3   OH241130   5.679   6.603   5.635 -0.0743  0.2315 -0.2726
 6572TIP3    H141131   5.706   6.617   5.726 -2.3503  0.8917  0.3469
 6572TIP3    H241132   5.757   6.571   5.591  1.6063  1.7777  1.4850
 6573TIP3   OH241133   5.472   4.896  16.090 -0.2658 -0.8146 -1.0762
 6573TIP3    H141134   5.402   4.958  16.114 -0.2817 -0.8846 -0.9442
 6573TIP3    H241135   5.535   4.949  16.042  0.2362 -0.4710 -0.0389
 6574TIP3   OH241136   3.150   3.932  16.187 -0.1078  0.0141  0.1883
 6574TIP3    H141137   3.105   3.961  16.266  1.6092  0.7184  0.9253
 6574TIP3    H241138   3.090   3.955  16.116 -0.4126  2.0162  1.0489
 6575TIP3   OH241139   2.556   2.815  12.691 -0.0491 -0.3860  0.4461
 6575TIP3    H141140   2.645   2.842  12.709 -0.0685 -0.6703  0.9602
 6575TIP3    H241141   2.507   2.897  12.684  0.5002 -0.1643 -1.1919
 6576TIP3   OH241142   4.365   2.966  16.753 -0.1989  0.1636  0.3864
 6576TIP3    H141143   4.392   2.907  16.683  0.2444 -0.2070  0.8624
 6576TIP3    H241144   4.269   2.961  16.752 -0.2512  1.3038 -1.1447
 6577TIP3   OH241145   4.715   5.968   0.661  0.0508  0.7984 -0.3424
 6577TIP3    H141146   4.627   5.968   0.621  0.3412  0.9000 -0.9874
 6577TIP3    H241147   4.715   5.891   0.718 -0.4859  0.8421 -0.2760
 6578TIP3   OH241148   4.361   2.186  12.603 -0.6040 -0.1137 -0.6623
 6578TIP3    H141149   4.354   2.145  12.516 -1.1318  1.8535 -1.5812
 6578TIP3    H241150   4.418   2.262  12.589  0.0226 -0.2789  0.9190
 6579TIP3   OH241151   3.174   0.048  11.298 -0.2722  0.6339  0.0882
 6579TIP3    H141152   3.118   0.103  11.243 -0.9053 -1.9844 -1.9843
 6579TIP3    H241153   3.119   0.027  11.374 -1.6962 -0.9473 -1.3590
 6580TIP3   OH241154   0.344   1.419   1.176 -0.2985  0.1271  0.2581
 6580TIP3    H141155   0.336   1.356   1.103  2.3359 -1.5208  1.3151
 6580TIP3    H241156   0.376   1.499   1.135  1.7253 -0.9662 -0.3736
 6581TIP3   OH241157   3.145   0.314  15.800 -0.2317  0.2216 -0.2714
 6581TIP3    H141158   3.201   0.236  15.804 -1.6109 -0.7488  0.7312
 6581TIP3    H241159   3.206   0.388  15.798  1.1090 -0.8856 -1.7894
 6582TIP3   OH241160   2.507   4.948   2.272  0.2407  0.0218 -0.1922
 6582TIP3    H141161   2.566   4.978   2.204  2.3300 -0.2488  1.4482
 6582TIP3    H241162   2.510   4.852   2.266  0.5843 -0.0072  0.3991
 6583TIP3   OH241163   4.894   0.582   4.408 -0.2513 -0.3240 -0.6775
 6583TIP3    H141164   4.933   0.506   4.365  0.5707 -0.2539 -0.0790
 6583TIP3    H241165   4.876   0.553   4.497  1.7251  0.6950  0.0838
 6584TIP3   OH241166   2.009   0.591  11.707  0.5420  0.5371  0.3721
 6584TIP3    H141167   1.984   0.681  11.728 -0.4956  0.1225  0.9953
 6584TIP3    H241168   2.019   0.549  11.792  2.9500  0.5563  0.1144
 6585TIP3   OH241169   4.217   0.614  12.789  0.2668  0.1705 -0.0630
 6585TIP3    H141170   4.252   0.654  12.710 -0.1240  0.1002 -0.2745
 6585TIP3    H241171   4.127   0.648  12.795 -0.2128 -1.0130 -0.4728
 6586TIP3   OH241172   0.554   0.413  10.429 -0.2110  0.5949 -0.2479
 6586TIP3    H141173   0.471   0.369  10.448  0.2805  0.9941  2.9981
 6586TIP3    H241174   0.529   0.491  10.379 -1.7410  0.3977  0.1993
 6587TIP3   OH241175   0.828   2.133   5.157 -0.1771 -0.0110  0.5998
 6587TIP3    H141176   0.829   2.096   5.246 -0.7742  0.1027  0.6606
 6587TIP3    H241177   0.742   2.174   5.150 -1.2195 -2.3777 -1.0002
 6588TIP3   OH241178   0.167   3.642   5.806  0.6762  0.0498  0.2756
 6588TIP3    H141179   0.215   3.715   5.845  0.4978 -0.5101  1.5871
 6588TIP3    H241180   0.166   3.575   5.875  1.4863 -1.4823 -1.1740
 6589TIP3   OH241181   4.861   5.009   3.448 -0.2078  0.4409 -0.0742
 6589TIP3    H141182   4.914   4.977   3.521  0.7678 -1.0056 -1.3889
 6589TIP3    H241183   4.918   5.071   3.402 -1.3728  2.5668  1.2715
 6590TIP3   OH241184   5.823   1.457   1.348 -0.3975 -0.3082 -0.0803
 6590TIP3    H141185   5.794   1.548   1.340 -0.8479 -0.4329  0.0895
 6590TIP3    H241186   5.910   1.456   1.310 -0.6201  0.0796 -0.6137
 6591TIP3   OH241187   2.446   0.339   2.490 -0.0860  0.0450 -0.4728
 6591TIP3    H141188   2.462   0.264   2.547 -0.1757  1.2486  1.2018
 6591TIP3    H241189   2.526   0.348   2.438  0.1790 -0.7951 -0.2055
 6592TIP3   OH241190   2.575   5.679  13.709  0.1921 -0.2667 -0.1541
 6592TIP3    H141191   2.486   5.685  13.742  0.3240  0.7564  0.0259
 6592TIP3    H241192   2.565   5.643  13.620 -0.4082 -0.0040 -0.1967
 6593TIP3   OH241193   1.448   3.735  12.355  0.5302  0.0433  0.1625
 6593TIP3    H141194   1.525   3.777  12.317  1.5072 -0.7691  1.2241
 6593TIP3    H241195   1.483   3.660  12.402 -0.8386  0.0778  1.2510
 6594TIP3   OH241196   1.509   3.057   0.703  0.3998 -0.2434  0.1018
 6594TIP3    H141197   1.462   3.000   0.643 -0.9027  0.3193  0.5693
 6594TIP3    H241198   1.554   2.996   0.763 -1.8397 -0.8148  1.2598
 6595TIP3   OH241199   0.202   5.085  16.131  0.0263  0.3093 -0.2017
 6595TIP3    H141200   0.149   5.096  16.210  0.2625 -2.3516  0.3567
 6595TIP3    H241201   0.144   5.114  16.060 -1.0005  0.5406  0.7121
 6596TIP3   OH241202   0.035   5.311  15.915  0.4002 -0.5167  0.1565
 6596TIP3    H141203  -0.029   5.241  15.920  1.6343 -1.7254 -0.4862
 6596TIP3    H241204   0.040   5.333  15.822 -0.6950  1.1295  0.4612
 6597TIP3   OH241205   5.101   2.506  14.537 -0.3079  0.0635 -0.1872
 6597TIP3    H141206   5.008   2.492  14.558 -0.3943  1.3455  0.3598
 6597TIP3    H241207   5.143   2.512  14.623  0.0781  0.7413 -0.4246
 6598TIP3   OH241208   1.913   6.154   0.246 -0.2707  0.0706  0.7031
 6598TIP3    H141209   1.879   6.153   0.157  1.4326  0.8371  0.0213
 6598TIP3    H241210   1.942   6.244   0.260  0.9498 -0.4278  1.4382
 6599TIP3   OH241211   1.509   1.192   5.861  0.2825 -0.3950  0.4324
 6599TIP3    H141212   1.501   1.146   5.777  0.0350 -0.7981  0.6739
 6599TIP3    H241213   1.421   1.190   5.898 -0.2684  2.3398 -0.6080
 6600TIP3   OH241214   3.537   1.188  12.843  0.5371 -0.0074  0.3855
 6600TIP3    H141215   3.470   1.131  12.880  0.0945 -1.1904 -2.0962
 6600TIP3    H241216   3.620   1.150  12.872  0.2213 -1.5320 -0.6242
 6601TIP3   OH241217   4.324   5.825  10.910 -0.3306  0.2149 -0.0334
 6601TIP3    H141218   4.228   5.819  10.901 -0.4401 -0.4783  1.3890
 6601TIP3    H241219   4.358   5.781  10.833 -1.1940 -2.2647  0.9467
 6602TIP3   OH241220   4.679   1.399   0.537  0.1166 -0.3481  0.2273
 6602TIP3    H141221   4.718   1.457   0.471 -0.0812 -0.3960  0.0686
 6602TIP3    H241222   4.587   1.391   0.511 -0.0593 -0.0300  0.7489
 6603TIP3   OH241223   3.991   5.108  14.610  0.5493  0.3889 -0.1336
 6603TIP3    H141224   4.016   5.167  14.539 -1.5128  0.0953 -1.1320
 6603TIP3    H241225   4.038   5.142  14.687  1.0169  2.0809 -1.1346
 6604TIP3   OH241226   2.432   2.267  11.930  0.2423 -0.4137 -0.6799
 6604TIP3    H141227   2.457   2.356  11.956  0.9735 -1.2373  1.5511
 6604TIP3    H241228   2.341   2.259  11.959  0.4208 -0.6530 -0.1871
 6605TIP3   OH241229   4.698   6.332   0.057  0.4009 -0.0959  0.0384
 6605TIP3    H141230   4.649   6.317   0.138  1.6610  1.7338  1.1651
 6605TIP3    H241231   4.705   6.427   0.050  4.0386 -0.2948  0.0738
 6606TIP3   OH241232   0.548   6.687  12.742  0.1544 -0.1512  0.5605
 6606TIP3    H141233   0.492   6.757  12.776 -1.3883 -0.4148 -1.3740
 6606TIP3    H241234   0.628   6.731  12.714 -0.3710  0.6728  0.3641
 6607TIP3   OH241235   4.655   0.372   3.407 -0.4794 -0.1509 -0.1838
 6607TIP3    H141236   4.732   0.342   3.455 -0.3358 -0.3097 -0.5116
 6607TIP3    H241237   4.630   0.454   3.450 -0.5165 -0.4347  0.3376
 6608TIP3   OH241238   0.167   6.222  14.671  0.0181  0.3059  0.1005
 6608TIP3    H141239   0.137   6.135  14.696  1.2007  0.2102  1.2069
 6608TIP3    H241240   0.263   6.218  14.678 -0.0047  2.3490  2.3923
 6609TIP3   OH241241   2.604   3.554   2.252 -0.0529 -0.0002 -0.4049
 6609TIP3    H141242   2.511   3.578   2.248 -0.1169  0.0822  1.2644
 6609TIP3    H241243   2.628   3.566   2.344  1.6255  0.0053 -0.8280
 6610TIP3   OH241244   5.979   2.246   1.732  0.7299 -0.7165  0.1056
 6610TIP3    H141245   5.962   2.291   1.649  1.5016  0.1360  0.4061
 6610TIP3    H241246   6.052   2.294   1.771 -0.3373 -0.4423  1.7955
 6611TIP3   OH241247   4.285   6.707   0.771 -0.1473  0.0263  0.3512
 6611TIP3    H141248   4.216   6.774   0.768  0.3535  0.4758 -1.8767
 6611TIP3    H241249   4.361   6.754   0.807 -0.0062  0.4607 -0.5072
 6612TIP3   OH241250   3.884   6.410   3.931  0.0880  0.0106 -0.1902
 6612TIP3    H141251   3.815   6.346   3.951  0.4510 -0.3991 -0.2405
 6612TIP3    H241252   3.916   6.438   4.017 -1.7632  1.9990 -0.0975
 6613TIP3   OH241253   5.557   4.409   3.546 -0.2583 -0.9966  0.0975
 6613TIP3    H141254   5.538   4.453   3.464 -0.3856 -0.6337  0.3185
 6613TIP3    H241255   5.621   4.342   3.524 -0.1710 -0.7907 -0.2659
 6614TIP3   OH241256   5.056   4.979   5.188 -0.5005 -0.2214  0.3568
 6614TIP3    H141257   5.147   4.977   5.218 -0.5355 -0.5568  0.4399
 6614TIP3    H241258   5.008   4.925   5.251 -0.5609 -0.9721 -0.3173
 6615TIP3   OH241259   0.936   6.531  16.056 -0.0925  0.5748  0.1000
 6615TIP3    H141260   0.845   6.560  16.059  0.0274  1.0576 -0.6076
 6615TIP3    H241261   0.966   6.558  15.969  0.6101  0.0809  0.1874
 6616TIP3   OH241262   2.138   1.880  15.928  0.5332 -0.0544  0.0316
 6616TIP3    H141263   2.149   1.969  15.893  0.6226 -0.7773 -1.8085
 6616TIP3    H241264   2.060   1.847  15.884  1.1828 -1.3161 -0.1749
 6617TIP3   OH241265   0.590   5.744  13.701  0.1882  0.5332 -0.9881
 6617TIP3    H141266   0.526   5.673  13.693 -0.1678  0.6009  0.9440
 6617TIP3    H241267   0.569   5.803  13.629 -0.9258 -0.2417 -1.3150
 6618TIP3   OH241268   2.077   3.320  15.611  0.3184 -0.1416 -0.1003
 6618TIP3    H141269   2.119   3.234  15.613 -0.0722 -0.3618 -1.0076
 6618TIP3    H241270   1.990   3.303  15.574 -1.3860 -0.0415  3.6162
 6619TIP3   OH241271   4.391   5.502  15.120 -0.3030  0.4245 -0.0470
 6619TIP3    H141272   4.348   5.585  15.141 -0.6125  0.1528  0.4058
 6619TIP3    H241273   4.408   5.507  15.026 -1.3108  0.5557 -0.2342
 6620TIP3   OH241274   1.457   4.939  14.002  0.2562  0.5450 -0.7445
 6620TIP3    H141275   1.421   4.935  13.914 -0.0173 -0.4910 -0.5926
 6620TIP3    H241276   1.455   4.849  14.033 -0.9625  1.0902  0.8481
 6621TIP3   OH241277   1.962   4.552   6.701  0.3691 -0.0547 -0.4480
 6621TIP3    H141278   1.890   4.498   6.669  1.4595 -0.2929 -2.6334
 6621TIP3    H241279   2.022   4.491   6.742  0.4832 -0.1993 -0.8246
 6622TIP3   OH241280   1.642   6.127   5.830  0.1094  0.2712 -0.0257
 6622TIP3    H141281   1.551   6.122   5.801 -0.0013 -0.6244  0.4459
 6622TIP3    H241282   1.643   6.079   5.913  0.7479  1.4036  0.6309
 6623TIP3   OH241283   5.758   1.504  14.605  0.3851 -0.3510 -0.1879
 6623TIP3    H141284   5.704   1.431  14.634  0.5680 -0.6328 -0.5559
 6623TIP3    H241285   5.845   1.465  14.593  0.2398 -0.2995 -1.4201
 6624TIP3   OH241286   5.502   4.977  14.691  0.0199  0.5326 -0.2103
 6624TIP3    H141287   5.582   4.929  14.711  1.6627  1.7821 -3.3964
 6624TIP3    H241288   5.443   4.912  14.654  0.1017 -0.0801  0.7113
 6625TIP3   OH241289   3.349   6.186  17.066  0.8426  0.0815 -0.2786
 6625TIP3    H141290   3.356   6.090  17.069  2.4247  0.1798 -0.5832
 6625TIP3    H241291   3.438   6.216  17.049  0.2628  1.5948 -0.6891
 6626TIP3   OH241292   6.608   4.974   5.553  0.3734  0.1472  0.8577
 6626TIP3    H141293   6.589   5.016   5.469  3.4069 -0.9115 -0.4514
 6626TIP3    H241294   6.684   5.021   5.587 -0.8985  0.6349  3.0852
 6627TIP3   OH241295   3.125   0.454   6.304  0.0348  0.6244  0.1958
 6627TIP3    H141296   3.133   0.442   6.210  0.6322 -1.1729  0.4601
 6627TIP3    H241297   3.044   0.503   6.315 -0.0714  0.7920 -1.2449
 6628TIP3   OH241298   4.818   3.738   5.410  0.4072 -0.2748  0.2107
 6628TIP3    H141299   4.899   3.709   5.368  1.0782  1.2400  0.4297
 6628TIP3    H241300   4.829   3.712   5.501  0.4774 -0.4208  0.1617
 6629TIP3   OH241301   4.031   6.531   3.713  0.5609 -0.4417  0.4250
 6629TIP3    H141302   4.109   6.566   3.756 -0.6208  1.4712  1.0403
 6629TIP3    H241303   3.984   6.484   3.782 -0.1663  0.6565  0.6782
 6630TIP3   OH241304   6.315   3.208   3.345 -0.1371  0.3089  0.3329
 6630TIP3    H141305   6.221   3.219   3.353  0.0204 -0.1082  3.0237
 6630TIP3    H241306   6.326   3.144   3.275 -1.8978 -0.4815  0.7754
 6631TIP3   OH241307   3.260   2.505  15.981  0.0601  0.1109 -0.0321
 6631TIP3    H141308   3.327   2.573  15.987  0.6021 -0.3281 -1.0429
 6631TIP3    H241309   3.310   2.423  15.983 -0.3961 -0.2016 -1.5876
 6632TIP3   OH241310   4.019   6.781   5.249  0.6300  0.3209 -0.3004
 6632TIP3    H141311   4.061   6.734   5.177 -1.3844 -1.8087 -0.1739
 6632TIP3    H241312   4.003   6.869   5.215 -2.0846 -1.2198 -3.2308
 6633TIP3   OH241313   3.556   5.629  11.594 -0.3343 -0.2112 -0.0197
 6633TIP3    H141314   3.604   5.630  11.676 -0.6161 -1.8211  0.1764
 6633TIP3    H241315   3.465   5.643  11.619 -0.3595 -0.2251 -0.1029
 6634TIP3   OH241316   5.629   2.660  12.656  0.5012  0.1254 -0.3387
 6634TIP3    H141317   5.603   2.698  12.572 -1.5285 -1.2295 -0.3575
 6634TIP3    H241318   5.547   2.646  12.703  1.4263 -1.3185  0.9184
 6635TIP3   OH241319   3.888   6.783  12.164  0.2723  0.0748 -0.4141
 6635TIP3    H141320   3.925   6.696  12.180 -0.7477 -0.2475  0.2453
 6635TIP3    H241321   3.934   6.815  12.087 -0.8788 -1.9413 -1.9759
 6636TIP3   OH241322   5.573   6.261  11.933  0.1319 -0.1134 -0.5973
 6636TIP3    H141323   5.628   6.299  11.865  0.1089 -0.8175 -1.0111
 6636TIP3    H241324   5.599   6.306  12.013  0.0842  0.7974 -1.0844
 6637TIP3   OH241325   4.048   4.821  11.628 -0.2057  0.3171 -0.3468
 6637TIP3    H141326   4.142   4.839  11.622 -0.0848 -0.3691 -0.5348
 6637TIP3    H241327   4.007   4.906  11.611  0.3906  0.7778  0.4396
 6638TIP3   OH241328   3.959   6.017   3.969  0.3326 -0.2472  0.6665
 6638TIP3    H141329   3.872   6.003   3.931  0.1935 -0.1256  0.9395
 6638TIP3    H241330   3.942   6.042   4.060  0.6112  0.7346  0.4585
 6639TIP3   OH241331   6.072   0.459   6.302 -0.3605 -0.3103 -0.1154
 6639TIP3    H141332   6.148   0.517   6.296  0.1721 -1.0252 -0.2389
 6639TIP3    H241333   6.022   0.493   6.377  1.7220 -1.7898  2.0035
 6640TIP3   OH241334   1.248   0.359  11.867 -0.0684  0.0116 -0.0566
 6640TIP3    H141335   1.153   0.357  11.853 -0.1102 -1.1476  0.3712
 6640TIP3    H241336   1.260   0.413  11.944 -0.2893  1.1950 -0.8406
 6641TIP3   OH241337   4.007   0.502   2.052  0.1244  0.7333  0.0312
 6641TIP3    H141338   3.999   0.434   2.119  1.5139  1.1583  0.6592
 6641TIP3    H241339   3.917   0.522   2.028 -0.3319 -0.8333  0.3384
 6642TIP3   OH241340   4.235   3.075   3.348  0.9111 -0.2645 -0.7167
 6642TIP3    H141341   4.184   3.156   3.340 -0.7691 -1.1296  0.8370
 6642TIP3    H241342   4.285   3.086   3.429 -1.0108 -1.6520  0.7007
 6643TIP3   OH241343   0.295   5.718  12.727 -0.1059  0.0703  0.6326
 6643TIP3    H141344   0.319   5.810  12.717 -0.1230  0.0776  0.6614
 6643TIP3    H241345   0.374   5.675  12.758 -0.1991  0.1368  0.9664
 6644TIP3   OH241346   6.528   2.883   1.450  0.0860 -0.4885 -0.0007
 6644TIP3    H141347   6.437   2.891   1.479 -0.6091 -0.2734 -2.1436
 6644TIP3    H241348   6.579   2.882   1.531 -1.7845 -0.1208  1.2148
 6645TIP3   OH241349   4.357   1.973  15.781 -0.1200 -0.1266 -0.4041
 6645TIP3    H141350   4.345   2.058  15.737 -1.2393  0.3143  0.7323
 6645TIP3    H241351   4.275   1.927  15.766  0.3910 -0.9214 -0.7870
 6646TIP3   OH241352   3.269   5.935  12.286  0.5244  0.4565 -0.3482
 6646TIP3    H141353   3.193   5.955  12.231  0.0936  0.1648  0.1369
 6646TIP3    H241354   3.290   5.844  12.265  0.4690  0.4003 -0.1602
 6647TIP3   OH241355   3.319   3.674  11.588 -0.3131 -0.1712 -0.0060
 6647TIP3    H141356   3.338   3.698  11.498  2.8221 -1.4530  0.2529
 6647TIP3    H241357   3.357   3.744  11.641 -1.7373  0.3460  0.3599
 6648TIP3   OH241358   0.509   5.063  12.426  0.4490  0.2870 -0.5752
 6648TIP3    H141359   0.555   5.023  12.500  1.4859  0.0166 -1.3531
 6648TIP3    H241360   0.570   5.054  12.353  0.3777  2.5700 -0.9657
 6649TIP3   OH241361   3.195   5.033  13.932  0.4588  0.4157  0.4109
 6649TIP3    H141362   3.270   5.046  13.873  0.7022  0.1134  0.6548
 6649TIP3    H241363   3.118   5.042  13.875  0.7301 -2.5177 -0.5103
 6650TIP3   OH241364   0.262   3.728   4.454  0.1410  0.0733  0.1603
 6650TIP3    H141365   0.235   3.642   4.422 -0.9932 -0.1262  1.5939
 6650TIP3    H241366   0.268   3.717   4.549  3.3174  0.6728  0.0840
 6651TIP3   OH241367   5.331   2.718  11.307  0.1820  0.3877 -0.0875
 6651TIP3    H141368   5.373   2.748  11.226 -0.8721 -0.3579 -0.9094
 6651TIP3    H241369   5.343   2.623  11.307 -2.7354 -0.0267 -1.0594
 6652TIP3   OH241370   4.939   5.274  14.845 -0.3359 -0.0203  0.1402
 6652TIP3    H141371   5.021   5.249  14.887 -0.7722 -2.5143 -0.4237
 6652TIP3    H241372   4.957   5.360  14.806  2.0719 -0.6338 -0.1556
 6653TIP3   OH241373   4.137   0.697   0.366 -0.0342 -0.4620  0.1748
 6653TIP3    H141374   4.083   0.618   0.368 -0.4653 -0.4394 -4.4240
 6653TIP3    H241375   4.223   0.667   0.395 -0.9412 -1.9303  1.4260
 6654TIP3   OH241376   5.276   2.209   3.563 -1.0116 -0.2440 -0.0019
 6654TIP3    H141377   5.350   2.168   3.519  1.3396  0.0800  3.4911
 6654TIP3    H241378   5.231   2.258   3.494  0.1146 -3.0149 -2.8350
 6655TIP3   OH241379   2.620   3.314   1.352 -0.4959  0.5838 -0.3994
 6655TIP3    H141380   2.550   3.306   1.287  0.4607  2.3811 -1.7126
 6655TIP3    H241381   2.636   3.408   1.357  2.7076  0.1302 -1.1085
 6656TIP3   OH241382   3.017   0.886  16.830 -0.3586  0.5478  0.4094
 6656TIP3    H141383   2.983   0.964  16.787 -1.5438 -0.2469 -0.1127
 6656TIP3    H241384   3.037   0.915  16.919 -0.1765  1.6007  0.0291
 6657TIP3   OH241385   1.505   4.523  12.182 -0.1687 -0.3039 -0.0900
 6657TIP3    H141386   1.467   4.582  12.117 -0.9663  1.2044  1.6872
 6657TIP3    H241387   1.588   4.565  12.206 -0.6718  0.0490  1.0791
 6658TIP3   OH241388   2.528   0.491  12.596  0.6502  0.1422 -0.0006
 6658TIP3    H141389   2.527   0.466  12.503  0.2695  1.6753 -0.4265
 6658TIP3    H241390   2.456   0.441  12.635  0.4594 -0.0918 -0.6456
 6659TIP3   OH241391   1.646   0.602   2.095  0.0773  0.1721 -0.3689
 6659TIP3    H141392   1.610   0.636   2.013 -2.3968 -0.3374  0.4427
 6659TIP3    H241393   1.713   0.665   2.121 -0.3955  1.2993 -1.8471
 6660TIP3   OH241394   6.383   2.524  15.209  0.2746 -0.7238 -0.3901
 6660TIP3    H141395   6.304   2.471  15.197 -0.1005 -0.4443  0.7962
 6660TIP3    H241396   6.445   2.465  15.252  0.0181 -0.3350  0.5071
 6661TIP3   OH241397   2.493   5.095   3.858  0.6506  0.4792  0.3233
 6661TIP3    H141398   2.493   5.071   3.765  2.0127  1.4025  0.0597
 6661TIP3    H241399   2.409   5.064   3.891  1.6819 -3.2237 -0.3347
 6662TIP3   OH241400   5.563   0.783  16.575 -0.2394  0.2007  0.3312
 6662TIP3    H141401   5.658   0.783  16.585 -0.2431 -1.2872  0.4522
 6662TIP3    H241402   5.530   0.747  16.658 -0.8038 -1.3411 -0.5512
 6663TIP3   OH241403   5.318   6.692  12.681 -0.3374  0.2354 -0.2901
 6663TIP3    H141404   5.269   6.663  12.604 -0.1101  0.3783 -0.4895
 6663TIP3    H241405   5.404   6.650  12.671 -0.7840 -0.9254  0.6313
 6664TIP3   OH241406   3.616   5.236   1.991 -0.3663  0.2401 -0.4802
 6664TIP3    H141407   3.668   5.247   1.912 -1.3203 -0.1503 -1.1769
 6664TIP3    H241408   3.616   5.142   2.007  1.4167  0.4801  1.0929
 6665TIP3   OH241409   5.411   1.882  12.300  0.1278 -0.4004  0.6498
 6665TIP3    H141410   5.345   1.846  12.241  0.6700 -1.1220  0.4766
 6665TIP3    H241411   5.393   1.842  12.384 -0.1566  0.0288  0.7962
 6666TIP3   OH241412   3.711   5.231  14.724  0.9823  0.5413 -0.0913
 6666TIP3    H141413   3.652   5.170  14.768  0.1019  0.9524 -0.6811
 6666TIP3    H241414   3.797   5.189  14.728  0.6981  0.0527  1.0021
 6667TIP3   OH241415   0.069   1.744   0.906  0.0359  0.4887  0.3681
 6667TIP3    H141416   0.079   1.802   0.982  0.5558  1.5885 -0.5229
 6667TIP3    H241417   0.052   1.658   0.944 -0.7761  1.2149  1.7304
 6668TIP3   OH241418   2.126   1.682   1.379  0.1129  0.0206 -0.4189
 6668TIP3    H141419   2.215   1.717   1.389 -0.4544  1.6457 -0.9118
 6668TIP3    H241420   2.080   1.712   1.457  0.3850 -2.1438  0.6228
 6669TIP3   OH241421   1.810   4.067   5.718 -0.0362 -0.4545  0.2836
 6669TIP3    H141422   1.737   4.024   5.674 -0.3892 -1.1450  1.5143
 6669TIP3    H241423   1.864   4.101   5.647 -1.2050 -0.5147 -0.6536
 6670TIP3   OH241424   1.582   1.868   5.513 -0.1687 -0.0622  0.0369
 6670TIP3    H141425   1.668   1.852   5.550  0.1282  2.3691  0.4841
 6670TIP3    H241426   1.599   1.916   5.432 -1.1233  1.0172  0.4660
 6671TIP3   OH241427   4.908   6.591  14.138 -0.2448 -0.0865  0.4669
 6671TIP3    H141428   4.998   6.590  14.105 -0.2790 -0.4458  0.3861
 6671TIP3    H241429   4.917   6.588  14.233 -0.1920 -1.2165  0.4349
 6672TIP3   OH241430   3.973   4.310   0.001  0.5262 -0.3064 -0.0432
 6672TIP3    H141431   3.900   4.337  -0.054 -0.6532 -2.3466  0.4369
 6672TIP3    H241432   3.981   4.380   0.066 -0.5783  0.2637 -0.4966
 6673TIP3   OH241433   1.046   4.872  16.042 -0.0251  0.1649  0.5939
 6673TIP3    H141434   1.027   4.960  16.074  0.7184  0.5825 -0.0784
 6673TIP3    H241435   1.118   4.885  15.980 -0.1436 -0.8747  0.2363
 6674TIP3   OH241436   2.993   2.192   6.285 -0.5801  0.7154 -0.2781
 6674TIP3    H141437   3.041   2.221   6.363  0.1865  0.8197 -0.7896
 6674TIP3    H241438   2.920   2.253   6.278 -0.4820  0.8892  0.1910
 6675TIP3   OH241439   6.510   6.276   2.490 -0.0962 -0.3214  0.1798
 6675TIP3    H141440   6.448   6.337   2.531  0.4961 -1.0713  2.2196
 6675TIP3    H241441   6.468   6.191   2.497  0.0322 -0.4711 -0.7727
 6676TIP3   OH241442   1.528   0.427   4.173 -0.0355  0.0917 -0.1035
 6676TIP3    H141443   1.609   0.454   4.217  1.3397  1.5421 -3.2951
 6676TIP3    H241444   1.545   0.337   4.146  0.1405  0.0634  0.1004
 6677TIP3   OH241445   5.769   1.029  15.845 -0.1152 -0.2029  0.0983
 6677TIP3    H141446   5.749   0.958  15.784 -0.1372  1.1431 -1.4893
 6677TIP3    H241447   5.732   1.001  15.928 -0.4210 -1.8969 -0.5952
 6678TIP3   OH241448   2.237   1.519   4.812 -0.0144 -0.7068 -0.3775
 6678TIP3    H141449   2.277   1.468   4.881 -1.2697 -0.3607  0.6286
 6678TIP3    H241450   2.251   1.610   4.837 -1.6085 -0.5793  0.1266
 6679TIP3   OH241451   5.413   2.854   2.688 -0.1686 -0.2777  0.5326
 6679TIP3    H141452   5.410   2.947   2.666  2.0593  0.3051  2.4158
 6679TIP3    H241453   5.382   2.850   2.779  1.6927 -1.0801  1.1554
 6680TIP3   OH241454   0.798   2.186  13.917  0.1782 -0.2203 -0.3319
 6680TIP3    H141455   0.855   2.134  13.974 -0.8224 -1.0290 -0.0584
 6680TIP3    H241456   0.801   2.274  13.955  0.6524 -0.4286  0.1302
 6681TIP3   OH241457   1.456   5.433   5.581  0.4022  0.1478 -0.2240
 6681TIP3    H141458   1.544   5.420   5.615  0.1119  0.1182  0.5200
 6681TIP3    H241459   1.412   5.486   5.647 -0.5989 -1.1184  0.1388
 6682TIP3   OH241460   1.189   2.659  16.523 -0.4016  0.2341  0.1288
 6682TIP3    H141461   1.141   2.589  16.568 -1.6635 -1.0399 -3.0405
 6682TIP3    H241462   1.122   2.707  16.474  0.9009  1.6664 -0.2877
 6683TIP3   OH241463   0.792   6.603   1.987  0.4889 -0.4892 -0.0980
 6683TIP3    H141464   0.767   6.538   1.921  0.0562 -0.4860  0.0614
 6683TIP3    H241465   0.748   6.573   2.067 -1.2546  1.0368 -0.4449
 6684TIP3   OH241466   2.329   1.328   3.740 -0.0384 -0.0463 -0.0858
 6684TIP3    H141467   2.285   1.412   3.722 -0.3758 -0.1680  0.1748
 6684TIP3    H241468   2.330   1.284   3.655 -1.2594 -0.4426  0.0871
 6685TIP3   OH241469   3.195   0.445  16.967 -0.0501  0.2443 -0.2890
 6685TIP3    H141470   3.182   0.477  16.878 -1.3233  1.1264  0.2040
 6685TIP3    H241471   3.216   0.523  17.018 -1.8671  0.1362  0.6682
 6686TIP3   OH241472   4.216   3.903  15.001  1.1404  0.4923  0.1707
 6686TIP3    H141473   4.289   3.933  14.946  0.4892 -0.4045 -1.2064
 6686TIP3    H241474   4.185   3.983  15.043  3.0263  0.8685  0.9324
 6687TIP3   OH241475   3.299   2.186   5.256 -0.7758  0.0502 -0.5124
 6687TIP3    H141476   3.356   2.254   5.221 -1.7504  0.3564 -1.5425
 6687TIP3    H241477   3.244   2.230   5.321  0.3095 -0.2928  0.6445
 6688TIP3   OH241478   6.507   4.180  13.635 -1.2014  0.1168 -0.0160
 6688TIP3    H141479   6.500   4.263  13.681 -0.6815  0.5048 -0.6397
 6688TIP3    H241480   6.596   4.150  13.653 -1.1321  0.0731 -0.4372
 6689TIP3   OH241481   1.723   3.295  13.059 -0.3212 -1.0030 -0.9486
 6689TIP3    H141482   1.651   3.290  13.121  0.2934  0.8559 -0.0559
 6689TIP3    H241483   1.802   3.292  13.112  0.2380 -0.9900 -1.7610
 6690TIP3   OH241484   2.598   5.066  12.457  0.2476 -0.0884  0.6899
 6690TIP3    H141485   2.575   5.150  12.497 -1.9049  0.2082 -1.0553
 6690TIP3    H241486   2.601   5.005  12.530  0.3058  1.1928  1.7866
 6691TIP3   OH241487   4.041   2.520   0.098 -0.2150 -0.0815  0.0918
 6691TIP3    H141488   4.104   2.477   0.039  0.2714 -0.3383  0.7872
 6691TIP3    H241489   4.096   2.573   0.156 -0.5346 -1.2132  1.4632
 6692TIP3   OH241490   1.830   0.938   5.229 -0.0811  0.5506  0.1252
 6692TIP3    H141491   1.773   0.933   5.306 -1.7994  0.2813 -1.1348
 6692TIP3    H241492   1.822   1.028   5.198  1.5960  1.0112  0.9690
 6693TIP3   OH241493   4.777   2.382   1.638 -0.2394 -0.3589 -0.1488
 6693TIP3    H141494   4.790   2.364   1.732 -1.2702  1.5668  0.3842
 6693TIP3    H241495   4.846   2.332   1.595  0.9209 -0.4297  1.7197
 6694TIP3   OH241496   5.610   5.294  11.178 -0.2790 -0.4962  0.1531
 6694TIP3    H141497   5.559   5.215  11.163 -0.1007 -0.8069  1.1202
 6694TIP3    H241498   5.558   5.345  11.241  0.4223 -0.6594  0.8799
 6695TIP3   OH241499   1.883   5.784   3.742 -0.5067 -0.5575  0.2316
 6695TIP3    H141500   1.809   5.843   3.753  0.2455  0.1905  1.5159
 6695TIP3    H241501   1.889   5.769   3.648 -2.1715 -0.4897  0.1092
 6696TIP3   OH241502   4.328   2.000   1.433  0.4133 -0.3861  0.0347
 6696TIP3    H141503   4.418   2.003   1.464  0.0660  1.0838  0.9780
 6696TIP3    H241504   4.333   2.029   1.342  1.0929 -1.9497 -0.4286
 6697TIP3   OH241505   6.401   5.739   4.209 -0.3386  0.0238  0.2566
 6697TIP3    H141506   6.455   5.688   4.149  0.2017 -0.9338  1.5417
 6697TIP3    H241507   6.445   5.824   4.214  0.0361 -0.1487 -0.1145
 6698TIP3   OH241508   5.790   4.015   0.521  0.1490  0.0749  0.3473
 6698TIP3    H141509   5.779   3.938   0.465  0.4559 -0.2354  0.7019
 6698TIP3    H241510   5.767   4.089   0.466 -4.4702 -0.5444  1.2737
 6699TIP3   OH241511   5.240   1.350  13.114 -0.2082  0.5178 -0.5902
 6699TIP3    H141512   5.234   1.322  13.206  0.4415  0.6891 -0.4865
 6699TIP3    H241513   5.253   1.269  13.065 -0.8150  0.4008 -0.5577
 6700TIP3   OH241514   4.148   3.227   0.711 -0.3359  0.2537  0.1913
 6700TIP3    H141515   4.113   3.142   0.686 -0.5218  0.2675  0.4071
 6700TIP3    H241516   4.072   3.279   0.735 -0.1570  0.2289  0.8196
 6701TIP3   OH241517   4.488   3.742  11.240 -0.1268  0.4285  0.5381
 6701TIP3    H141518   4.488   3.763  11.333  2.4651 -0.4130  0.7503
 6701TIP3    H241519   4.429   3.807  11.201  0.7687  2.4008  2.3942
 6702TIP3   OH241520   6.681   3.760   5.383 -0.5897 -0.6957  0.1941
 6702TIP3    H141521   6.649   3.678   5.344  0.5566 -0.8555 -0.4430
 6702TIP3    H241522   6.750   3.789   5.323 -0.9097  0.6889  0.4681
 6703TIP3   OH241523   3.927   0.509  13.128 -0.0152 -0.2296  0.0180
 6703TIP3    H141524   3.863   0.442  13.102 -1.4012  2.1877 -3.0293
 6703TIP3    H241525   3.890   0.547  13.208 -0.6959 -1.0696  0.1131
 6704TIP3   OH241526   1.540   5.279   2.855  0.1983  0.4754 -0.2331
 6704TIP3    H141527   1.460   5.331   2.847  0.8067  1.4016 -0.3398
 6704TIP3    H241528   1.601   5.335   2.902  0.5990 -0.4526  0.3712
 6705TIP3   OH241529   6.659   0.204  11.173 -0.1109 -0.2693  0.0262
 6705TIP3    H141530   6.678   0.243  11.259 -1.5080  0.7056 -0.0860
 6705TIP3    H241531   6.609   0.272  11.127 -1.1260 -1.5739 -0.8057
 6706TIP3   OH241532   5.830   2.318   3.065  0.0450  0.5932 -0.0607
 6706TIP3    H141533   5.876   2.402   3.060 -1.0149  1.0842 -1.8254
 6706TIP3    H241534   5.779   2.324   3.146  0.4568  1.4061  0.1481
 6707TIP3   OH241535   5.928   5.934   5.852  0.1913  0.6512  0.1403
 6707TIP3    H141536   5.986   5.982   5.911  1.1897  1.2117 -1.2760
 6707TIP3    H241537   5.954   5.962   5.765  0.4839 -2.0963 -0.7128
 6708TIP3   OH241538   1.677   6.080   3.969  0.0896 -0.1341  0.0567
 6708TIP3    H141539   1.679   6.154   4.029 -1.8165 -0.3253  0.3783
 6708TIP3    H241540   1.702   6.005   4.022  3.2850  0.4311 -0.5610
 6709TIP3   OH241541   2.568   2.255  10.945 -0.2418  0.1035  0.2042
 6709TIP3    H141542   2.640   2.236  10.886  1.0059  1.2269  1.3415
 6709TIP3    H241543   2.570   2.350  10.956 -1.3807  0.0587  0.9077
 6710TIP3   OH241544   0.806   5.327  11.764 -0.7236 -0.0167 -0.2738
 6710TIP3    H141545   0.741   5.333  11.834 -0.7643  0.3081 -0.3346
 6710TIP3    H241546   0.852   5.245  11.780 -1.4123 -0.4440 -0.4499
 6711TIP3   OH241547   1.038   4.426  15.842 -0.1989  0.3345  0.6010
 6711TIP3    H141548   1.131   4.401  15.837 -0.0715  1.1453 -1.3297
 6711TIP3    H241549   1.022   4.435  15.936  1.5137 -0.4031  1.0047
 6712TIP3   OH241550   0.115   1.977   4.294  0.4409  0.7559  0.2640
 6712TIP3    H141551   0.194   1.930   4.267 -0.5787 -2.0613  1.9793
 6712TIP3    H241552   0.045   1.912   4.287 -1.6516  3.0074 -0.5642
 6713TIP3   OH241553   4.568   0.197   1.623  0.4893 -0.2731  0.7212
 6713TIP3    H141554   4.632   0.267   1.609 -0.4394  0.2272 -1.2264
 6713TIP3    H241555   4.523   0.189   1.538 -2.0027 -0.6182  2.0445
 6714TIP3   OH241556   4.787   2.059  12.776  0.2528 -0.6717  0.1531
 6714TIP3    H141557   4.717   2.022  12.830  1.1639 -0.1292  1.7220
 6714TIP3    H241558   4.849   1.986  12.764 -0.6751 -1.2309 -1.4628
 6715TIP3   OH241559   6.736   1.779   5.759 -1.1188  0.2553  0.2334
 6715TIP3    H141560   6.793   1.856   5.757 -0.4074 -0.2605  0.4284
 6715TIP3    H241561   6.736   1.747   5.669 -0.8812  0.1027  0.2857
 6716TIP3   OH241562   0.996   4.753   0.057  0.2803 -0.0822 -0.1119
 6716TIP3    H141563   1.044   4.823   0.100 -0.4479 -1.0210  2.3237
 6716TIP3    H241564   0.904   4.779   0.064 -0.0093 -1.2813  0.9383
 6717TIP3   OH241565   1.169   3.039   6.210 -0.5607 -0.1120  0.0011
 6717TIP3    H141566   1.096   3.040   6.148  1.7950 -3.1979 -2.9637
 6717TIP3    H241567   1.139   2.984   6.282 -1.1138 -1.5440 -1.3007
 6718TIP3   OH241568   2.396   0.877  13.408  0.6642 -0.1548  0.2247
 6718TIP3    H141569   2.463   0.855  13.474 -0.0880  0.5918  1.2492
 6718TIP3    H241570   2.326   0.813  13.424  1.7558 -1.9312 -1.8490
 6719TIP3   OH241571   6.211   0.410   1.997 -0.4027 -0.2072  0.1950
 6719TIP3    H141572   6.161   0.366   1.929 -0.4828  2.1144 -1.3099
 6719TIP3    H241573   6.145   0.454   2.051 -0.2850 -1.3739  1.3223
 6720TIP3   OH241574   5.031   6.490  13.122 -0.0238 -0.3479  0.2818
 6720TIP3    H141575   5.071   6.518  13.039 -2.0980  1.7602 -0.0627
 6720TIP3    H241576   5.102   6.447  13.169  2.3734  2.2072 -0.8247
 6721TIP3   OH241577   5.200   3.158  14.830  0.1759  1.0487 -0.0756
 6721TIP3    H141578   5.228   3.131  14.917  1.4275 -1.4000 -1.1767
 6721TIP3    H241579   5.107   3.138  14.827 -0.0236  1.7850  0.9185
 6722TIP3   OH241580   3.685   2.818   0.533  0.0422  0.4116  0.2474
 6722TIP3    H141581   3.730   2.759   0.594 -1.3231  0.2222  1.0863
 6722TIP3    H241582   3.614   2.765   0.498  0.3845  0.7578 -0.9783
 6723TIP3   OH241583   1.238   4.748   4.176  0.1698 -0.8555  0.2031
 6723TIP3    H141584   1.246   4.738   4.271 -2.4894  0.2256  0.5895
 6723TIP3    H241585   1.251   4.660   4.141 -0.4190 -1.5590  1.7130
 6724TIP3   OH241586   3.535   4.899   3.049  0.1963 -0.4141 -0.1806
 6724TIP3    H141587   3.511   4.917   2.959  0.4165 -1.9138 -0.5579
 6724TIP3    H241588   3.629   4.879   3.046 -0.0017 -1.4738  0.2066
 6725TIP3   OH241589   6.659   0.445  15.978  0.1173 -0.2665  0.2648
 6725TIP3    H141590   6.598   0.388  16.025 -0.6701  0.1783 -0.2140
 6725TIP3    H241591   6.639   0.432  15.886  1.4294 -0.8691  0.0564
 6726TIP3   OH241592   1.988   2.735   1.126  0.1170  0.1285  0.7170
 6726TIP3    H141593   1.920   2.798   1.103 -0.3836 -0.4169  0.6992
 6726TIP3    H241594   1.955   2.692   1.205 -0.6914 -1.8318 -0.6482
 6727TIP3   OH241595   6.299   3.356   5.515 -0.2037 -0.1443 -0.2845
 6727TIP3    H141596   6.386   3.374   5.550 -0.5072  2.1978 -0.6399
 6727TIP3    H241597   6.273   3.274   5.556  1.5777 -0.1217  0.9389
 6728TIP3   OH241598   1.962   2.804   3.081  0.2666  0.4822  0.2181
 6728TIP3    H141599   2.016   2.729   3.103  1.1865  0.9304 -0.4552
 6728TIP3    H241600   2.022   2.879   3.083 -0.1195  0.8585 -1.4476
 6729TIP3   OH241601   3.676   5.489  13.812 -0.4289 -0.2505  0.1500
 6729TIP3    H141602   3.598   5.532  13.847 -1.3159  0.0838 -2.1329
 6729TIP3    H241603   3.658   5.395  13.823 -0.7863 -0.1525  0.4116
 6730TIP3   OH241604   4.488   2.062  15.539  0.4535 -0.6428  0.3411
 6730TIP3    H141605   4.546   1.987  15.556  0.2979 -0.9076 -0.3127
 6730TIP3    H241606   4.508   2.123  15.610  1.4734 -0.7701  0.1740
 6731TIP3   OH241607   1.789   3.249   1.623 -0.6047  0.1442 -0.4309
 6731TIP3    H141608   1.837   3.289   1.551  2.3099 -1.1957  0.6757
 6731TIP3    H241609   1.745   3.173   1.583  1.7146 -1.1174 -0.6908
 6732TIP3   OH241610   6.352   2.112   1.642 -0.2141  0.0481 -0.0234
 6732TIP3    H141611   6.366   2.043   1.706  1.3931  1.6605  1.4333
 6732TIP3    H241612   6.296   2.073   1.575 -2.0510 -1.6356  2.4308
 6733TIP3   OH241613   5.733   1.723  13.170 -0.5204 -0.3527 -0.4705
 6733TIP3    H141614   5.776   1.760  13.247 -0.6434 -0.2144 -0.4685
 6733TIP3    H241615   5.720   1.798  13.112 -1.5623 -0.2379 -0.0990
 6734TIP3   OH241616   3.754   0.800   5.538  0.3693 -0.2424  0.0105
 6734TIP3    H141617   3.805   0.880   5.529  1.6954 -0.9089  1.4064
 6734TIP3    H241618   3.766   0.755   5.454  1.9127 -0.2870  0.2437
 6735TIP3   OH241619   3.664   3.023  12.496  0.2920 -0.0501  0.5875
 6735TIP3    H141620   3.666   2.951  12.559 -1.3134 -1.4415 -0.9161
 6735TIP3    H241621   3.572   3.051  12.495  0.9019  2.1064  1.2098
 6736TIP3   OH241622   1.216   0.960   5.978  0.1165 -0.6263  0.5091
 6736TIP3    H141623   1.272   1.021   6.026 -0.4390  2.4788 -2.5952
 6736TIP3    H241624   1.127   0.986   6.001 -0.1290 -0.2268 -0.8471
 6737TIP3   OH241625   2.246   1.305  15.815  0.1488 -0.1746 -0.0427
 6737TIP3    H141626   2.174   1.247  15.842 -0.2668  0.5519  0.4323
 6737TIP3    H241627   2.219   1.392  15.844  0.7149  0.2833 -0.8565
 6738TIP3   OH241628   6.416   4.862  16.602  0.2914  0.5050 -0.0065
 6738TIP3    H141629   6.442   4.854  16.694 -1.4366  0.2700  0.4769
 6738TIP3    H241630   6.434   4.776  16.564  0.6307  0.4827  0.1969
 6739TIP3   OH241631   1.560   2.261   3.275  0.1295 -0.6085 -0.0326
 6739TIP3    H141632   1.625   2.321   3.239 -1.2383  0.4870 -0.7169
 6739TIP3    H241633   1.511   2.230   3.199 -1.1052 -0.2736  0.6145
 6740TIP3   OH241634   0.594   4.567   5.216 -0.5152  0.4324 -0.2452
 6740TIP3    H141635   0.566   4.552   5.126 -2.3006 -1.4420  0.5715
 6740TIP3    H241636   0.568   4.487   5.262  2.0138  0.6035  1.5577
 6741TIP3   OH241637   4.516   4.072   4.650  0.3119  0.1422  0.6098
 6741TIP3    H141638   4.538   3.997   4.595 -0.3577 -0.2652  0.8885
 6741TIP3    H241639   4.529   4.148   4.594 -1.9116 -0.3635 -0.6177
 6742TIP3   OH241640   2.018   5.427  12.209  0.3681 -0.2456  0.1765
 6742TIP3    H141641   2.012   5.514  12.248  0.3397  0.1447 -0.6905
 6742TIP3    H241642   1.929   5.407  12.181  0.2961 -0.7264  0.7236
 6743TIP3   OH241643   5.394   5.978   1.152  0.1201  0.0033 -0.4403
 6743TIP3    H141644   5.305   5.943   1.146 -0.5848  1.3184  1.7199
 6743TIP3    H241645   5.385   6.071   1.133  1.2209 -0.0704 -1.3675
 6744TIP3   OH241646   4.445   6.356   3.141  0.2165 -0.1534  0.1012
 6744TIP3    H141647   4.386   6.330   3.212 -0.8141  0.9522 -0.3292
 6744TIP3    H241648   4.394   6.341   3.062 -0.1969  2.5500 -0.1946
 6745TIP3   OH241649   4.447   1.046   5.401  0.4188  0.0634  0.4209
 6745TIP3    H141650   4.479   1.075   5.315  1.2497 -0.5959  0.5030
 6745TIP3    H241651   4.465   0.952   5.403  0.3320  0.0599  1.2839
 6746TIP3   OH241652   1.091   2.100   0.667 -0.3604  0.5042 -0.1908
 6746TIP3    H141653   1.156   2.161   0.631 -0.7759  1.0030 -0.1086
 6746TIP3    H241654   1.137   2.056   0.739 -0.4860  1.7669  0.6842
 6747TIP3   OH241655   4.607   5.615  17.097  0.5496 -0.1882 -0.5077
 6747TIP3    H141656   4.665   5.692  17.093 -0.9491  0.8989 -1.9424
 6747TIP3    H241657   4.624   5.577  17.183  2.4678  0.8408 -0.3992
 6748TIP3   OH241658   6.571   2.737  12.357 -0.1549  0.0624 -0.2092
 6748TIP3    H141659   6.512   2.749  12.431 -0.6165  0.2553 -0.6097
 6748TIP3    H241660   6.542   2.655  12.316  0.1003 -0.0448 -0.1818
 6749TIP3   OH241661   4.577   5.422  11.053  0.4727  0.4691  0.2068
 6749TIP3    H141662   4.507   5.429  11.118 -0.1089  0.9543 -0.4660
 6749TIP3    H241663   4.643   5.366  11.095 -1.2857 -1.8232  0.0008
 6750TIP3   OH241664   1.900   5.917  13.831  1.2370  0.1789 -0.0454
 6750TIP3    H141665   1.891   5.823  13.816  0.6961  0.3266 -0.6636
 6750TIP3    H241666   1.908   5.955  13.744  2.3446  0.6261  0.2373
 6751TIP3   OH241667   2.801   5.080   5.907  0.1129  0.3972  0.2971
 6751TIP3    H141668   2.811   5.125   5.992 -0.9800  0.4677  0.3890
 6751TIP3    H241669   2.874   5.113   5.854  0.5459  0.6856  1.0649
 6752TIP3   OH241670   0.028   1.776   0.104 -0.0972  0.0134  0.0277
 6752TIP3    H141671   0.099   1.724   0.141  0.5662  0.6642 -0.3404
 6752TIP3    H241672  -0.050   1.721   0.117  0.3987 -0.5210  0.7895
 6753TIP3   OH241673   5.124   1.772  13.584 -0.0927  0.2338  0.1816
 6753TIP3    H141674   5.187   1.748  13.516  1.3361  1.7787  0.9195
 6753TIP3    H241675   5.098   1.861  13.564 -0.8380  0.1664  0.7946
 6754TIP3   OH241676   6.556   1.681   0.040  0.7438 -0.1554 -0.1231
 6754TIP3    H141677   6.476   1.629   0.046  1.8564 -1.6484  2.2290
 6754TIP3    H241678   6.526   1.769   0.018 -1.4377 -0.9673 -0.4987
 6755TIP3   OH241679   0.441   2.182  12.496 -0.5174 -0.3031  0.0714
 6755TIP3    H141680   0.532   2.204  12.517 -0.5369 -2.5280  2.6492
 6755TIP3    H241681   0.446   2.095  12.457 -1.4666  0.0242 -0.8127
 6756TIP3   OH241682   5.677   4.667   0.363 -0.0114  0.2644  0.5809
 6756TIP3    H141683   5.592   4.632   0.388  0.2741 -0.1788  0.9318
 6756TIP3    H241684   5.659   4.756   0.332 -0.1304  1.5066  4.0862
 6757TIP3   OH241685   4.284   1.601  12.023  0.3493 -0.0347 -0.3935
 6757TIP3    H141686   4.293   1.530  12.086 -0.3640 -0.1052 -0.3757
 6757TIP3    H241687   4.306   1.680  12.073  0.9758 -0.2192 -0.3701
 6758TIP3   OH241688   4.373   1.241  14.551  0.6173 -0.4582  0.5020
 6758TIP3    H141689   4.356   1.269  14.461 -0.0589 -1.6073  0.2608
 6758TIP3    H241690   4.377   1.322  14.602  0.3894  0.1575 -0.4607
 6759TIP3   OH241691   2.687   6.162  17.134 -0.0807  0.7785 -0.2241
 6759TIP3    H141692   2.711   6.226  17.068  0.5392  0.3361 -0.4350
 6759TIP3    H241693   2.618   6.110  17.093  0.0547  0.7302 -0.3879
 6760TIP3   OH241694   2.595   4.038   6.489  0.0998  0.0476 -0.3240
 6760TIP3    H141695   2.527   4.010   6.550  0.6494 -1.0292 -0.1980
 6760TIP3    H241696   2.639   4.111   6.534  0.4358 -0.6733  0.5307
 6761TIP3   OH241697   0.507   3.456   0.332 -0.2599  0.1654 -0.4026
 6761TIP3    H141698   0.533   3.519   0.398 -2.5936 -0.6532  1.3818
 6761TIP3    H241699   0.450   3.505   0.272 -1.1149  0.0628  0.3118
 6762TIP3   OH241700   2.704   1.116   2.559 -0.1625 -0.1193 -0.1208
 6762TIP3    H141701   2.625   1.161   2.531 -0.0968  0.4660  0.6155
 6762TIP3    H241702   2.712   1.041   2.500 -1.7912 -0.7261  0.4133
 6763TIP3   OH241703   4.410   5.787  14.188 -0.2177  0.0145  0.4070
 6763TIP3    H141704   4.328   5.799  14.140 -0.4240 -0.5925  0.5948
 6763TIP3    H241705   4.393   5.825  14.274 -0.8448 -1.5324  0.9789
 6764TIP3   OH241706   0.407   6.058  10.573  0.3239 -0.2103 -0.0911
 6764TIP3    H141707   0.474   6.007  10.527 -1.5584 -1.5351 -1.4241
 6764TIP3    H241708   0.338   5.994  10.592 -0.5347  1.1202  1.3265
 6765TIP3   OH241709   0.461   2.397  14.500  0.1077  0.2321  0.3015
 6765TIP3    H141710   0.396   2.389  14.570 -2.0497 -1.2140 -1.7542
 6765TIP3    H241711   0.527   2.331  14.520 -0.2010  0.1898  1.2175
 6766TIP3   OH241712   5.926   2.860   1.767 -0.9146  0.1119 -0.0551
 6766TIP3    H141713   5.837   2.827   1.782 -1.6521  1.6367 -1.0344
 6766TIP3    H241714   5.926   2.892   1.677 -0.1002  2.3793  0.7112
 6767TIP3   OH241715   4.537   5.152   4.082  0.0488  0.2450 -0.2553
 6767TIP3    H141716   4.510   5.243   4.092 -0.4480  0.0995 -0.2327
 6767TIP3    H241717   4.626   5.149   4.116  0.0342  0.7028 -0.1705
 6768TIP3   OH241718   2.849   6.233   0.484  0.1264  0.0463 -0.5793
 6768TIP3    H141719   2.803   6.163   0.529 -0.3098 -0.8826 -2.4085
 6768TIP3    H241720   2.793   6.310   0.497  0.3996 -0.0216  1.0855
 6769TIP3   OH241721   0.700   2.605  14.488  0.0707 -0.4402  0.4989
 6769TIP3    H141722   0.620   2.569  14.450 -0.7415  2.8864 -1.1143
 6769TIP3    H241723   0.669   2.656  14.563  0.7494  0.1793  0.3589
 6770TIP3   OH241724   5.457   3.549   2.772  0.3450 -0.2133 -0.1621
 6770TIP3    H141725   5.544   3.519   2.799 -0.4970 -3.0919 -0.4969
 6770TIP3    H241726   5.430   3.609   2.841  1.3573 -1.6584  1.5293
 6771TIP3   OH241727   6.729   2.351   5.618  0.3736 -0.0467 -0.3307
 6771TIP3    H141728   6.738   2.362   5.523 -0.7853 -2.0650 -0.6852
 6771TIP3    H241729   6.813   2.313   5.645  0.3360 -0.3738 -0.6749
 6772TIP3   OH241730   5.453   4.893   6.053  0.5597  0.5533 -0.2722
 6772TIP3    H141731   5.428   4.824   6.114  1.0382  0.8662  0.2765
 6772TIP3    H241732   5.370   4.933   6.026  0.3222  0.1323 -0.1676
 6773TIP3   OH241733   4.983   4.019   4.030  0.2710 -0.2174  0.3123
 6773TIP3    H141734   4.993   3.947   4.092  1.2498 -0.5761 -0.2524
 6773TIP3    H241735   4.892   4.047   4.040 -0.0966 -1.4719  0.5952
 6774TIP3   OH241736   2.692   4.578   3.596 -0.4788 -0.3962 -0.7463
 6774TIP3    H141737   2.673   4.536   3.512 -1.4407 -1.8205  0.1545
 6774TIP3    H241738   2.738   4.511   3.647 -0.3208  0.2903  0.0351
 6775TIP3   OH241739   4.755   5.112  17.189 -0.1450  0.0898 -0.0349
 6775TIP3    H141740   4.740   5.018  17.193 -1.0711  0.2743  1.3095
 6775TIP3    H241741   4.670   5.149  17.162 -0.1918  0.6378  0.8461
 6776TIP3   OH241742   5.332   6.111  13.360 -0.2378  0.1252 -0.3441
 6776TIP3    H141743   5.406   6.168  13.383 -0.3997 -0.2717  1.2639
 6776TIP3    H241744   5.334   6.106  13.265  1.2339  0.8905 -0.3744
 6777TIP3   OH241745   3.246   2.490   2.501  0.2492 -0.4275  0.3500
 6777TIP3    H141746   3.174   2.547   2.528  1.5774  0.9867  0.9842
 6777TIP3    H241747   3.224   2.464   2.411 -0.6090  0.6760  0.2344
 6778TIP3   OH241748   1.589   6.648   2.861 -0.3061 -0.5385 -0.1593
 6778TIP3    H141749   1.678   6.622   2.841 -1.0560 -2.6937 -0.8167
 6778TIP3    H241750   1.557   6.688   2.781  0.1711  0.5684  0.1930
 6779TIP3   OH241751   4.120   3.387  15.961  0.7530 -0.7517  0.1200
 6779TIP3    H141752   4.122   3.299  16.000  1.2666 -1.1701 -0.8066
 6779TIP3    H241753   4.042   3.386  15.905 -0.6554  0.2572  2.0441
 6780TIP3   OH241754   3.875   6.511  14.600 -0.2427 -0.2165  0.3138
 6780TIP3    H141755   3.855   6.592  14.648  0.9340 -0.6096  1.5007
 6780TIP3    H241756   3.816   6.446  14.639 -1.3798  0.1185 -0.8248
 6781TIP3   OH241757   6.403   4.872  16.912 -0.1047  0.3507  0.2264
 6781TIP3    H141758   6.377   4.958  16.944 -1.8780 -0.0725 -0.0455
 6781TIP3    H241759   6.329   4.815  16.933  0.4004 -0.7773 -0.9661
 6782TIP3   OH241760   5.259   5.494  11.991  0.4262  0.2278  0.1091
 6782TIP3    H141761   5.260   5.540  11.907  1.1395  1.5290  0.8175
 6782TIP3    H241762   5.329   5.429  11.984  3.3869  3.1525  1.2070
 6783TIP3   OH241763   1.486   0.934   3.540 -0.0290 -0.1447  0.8112
 6783TIP3    H141764   1.499   0.863   3.604  2.8430  0.6045  1.0953
 6783TIP3    H241765   1.494   0.891   3.455  1.4280 -0.2481  0.9830
 6784TIP3   OH241766   6.040   4.341   3.072 -0.1176  0.6059  0.3803
 6784TIP3    H141767   5.995   4.257   3.063 -0.1938  0.6012  0.7721
 6784TIP3    H241768   6.132   4.318   3.085 -0.0369  0.6071 -0.2053
 6785TIP3   OH241769   3.037   1.569   6.470 -0.1050  0.1923  0.0996
 6785TIP3    H141770   3.088   1.619   6.534 -0.0008 -0.1441  0.2792
 6785TIP3    H241771   2.948   1.604   6.478  0.0022  0.4649  0.1061
 6786TIP3   OH241772   3.590   2.329  12.912 -0.6457  0.1548 -0.3036
 6786TIP3    H141773   3.665   2.380  12.881 -1.0184  1.5771  1.0837
 6786TIP3    H241774   3.604   2.319  13.006 -1.5203 -0.7160 -0.2539
 6787TIP3   OH241775   4.192   1.658   4.573  0.7843  0.1695 -0.0149
 6787TIP3    H141776   4.287   1.646   4.574  0.8001  0.2618  2.2196
 6787TIP3    H241777   4.156   1.570   4.576  0.8341  0.1788  1.3194
 6788TIP3   OH241778   2.259   1.856   2.512  0.3497 -0.3326  0.1579
 6788TIP3    H141779   2.259   1.890   2.422 -1.0744  2.6810  1.2148
 6788TIP3    H241780   2.322   1.910   2.558 -1.6107  0.6588  1.7775
 6789TIP3   OH241781   0.367   2.537  14.282 -0.2669  0.2127  0.1931
 6789TIP3    H141782   0.338   2.482  14.209 -0.1768  0.1997  0.1678
 6789TIP3    H241783   0.390   2.475  14.351  2.1017  0.1206 -0.6486
 6790TIP3   OH241784   6.390   5.593   6.451  0.5580  0.1411  0.0493
 6790TIP3    H141785   6.440   5.673   6.463  0.0270  0.6615 -1.1228
 6790TIP3    H241786   6.419   5.536   6.522  1.9176  0.8722  0.1033
 6791TIP3   OH241787   6.577   6.570  15.371  0.3783  0.0470 -0.1911
 6791TIP3    H141788   6.548   6.555  15.461  3.1929 -2.0790  0.3985
 6791TIP3    H241789   6.655   6.625  15.380  0.4462  0.1545 -1.3797
 6792TIP3   OH241790   2.078   2.012   4.216 -0.2184 -0.5933  0.6926
 6792TIP3    H141791   2.064   2.030   4.123  0.7772  0.9597  0.8228
 6792TIP3    H241792   2.087   1.917   4.221  0.4165 -0.6385 -0.9138
 6793TIP3   OH241793   0.534   3.896   5.110  0.0093 -0.1095 -0.0492
 6793TIP3    H141794   0.514   3.803   5.119  3.3167 -0.9765 -0.7034
 6793TIP3    H241795   0.486   3.923   5.032 -1.6794 -1.0516  0.6482
 6794TIP3   OH241796   1.551   2.537   4.701  0.0143 -0.6852 -1.0625
 6794TIP3    H141797   1.542   2.445   4.725  1.3735  0.1011  2.7937
 6794TIP3    H241798   1.646   2.550   4.691  0.0558  0.8422  0.9525
 6795TIP3   OH241799   2.709   4.688  12.168 -0.0598  0.1378 -0.0819
 6795TIP3    H141800   2.661   4.634  12.231 -0.8424 -0.4493 -1.1685
 6795TIP3    H241801   2.801   4.667  12.184 -0.3692 -1.8233 -0.7395
 6796TIP3   OH241802   0.948   0.552  14.010  0.1361 -0.2401  0.2444
 6796TIP3    H141803   0.870   0.539  13.956  0.8073  0.4587 -0.8975
 6796TIP3    H241804   0.927   0.507  14.092 -1.2952 -0.4372 -0.2070
 6797TIP3   OH241805   5.821   5.807  11.302 -0.1532  0.0634 -0.2609
 6797TIP3    H141806   5.780   5.891  11.283  1.2343  0.7502 -0.2710
 6797TIP3    H241807   5.889   5.827  11.367 -0.4016 -1.1844  0.4093
 6798TIP3   OH241808   2.597   1.239  15.111  0.2319  0.4184  0.1948
 6798TIP3    H141809   2.614   1.215  15.202  0.2838  1.0865  0.3591
 6798TIP3    H241810   2.579   1.333  15.113 -2.0965  0.0087 -0.1689
 6799TIP3   OH241811   3.243   6.458   0.630 -0.5236 -0.2562 -0.0878
 6799TIP3    H141812   3.233   6.516   0.554  0.4714 -1.9831 -1.5769
 6799TIP3    H241813   3.277   6.514   0.699  2.0086  0.6361 -1.9865
 6800TIP3   OH241814   3.210   4.481  12.747 -0.1244 -0.2451 -0.0819
 6800TIP3    H141815   3.283   4.441  12.700 -2.2576 -2.4464 -1.6277
 6800TIP3    H241816   3.226   4.575  12.741  0.8443 -0.5583 -3.3025
 6801TIP3   OH241817   0.851   0.775  13.505 -0.1355  0.5630 -0.1119
 6801TIP3    H141818   0.885   0.848  13.557  0.9526 -0.6533  0.9238
 6801TIP3    H241819   0.913   0.704  13.520 -2.7086 -1.4836  1.1828
 6802TIP3   OH241820   5.179   4.676   2.429  0.3940 -0.1551  0.0321
 6802TIP3    H141821   5.241   4.743   2.400 -1.6671  0.8184 -2.3289
 6802TIP3    H241822   5.128   4.718   2.499  2.0738 -0.8134  1.6773
 6803TIP3   OH241823   0.525   3.660   2.337 -0.4427  0.7254 -0.5950
 6803TIP3    H141824   0.463   3.725   2.370 -0.1184  0.9360 -0.4013
 6803TIP3    H241825   0.567   3.703   2.262 -0.7559  0.4654 -0.9238
 6804TIP3   OH241826   5.614   3.536  15.512  0.2983  0.5905  0.3904
 6804TIP3    H141827   5.697   3.492  15.498  0.1441  0.4799 -0.1960
 6804TIP3    H241828   5.604   3.540  15.607  0.4625 -0.3503  0.4511
 6805TIP3   OH241829   3.830   4.321  14.016 -0.6266 -0.1355 -0.5044
 6805TIP3    H141830   3.782   4.302  13.936 -1.6291 -1.1283  0.3220
 6805TIP3    H241831   3.794   4.405  14.046 -2.3789 -1.2322  0.5013
 6806TIP3   OH241832   5.447   3.644   3.678 -0.9452  0.0883 -0.4980
 6806TIP3    H141833   5.402   3.700   3.742 -0.6827 -2.8965  2.4576
 6806TIP3    H241834   5.540   3.658   3.696 -0.8804 -2.2139  1.2200
 6807TIP3   OH241835   4.058   6.297   1.706  0.7404  0.0904 -1.0682
 6807TIP3    H141836   4.058   6.357   1.631 -0.0225  0.8756 -0.4426
 6807TIP3    H241837   3.983   6.240   1.692  0.1387  0.7435 -0.4959
 6808TIP3   OH241838   1.989   5.184   2.077  0.4575 -0.4181  0.2490
 6808TIP3    H141839   1.985   5.263   2.130  0.5544  0.5620 -1.1700
 6808TIP3    H241840   2.069   5.140   2.106  0.3164 -0.0888  1.1588
 6809TIP3   OH241841   6.638   1.056  16.080 -0.2369  0.0074 -0.4023
 6809TIP3    H141842   6.688   1.125  16.037  0.3391  0.4324  0.9086
 6809TIP3    H241843   6.652   0.978  16.026 -0.2473  0.7270 -1.4574
 6810TIP3   OH241844   6.422   3.881   1.242  0.0540  0.1594 -0.5977
 6810TIP3    H141845   6.339   3.857   1.283 -0.4209  1.5793 -0.7011
 6810TIP3    H241846   6.476   3.912   1.314 -0.1597  0.9762 -0.7812
 6811TIP3   OH241847   6.131   0.710   1.935  0.0223  0.7687 -0.5576
 6811TIP3    H141848   6.166   0.670   1.855 -1.5543  2.5593 -2.2180
 6811TIP3    H241849   6.085   0.639   1.979  2.0771 -0.5763 -0.5124
 6812TIP3   OH241850   6.780   4.648  13.900 -0.0513 -0.2926 -0.0439
 6812TIP3    H141851   6.819   4.630  13.815 -0.6042  0.1360 -0.3906
 6812TIP3    H241852   6.852   4.641  13.962  0.0814 -1.9402 -0.3838
 6813TIP3   OH241853   0.370   0.001  10.863  0.1533 -0.0383 -0.5599
 6813TIP3    H141854   0.443   0.047  10.905  0.4837 -0.1945 -0.9534
 6813TIP3    H241855   0.400  -0.014  10.773  0.0738 -1.0606 -0.4294
 6814TIP3   OH241856   6.105   3.150   5.904  0.1663  0.0532  0.1835
 6814TIP3    H141857   6.178   3.212   5.907 -0.8596  1.3579 -0.8399
 6814TIP3    H241858   6.129   3.089   5.834  0.3272  0.4123 -0.0777
 6815TIP3   OH241859   2.194   0.384   1.312  0.1252  0.0452  0.0398
 6815TIP3    H141860   2.279   0.343   1.322 -0.7490 -1.0789  3.3429
 6815TIP3    H241861   2.159   0.346   1.231  2.3209 -0.1573 -0.8542
 6816TIP3   OH241862   1.567   5.043   6.273 -0.2286 -0.1791 -0.0432
 6816TIP3    H141863   1.563   4.996   6.189  1.7365  1.3213 -1.0212
 6816TIP3    H241864   1.509   5.118   6.261 -0.5540 -0.3858  0.2310
 6817TIP3   OH241865   1.224   0.247  12.586 -0.1763  0.1631  0.0207
 6817TIP3    H141866   1.156   0.251  12.520 -0.8087  0.5551  0.6912
 6817TIP3    H241867   1.253   0.156  12.585 -0.4290  0.0852 -0.5356
 6818TIP3   OH241868   1.783   5.188  17.057  0.2888  0.7854 -0.2989
 6818TIP3    H141869   1.691   5.195  17.084  0.2017 -0.3345 -0.2719
 6818TIP3    H241870   1.808   5.099  17.084  1.2690  0.9642 -0.6294
 6819TIP3   OH241871   5.818   6.727  14.980 -0.0671 -0.3638 -0.2727
 6819TIP3    H141872   5.890   6.788  14.999 -0.7501  0.9915 -1.8903
 6819TIP3    H241873   5.767   6.724  15.060  0.2824  0.7765  0.0006
 6820TIP3   OH241874   4.931   1.802   2.795 -0.1670 -0.0193 -0.1525
 6820TIP3    H141875   4.840   1.806   2.764  0.2017  0.1578 -1.2527
 6820TIP3    H241876   4.924   1.789   2.889 -1.3345 -0.9094 -0.3475
 6821TIP3   OH241877   3.112   2.607   5.487 -0.5855  0.0542 -0.5620
 6821TIP3    H141878   3.048   2.647   5.428  0.5363  2.4753 -0.1976
 6821TIP3    H241879   3.177   2.568   5.429 -1.3490 -0.7057 -0.9211
 6822TIP3   OH241880   5.742   1.928  13.391  0.1422  0.5723  0.6211
 6822TIP3    H141881   5.688   2.005  13.377  0.1287  0.6444  1.0477
 6822TIP3    H241882   5.688   1.869  13.444 -0.2539 -0.1943 -0.6270
 6823TIP3   OH241883   5.532   2.104   6.179  0.0650  0.3271 -0.4306
 6823TIP3    H141884   5.607   2.126   6.234  0.1255  0.7748 -0.6903
 6823TIP3    H241885   5.551   2.145   6.095 -0.3581  0.2353 -0.5722
 6824TIP3   OH241886   4.123   0.426   0.809 -0.5664  0.3352  0.1070
 6824TIP3    H141887   4.034   0.458   0.803 -0.7170 -0.0827  0.0811
 6824TIP3    H241888   4.177   0.505   0.813 -1.0381  0.5969  1.6168
 6825TIP3   OH241889   5.530   2.784   5.996 -0.3535 -0.1285  0.3084
 6825TIP3    H141890   5.525   2.690   5.984 -0.6706 -0.1536  0.6415
 6825TIP3    H241891   5.592   2.796   6.068 -1.4765 -0.1526  1.2883
 6826TIP3   OH241892   6.692   6.655   4.439 -0.7279  0.1036 -0.1994
 6826TIP3    H141893   6.633   6.655   4.363 -0.8098 -0.1381 -0.1357
 6826TIP3    H241894   6.699   6.562   4.464  1.6955 -0.1981 -1.7858
 6827TIP3   OH241895   4.534   1.806   0.674 -0.2449 -0.1775 -0.0340
 6827TIP3    H141896   4.526   1.803   0.578  0.9808 -1.7832 -0.1112
 6827TIP3    H241897   4.609   1.751   0.693 -1.7083 -1.5466  1.9940
 6828TIP3   OH241898   3.303   5.771  16.515 -0.3005  0.5384  0.0453
 6828TIP3    H141899   3.365   5.733  16.577 -1.1852  2.6910  2.3465
 6828TIP3    H241900   3.249   5.698  16.487 -0.9021 -0.2423  3.0710
 6829TIP3   OH241901   6.123   0.233   1.199 -0.4431  0.2247  0.1058
 6829TIP3    H141902   6.078   0.164   1.248  0.4739 -0.2602  0.2729
 6829TIP3    H241903   6.197   0.257   1.255 -0.1889  0.6381 -0.4147
 6830TIP3   OH241904   0.835   2.768  11.724  0.0209  0.1198  0.3773
 6830TIP3    H141905   0.795   2.847  11.760 -0.5872  0.1762 -0.4074
 6830TIP3    H241906   0.806   2.698  11.782 -0.1673  0.3442  0.5569
 6831TIP3   OH241907   4.913   2.356   3.242 -0.0044 -0.3142  0.1111
 6831TIP3    H141908   5.008   2.353   3.251  0.0802  0.6046 -0.4389
 6831TIP3    H241909   4.884   2.267   3.262  0.7787 -0.0919  2.3504
 6832TIP3   OH241910   3.605   4.034   5.053  0.4023  0.0572 -0.1901
 6832TIP3    H141911   3.677   4.096   5.056  0.5308  0.0019 -1.6990
 6832TIP3    H241912   3.544   4.064   5.120  0.4240  1.8806 -0.9627
 6833TIP3   OH241913   5.860   5.011  16.326  0.9617  0.4830  0.2851
 6833TIP3    H141914   5.876   5.023  16.419 -0.0669  0.5690  0.4582
 6833TIP3    H241915   5.766   5.024  16.315  0.5799 -2.2970 -0.3148
 6834TIP3   OH241916   6.726   3.943   3.308  0.0837 -0.2821  0.5113
 6834TIP3    H141917   6.664   3.894   3.362 -0.2158 -0.8642 -0.3577
 6834TIP3    H241918   6.699   4.034   3.318 -1.3731 -0.6041 -0.4500
 6835TIP3   OH241919   3.095   0.248   0.739  0.7908  0.0731  0.2228
 6835TIP3    H141920   3.064   0.158   0.730  1.8155 -0.3515  0.8180
 6835TIP3    H241921   3.182   0.248   0.698  0.4539  0.9974 -0.5257
 6836TIP3   OH241922   6.296   2.354  14.612  0.3205 -0.8622  0.0408
 6836TIP3    H141923   6.335   2.271  14.585  1.7655  0.1310 -0.9583
 6836TIP3    H241924   6.369   2.407  14.643 -0.7887 -0.4806  2.0955
 6837TIP3   OH241925   4.261   3.924   1.228 -0.4828  0.0131 -0.3101
 6837TIP3    H141926   4.317   3.948   1.302  0.4157 -0.9652 -0.6632
 6837TIP3    H241927   4.286   3.986   1.159 -0.3811  0.0626 -0.2298
 6838TIP3   OH241928   3.461   2.669   0.383  0.7769  0.0415  0.0589
 6838TIP3    H141929   3.490   2.578   0.382  0.8178  0.0393  1.1759
 6838TIP3    H241930   3.392   2.672   0.449  0.5977  0.7608 -0.1532
 6839TIP3   OH241931   1.069   6.047  15.838 -0.4573 -0.2633  0.5290
 6839TIP3    H141932   1.162   6.071  15.836 -0.5277 -0.0640 -1.0901
 6839TIP3    H241933   1.070   5.951  15.833 -0.3381 -0.2589  0.4416
 6840TIP3   OH241934   3.887   1.160  17.072 -0.0060 -0.0510  0.7474
 6840TIP3    H141935   3.932   1.084  17.036  1.5461  1.2852 -0.2328
 6840TIP3    H241936   3.865   1.213  16.995 -0.2295  0.9385  1.4757
 6841TIP3   OH241937   1.033   4.308  13.528 -0.1719  0.2411  0.0218
 6841TIP3    H141938   1.002   4.389  13.568 -1.5259 -1.4209  2.4597
 6841TIP3    H241939   1.119   4.330  13.492 -0.7925  2.9055  0.0496
 6842TIP3   OH241940   1.238   4.421  16.345 -0.0547  0.2468 -0.4318
 6842TIP3    H141941   1.224   4.469  16.427 -0.4038  0.0373 -0.3635
 6842TIP3    H241942   1.273   4.336  16.373 -1.0161 -0.1587 -0.4344
 6843TIP3   OH241943   4.310   0.290   4.372 -0.2664 -0.1646 -0.0876
 6843TIP3    H141944   4.267   0.364   4.412 -4.0225 -0.9698 -2.3899
 6843TIP3    H241945   4.317   0.313   4.279  3.1348 -0.6226 -0.0138
 6844TIP3   OH241946   5.232   3.787   4.598  0.0558  0.1580  0.0849
 6844TIP3    H141947   5.273   3.791   4.512  0.9159 -0.3714  0.4669
 6844TIP3    H241948   5.289   3.839   4.654  0.3798 -0.8290  0.6855
 6845TIP3   OH241949   1.298   3.281  16.713  0.0411  0.1613  0.8109
 6845TIP3    H141950   1.298   3.364  16.759 -2.8584  1.0495 -0.6937
 6845TIP3    H241951   1.299   3.304  16.620 -0.0655 -1.4726  0.3774
 6846TIP3   OH241952   1.919   1.769  16.327  0.0138 -0.0189 -0.5393
 6846TIP3    H141953   1.889   1.728  16.246 -0.4238  1.3806 -1.1042
 6846TIP3    H241954   1.983   1.834  16.299 -1.2025  1.4806  0.1043
 6847TIP3   OH241955   0.472   6.435  14.396 -0.1495  0.0407 -0.3213
 6847TIP3    H141956   0.388   6.481  14.396 -0.5425 -0.5920  2.9086
 6847TIP3    H241957   0.451   6.345  14.420  1.6197  0.3246  2.5287
 6848TIP3   OH241958   3.732   5.685   2.663  0.0258 -0.2921 -0.3959
 6848TIP3    H141959   3.710   5.659   2.573  2.3261  1.6795 -1.5720
 6848TIP3    H241960   3.808   5.632   2.685  0.8150  0.8040 -0.4449
 6849TIP3   OH241961   2.626   1.728  11.892 -0.0703 -0.3076 -0.0770
 6849TIP3    H141962   2.702   1.754  11.840  0.7522 -0.3612  1.0811
 6849TIP3    H241963   2.567   1.804  11.887  1.3868  0.9683  1.5043
 6850TIP3   OH241964   4.540   2.766   0.152 -0.5220 -0.3543 -0.2686
 6850TIP3    H141965   4.450   2.747   0.176 -0.3275 -0.1976  0.6074
 6850TIP3    H241966   4.538   2.855   0.117 -0.3652  0.4160  1.6782
 6851TIP3   OH241967   1.424   4.140   4.346  0.2933 -0.5469  0.4766
 6851TIP3    H141968   1.388   4.052   4.331 -2.9823  0.9082 -0.6974
 6851TIP3    H241969   1.439   4.175   4.258  0.3306  0.5509  0.9131
 6852TIP3   OH241970   1.396   0.231  12.984  0.0006 -0.0065  0.0354
 6852TIP3    H141971   1.454   0.165  13.022 -0.0828  0.3374  0.7770
 6852TIP3    H241972   1.310   0.188  12.979  0.1827 -0.3125 -0.4961
 6853TIP3   OH241973   4.554   5.917  15.459 -0.3727 -0.3804 -0.2598
 6853TIP3    H141974   4.631   5.962  15.424 -0.4744 -0.2452 -0.3116
 6853TIP3    H241975   4.512   5.983  15.515 -0.4223 -0.4706 -0.1920
 6854TIP3   OH241976   3.867   1.436   6.250  0.4919 -0.2145 -0.1092
 6854TIP3    H141977   3.922   1.418   6.174 -1.1800  0.0096 -1.4080
 6854TIP3    H241978   3.864   1.531   6.257  1.4788 -0.2438  0.8844
 6855TIP3   OH241979   6.746   5.450   4.302  0.1111  0.1231 -0.4408
 6855TIP3    H141980   6.672   5.487   4.352  1.0216 -1.1897  1.9793
 6855TIP3    H241981   6.809   5.522   4.297  0.9175 -0.3264  2.2554
 6856TIP3   OH241982   0.051   4.516  14.664  0.1644  0.3144  0.1807
 6856TIP3    H141983   0.116   4.570  14.707  0.3913 -1.1371  1.6927
 6856TIP3    H241984   0.040   4.440  14.721 -2.6559  0.3858 -0.1721
 6857TIP3   OH241985   2.826   4.207   4.280 -0.2484 -0.3360  0.1504
 6857TIP3    H141986   2.881   4.158   4.219 -0.7481 -0.3655 -0.2762
 6857TIP3    H241987   2.741   4.213   4.237  0.3128  2.5819 -0.7171
 6858TIP3   OH241988   1.005   3.091   0.064 -0.1140 -0.1772 -0.5574
 6858TIP3    H141989   0.940   3.160   0.069  0.1082  0.0183 -0.3429
 6858TIP3    H241990   0.985   3.034   0.139 -0.9342 -0.9107 -1.3255
 6859TIP3   OH241991   4.809   1.668   4.678  0.5380  0.4785  0.4765
 6859TIP3    H141992   4.759   1.674   4.759 -0.6916 -1.6516 -0.0955
 6859TIP3    H241993   4.805   1.576   4.653  3.6967  0.4903 -0.2786
 6860TIP3   OH241994   1.276   6.586  15.068  0.1707  0.1645 -0.2822
 6860TIP3    H141995   1.199   6.562  15.017  0.7553 -2.3744 -0.0064
 6860TIP3    H241996   1.245   6.657  15.125 -1.7270 -0.2195 -0.8076
 6861TIP3   OH241997   0.618   5.239  17.023  0.8621  0.3066 -0.3157
 6861TIP3    H141998   0.654   5.186  16.952 -1.2587 -0.9338 -0.5086
 6861TIP3    H241999   0.544   5.285  16.984 -0.1527 -0.1686  1.0096
 6862TIP3   OH242000   0.370   4.485  16.723 -0.3875  0.0501 -0.3062
 6862TIP3    H142001   0.348   4.564  16.674 -0.1456  0.6090  0.4820
 6862TIP3    H242002   0.437   4.513  16.785  0.7737 -1.1045 -1.0253
 6863TIP3   OH242003   6.483   3.481  17.139  0.5966  0.5179  0.3142
 6863TIP3    H142004   6.433   3.463  17.219  1.8969 -3.1748  0.4148
 6863TIP3    H242005   6.569   3.444  17.157  0.6157 -1.2466 -3.1305
 6864TIP3   OH242006   2.030   0.854   2.449 -0.0402  1.1534  0.6262
 6864TIP3    H142007   1.934   0.861   2.442 -0.1650 -0.0650  0.9745
 6864TIP3    H242008   2.061   0.942   2.432 -1.2757  1.7313  1.2640
 6865TIP3   OH242009   6.494   0.242   2.415 -0.0732  0.4666 -0.1246
 6865TIP3    H142010   6.418   0.258   2.471  0.3149 -1.6538  1.0966
 6865TIP3    H242011   6.564   0.296   2.453 -0.4228  0.7902  0.0551
 6866TIP3   OH242012   4.177   0.122  11.619 -0.1176 -0.4176 -1.0083
 6866TIP3    H142013   4.105   0.168  11.661  1.2183  1.6963 -0.9676
 6866TIP3    H242014   4.141   0.093  11.535 -1.2365 -0.0681 -0.6608
 6867TIP3   OH242015   2.857   4.269  12.936 -0.1232 -0.1447  0.0333
 6867TIP3    H142016   2.821   4.279  12.848 -1.1758 -0.0891  0.4612
 6867TIP3    H242017   2.807   4.197  12.975  1.3014 -1.1203  0.0972
 6868TIP3   OH242018   3.299   3.764   1.836 -0.5353  0.3833  0.2129
 6868TIP3    H142019   3.332   3.679   1.865 -1.0399  0.4272  0.9364
 6868TIP3    H242020   3.304   3.819   1.914 -2.2675  0.3999  0.3410
 6869TIP3   OH242021   3.191   2.427  14.612  0.0880 -0.1652 -0.6181
 6869TIP3    H142022   3.221   2.399  14.525 -1.9008 -0.9982 -1.0819
 6869TIP3    H242023   3.120   2.366  14.633 -1.2073  1.6536  0.4452
 6870TIP3   OH242024   1.213   5.189  13.227 -0.0623 -0.0631 -0.0507
 6870TIP3    H142025   1.135   5.233  13.194 -0.5709 -1.5498 -0.8412
 6870TIP3    H242026   1.272   5.261  13.252 -1.2899  1.0596 -0.3444
 6871TIP3   OH242027   3.820   3.169   0.040 -0.6277 -0.3173 -0.2133
 6871TIP3    H142028   3.742   3.186   0.092  0.4032  2.6664  0.4326
 6871TIP3    H242029   3.796   3.193  -0.050 -1.0842 -1.3891 -0.3797
 6872TIP3   OH242030   2.846   3.985  11.372  0.5235  0.0475 -0.4826
 6872TIP3    H142031   2.899   4.021  11.443 -1.0519  0.0551  0.7190
 6872TIP3    H242032   2.910   3.950  11.310  2.0040  2.2500 -0.2723
 6873TIP3   OH242033   5.915   3.538   4.201 -0.0631  0.7711 -0.2709
 6873TIP3    H142034   6.003   3.539   4.164 -0.0721  1.7052 -0.2850
 6873TIP3    H242035   5.857   3.559   4.127 -0.0716  2.7478  0.2558
 6874TIP3   OH242036   2.448   3.770   2.993  0.4162 -0.5894 -0.6212
 6874TIP3    H142037   2.411   3.755   3.080  1.3548 -2.8676 -0.5875
 6874TIP3    H242038   2.411   3.854   2.966 -2.2826 -1.2642  0.7323
 6875TIP3   OH242039   4.262   3.796   2.767  0.5494  0.6075  0.9016
 6875TIP3    H142040   4.283   3.884   2.799  0.5211  1.0382 -0.2379
 6875TIP3    H242041   4.173   3.780   2.799  0.1870  1.3896  0.3160
 6876TIP3   OH242042   0.808   0.437  13.446  0.1493 -0.4307 -0.8072
 6876TIP3    H142043   0.721   0.463  13.415 -0.5438 -0.2273  1.2344
 6876TIP3    H242044   0.791   0.385  13.524  1.8887  0.2082  0.0292
 6877TIP3   OH242045   4.926   4.679   2.021  0.3427 -0.2468  0.3235
 6877TIP3    H142046   4.919   4.619   2.096  0.1969 -1.0587 -0.3287
 6877TIP3    H242047   4.884   4.632   1.949  1.0825  0.2395 -0.4351
 6878TIP3   OH242048   4.890   0.988  15.560 -0.6571 -0.0920 -0.1685
 6878TIP3    H142049   4.898   1.084  15.555  0.6513 -0.1840  0.0967
 6878TIP3    H242050   4.949   0.956  15.492  1.6680 -0.7962  2.1036
 6879TIP3   OH242051   6.297   2.983   5.377  0.2661  0.3581 -0.3487
 6879TIP3    H142052   6.258   3.064   5.345  1.6017  0.8889 -0.7052
 6879TIP3    H242053   6.248   2.961   5.455  0.7685  2.2814  0.5496
 6880TIP3   OH242054   0.195   3.486   4.323  0.7117  0.0587  0.0341
 6880TIP3    H142055   0.169   3.459   4.411 -1.1590  0.7206 -0.3081
 6880TIP3    H242056   0.240   3.410   4.287  1.4844 -0.2346  1.5351
 6881TIP3   OH242057   6.637   0.681   0.178  0.5234  0.0599  0.3383
 6881TIP3    H142058   6.633   0.755   0.118 -0.8227 -2.4979 -2.8422
 6881TIP3    H242059   6.569   0.701   0.244  0.7991  2.0378  0.0596
 6882TIP3   OH242060   2.161   3.485   5.955 -0.4250 -0.0861  0.2488
 6882TIP3    H142061   2.191   3.469   6.044  0.6880 -0.0376 -0.1014
 6882TIP3    H242062   2.209   3.422   5.902 -0.9049  0.0418 -0.3434
 6883TIP3   OH242063   3.952   3.381   5.495 -0.0553 -0.1666 -0.3214
 6883TIP3    H142064   3.861   3.362   5.476  0.5754 -1.2930 -2.2919
 6883TIP3    H242065   3.980   3.311   5.555 -0.7406  0.7479  1.0926
 6884TIP3   OH242066   5.222   1.834   3.035  0.2711 -0.2846 -0.6953
 6884TIP3    H142067   5.215   1.753   3.084  5.0101  0.1267  0.9718
 6884TIP3    H242068   5.171   1.898   3.085  0.6576 -1.0977  0.7570
 6885TIP3   OH242069   3.072   1.831  17.090  0.2481 -0.0620  0.1090
 6885TIP3    H142070   2.978   1.843  17.100  0.4429  0.2221  1.6898
 6885TIP3    H242071   3.080   1.754  17.034 -0.9163  0.8321 -1.3525
 6886TIP3   OH242072   5.913   3.964   1.914 -0.2268 -0.3783  0.4431
 6886TIP3    H142073   5.882   3.993   2.000  2.9937 -1.0156  1.8914
 6886TIP3    H242074   5.937   3.872   1.927  0.0860 -0.5433 -1.1945
 6887TIP3   OH242075   3.065   1.506  15.805  0.2282 -0.5628  0.1431
 6887TIP3    H142076   2.972   1.503  15.782  0.5799 -0.3581 -1.2882
 6887TIP3    H242077   3.073   1.442  15.876 -0.6913 -1.8202 -0.8653
 6888TIP3   OH242078   2.669   3.098   4.357 -0.4604  0.1846 -0.3958
 6888TIP3    H142079   2.756   3.089   4.396 -0.5014 -0.0989 -0.3681
 6888TIP3    H242080   2.613   3.040   4.409 -0.2434 -1.2473 -1.6941
 6889TIP3   OH242081   2.116   4.868   4.494 -0.1272  0.4487  0.1877
 6889TIP3    H142082   2.146   4.882   4.584 -1.0952 -1.1052  0.7762
 6889TIP3    H242083   2.195   4.871   4.441  0.7055 -0.7423  1.3578
 6890TIP3   OH242084   0.461   5.639  13.966 -0.2237 -0.0014 -0.1590
 6890TIP3    H142085   0.462   5.712  14.028  0.4053 -0.0440 -0.1199
 6890TIP3    H242086   0.524   5.663  13.898 -0.2142 -0.3854 -0.2894
 6891TIP3   OH242087   1.679   6.008   3.699 -0.5986 -0.3208 -0.2626
 6891TIP3    H142088   1.587   6.029   3.680 -0.5126  1.3228  1.0009
 6891TIP3    H242089   1.693   6.043   3.787  1.3296 -0.2780 -0.5794
 6892TIP3   OH242090   4.584   4.521   2.489  0.1967  0.0918  0.5615
 6892TIP3    H142091   4.494   4.551   2.484 -0.1265 -0.8434  0.7146
 6892TIP3    H242092   4.631   4.574   2.424 -0.2861  1.1675  1.0796
 6893TIP3   OH242093   0.069   6.337   3.569  0.0516  0.0720 -0.4745
 6893TIP3    H142094   0.054   6.383   3.486  0.3138  0.5571 -0.2492
 6893TIP3    H242095   0.015   6.384   3.633  0.2148 -0.0205 -0.2698
 6894TIP3   OH242096   5.832   6.450  13.648  0.1472 -0.4269 -0.4593
 6894TIP3    H142097   5.763   6.495  13.599  0.0067  0.2116  0.3060
 6894TIP3    H242098   5.912   6.496  13.624  0.2231 -0.8022 -0.9153
 6895TIP3   OH242099   2.984   0.288   4.246  0.0569  0.0405  0.1500
 6895TIP3    H142100   3.067   0.280   4.292 -0.3165  0.0490  0.8363
 6895TIP3    H242101   2.996   0.239   4.165  0.7080 -0.0132  0.2784
 6896TIP3   OH242102   3.794   4.729   5.416 -0.1500  0.4328  0.6984
 6896TIP3    H142103   3.855   4.800   5.396 -0.2377  0.7419  1.4886
 6896TIP3    H242104   3.849   4.651   5.423  0.1737  0.7371  1.5609
 6897TIP3   OH242105   1.242   4.766   3.156  0.7001  0.7868 -0.3716
 6897TIP3    H142106   1.304   4.715   3.105  1.3668  0.9386  0.2774
 6897TIP3    H242107   1.296   4.830   3.203  0.4144 -1.1083  2.6246
 6898TIP3   OH242108   5.507   5.391  14.961  0.1773  0.0323  0.1755
 6898TIP3    H142109   5.540   5.400  15.050  1.4829 -2.9610  0.0604
 6898TIP3    H242110   5.427   5.339  14.970 -1.2962  2.1927 -0.1362
 6899TIP3   OH242111   6.306   1.225   0.870  0.3035 -0.1470 -0.0634
 6899TIP3    H142112   6.343   1.270   0.793  1.3382  0.9891  1.0549
 6899TIP3    H242113   6.256   1.293   0.915  2.3617  0.0926  1.9638
 6900TIP3   OH242114   4.352   6.467   1.400 -0.0050  0.2627 -0.1783
 6900TIP3    H142115   4.340   6.459   1.305 -1.0088 -0.6575  0.0264
 6900TIP3    H242116   4.421   6.405   1.421  0.7462  1.0000 -0.4015
 6901TIP3   OH242117   3.435   0.977  11.245  0.3782 -0.4585 -0.5172
 6901TIP3    H142118   3.441   1.040  11.173  0.6640  0.4766  0.3180
 6901TIP3    H242119   3.379   0.907  11.210 -0.1807  0.3883 -1.3592
 6902TIP3   OH242120   2.885   5.823  14.677 -0.8984 -0.1458 -0.0377
 6902TIP3    H142121   2.818   5.889  14.693 -0.2555  0.4331  0.3032
 6902TIP3    H242122   2.944   5.830  14.752 -0.3914 -0.5722 -0.3895
 6903TIP3   OH242123   2.383   5.227   0.111 -0.6215  0.9297  0.7754
 6903TIP3    H142124   2.324   5.174   0.058 -1.1008  1.4279  0.8118
 6903TIP3    H242125   2.345   5.227   0.199 -0.4229  1.0229  0.8638
 6904TIP3   OH242126   4.601   6.669   4.238 -0.3488 -0.1923 -0.1043
 6904TIP3    H142127   4.680   6.626   4.206 -1.0574 -0.5151 -1.4114
 6904TIP3    H242128   4.560   6.605   4.296  0.2964 -0.0533  0.5127
 6905TIP3   OH242129   0.899   4.640   3.903 -0.6494  0.0872  0.8003
 6905TIP3    H142130   0.922   4.610   3.991  1.3057 -1.6338 -0.2604
 6905TIP3    H242131   0.804   4.631   3.898 -0.5257 -2.0342  1.9437
 6906TIP3   OH242132   0.250   2.208  16.147  0.4068  0.1730  0.5488
 6906TIP3    H142133   0.264   2.302  16.138  0.1902 -0.0184 -2.2494
 6906TIP3    H242134   0.208   2.198  16.232 -0.0318  2.6614  0.6623
 6907TIP3   OH242135   2.099   4.319   2.234  0.3247  0.3210  0.2933
 6907TIP3    H142136   2.022   4.373   2.218  0.1797  0.1747  0.4874
 6907TIP3    H242137   2.142   4.312   2.149 -2.0283 -2.8703 -0.7280
 6908TIP3   OH242138   5.315   3.389  14.623  0.2539  0.1178  0.0697
 6908TIP3    H142139   5.409   3.382  14.640  0.1796  0.6939  0.7544
 6908TIP3    H242140   5.295   3.313  14.569  1.1321  0.0319 -0.1550
 6909TIP3   OH242141   6.624   6.034  12.036 -0.2004 -0.5391 -0.0984
 6909TIP3    H142142   6.666   5.961  12.080 -0.2657  0.3659  1.5023
 6909TIP3    H242143   6.533   6.032  12.066 -0.3660 -0.1962 -0.5557
 6910TIP3   OH242144   4.324   1.805   0.848 -0.1544  0.4407  0.6817
 6910TIP3    H142145   4.402   1.805   0.791 -0.5441 -0.5946  0.1340
 6910TIP3    H242146   4.300   1.897   0.855 -0.3347  0.5483 -1.1703
 6911TIP3   OH242147   2.404   1.325  16.461  0.7096  0.2294  0.7488
 6911TIP3    H142148   2.450   1.408  16.449  0.3236  0.2314 -0.8898
 6911TIP3    H242149   2.362   1.309  16.376  0.8548 -1.6761  1.0095
 6912TIP3   OH242150   5.430   6.274  15.032 -0.1380  0.7403  0.4027
 6912TIP3    H142151   5.461   6.206  15.091  1.1214  0.1145 -0.9506
 6912TIP3    H242152   5.478   6.353  15.059 -0.4295  0.7351  0.9484
 6913TIP3   OH242153   3.415   5.387  15.913  0.9284 -0.0275  0.1868
 6913TIP3    H142154   3.446   5.347  15.832  1.4907 -1.4253  1.0661
 6913TIP3    H242155   3.330   5.347  15.930  0.1666  1.3060 -0.4440
 6914TIP3   OH242156   0.180   1.829  12.199  0.3343 -1.0695 -0.6648
 6914TIP3    H142157   0.138   1.776  12.131  1.3066 -1.5388 -0.8988
 6914TIP3    H242158   0.206   1.766  12.266  0.7312 -0.7875 -0.5492
 6915TIP3   OH242159   1.345   1.240   2.171  1.4743 -0.3159 -0.2976
 6915TIP3    H142160   1.423   1.188   2.155  1.6295 -0.1002 -0.2361
 6915TIP3    H242161   1.366   1.328   2.139  1.4155 -0.1445  0.1219
 6916TIP3   OH242162   1.309   2.737  12.432  0.0288  0.6003  0.0491
 6916TIP3    H142163   1.324   2.764  12.342 -0.0616 -0.4994 -0.3031
 6916TIP3    H242164   1.222   2.771  12.453 -0.1260  0.4987 -0.4185
 6917TIP3   OH242165   0.317   5.560   4.963  0.2293  0.2542 -0.1889
 6917TIP3    H142166   0.369   5.637   4.987  0.5677 -0.0297  0.0025
 6917TIP3    H242167   0.377   5.505   4.913  0.3527 -0.4240  0.6772
 6918TIP3   OH242168   0.710   0.943   1.108  0.7459 -0.1831 -0.1425
 6918TIP3    H142169   0.671   0.881   1.170  0.5893 -0.5318 -0.5882
 6918TIP3    H242170   0.711   1.026   1.155 -1.5286  0.0772 -0.5209
 6919TIP3   OH242171   0.531   0.411   2.586 -0.7159 -0.5107 -0.1480
 6919TIP3    H142172   0.506   0.470   2.657  3.3504 -0.1320  1.1521
 6919TIP3    H242173   0.464   0.422   2.519 -3.5648  0.6421  2.7883
 6920TIP3   OH242174   6.403   4.594   0.596 -0.3399 -0.9085 -0.3359
 6920TIP3    H142175   6.423   4.677   0.552 -0.6536 -0.6434  0.0125
 6920TIP3    H242176   6.318   4.610   0.639 -0.3256 -1.3586 -0.1383
 6921TIP3   OH242177   1.114   0.888   5.442 -0.2752 -0.5366  0.3354
 6921TIP3    H142178   1.064   0.810   5.466 -2.7105  1.5070  2.2779
 6921TIP3    H242179   1.187   0.890   5.505 -0.2935 -1.1433  0.3770
 6922TIP3   OH242180   6.109   0.306  15.290  1.0161 -0.3936 -0.1614
 6922TIP3    H142181   6.050   0.261  15.351 -0.5508  0.4024 -1.0728
 6922TIP3    H242182   6.171   0.352  15.347 -0.5141  0.4478  0.8625
 6923TIP3   OH242183   0.304   3.582   3.764  0.2946  0.3020  0.0130
 6923TIP3    H142184   0.349   3.521   3.705  0.9862  1.2933 -0.4895
 6923TIP3    H242185   0.211   3.570   3.744  0.4408 -0.3578 -0.2967
 6924TIP3   OH242186   4.516   3.648   3.775  0.1754  0.0430  0.5430
 6924TIP3    H142187   4.536   3.635   3.682  0.4973 -0.0020  0.6195
 6924TIP3    H242188   4.451   3.581   3.795  0.1526  0.0122  0.3667
 6925TIP3   OH242189   5.305   4.044   5.839  0.9314  0.1522 -0.7049
 6925TIP3    H142190   5.258   3.962   5.825 -2.2786  1.6739  0.8031
 6925TIP3    H242191   5.392   4.017   5.870 -0.9461 -2.6590  2.3768
 6926TIP3   OH242192   4.740   5.520  10.331 -0.6043  0.2259  0.3734
 6926TIP3    H142193   4.658   5.493  10.289  0.0466 -1.2443 -0.0071
 6926TIP3    H242194   4.785   5.437  10.349  0.0508  0.9449  2.0946
 6927TIP3   OH242195   2.585   1.629   1.367 -0.0978 -0.0965 -0.1609
 6927TIP3    H142196   2.523   1.701   1.382  0.2931  0.2599 -0.2387
 6927TIP3    H242197   2.534   1.562   1.322  0.0476  0.9609 -1.9356
 6928TIP3   OH242198   1.011   4.661  11.867 -0.3510  0.2118  0.4386
 6928TIP3    H142199   1.100   4.630  11.850 -1.3670 -1.9930 -1.0103
 6928TIP3    H242200   0.993   4.722  11.795  0.8679  2.6478  2.1238
 6929TIP3   OH242201   0.462   3.747   3.239  0.3926  0.1360 -0.3169
 6929TIP3    H142202   0.394   3.809   3.263 -0.6750 -1.3243  0.5098
 6929TIP3    H242203   0.540   3.778   3.285 -0.7963 -0.6591  2.3224
 6930TIP3   OH242204   6.422   6.020  14.097 -0.2731  0.4933 -0.0691
 6930TIP3    H142205   6.426   6.047  14.189  0.3071  0.4412 -0.0779
 6930TIP3    H242206   6.410   5.925  14.101 -1.3773  0.6310 -0.0437
 6931TIP3   OH242207   1.366   3.729   4.512  0.4264 -0.8513  0.6964
 6931TIP3    H142208   1.372   3.646   4.465  0.3684 -0.0627 -0.7221
 6931TIP3    H242209   1.449   3.774   4.493  0.2099 -0.3261  0.9718
 6932TIP3   OH242210   1.261   0.341  16.276 -0.1191 -0.6386 -0.1572
 6932TIP3    H142211   1.165   0.347  16.271 -0.3461  1.4268  3.8326
 6932TIP3    H242212   1.277   0.295  16.359  2.2956  1.3501  0.5403
 6933TIP3   OH242213   3.040   5.004   5.493 -0.4322  0.4338 -0.3292
 6933TIP3    H142214   2.976   5.001   5.421  0.2723  0.7692 -0.9776
 6933TIP3    H242215   3.107   4.941   5.467 -0.8550 -0.4389  0.6936
 6934TIP3   OH242216   4.283   5.093   4.354  0.0616 -0.6390 -0.1555
 6934TIP3    H142217   4.298   5.132   4.440  0.2505  0.1834 -0.5566
 6934TIP3    H242218   4.324   5.154   4.293 -0.3378 -1.0674 -0.8509
 6935TIP3   OH242219   3.589   3.320  13.052 -0.4398  0.2087  0.1834
 6935TIP3    H142220   3.508   3.370  13.036 -0.2058  0.0378 -1.6127
 6935TIP3    H242221   3.565   3.259  13.121 -0.7117  2.8542  2.5313
 6936TIP3   OH242222   4.881   3.435  11.597 -0.3228 -0.3051  0.4127
 6936TIP3    H142223   4.919   3.471  11.517  0.3872  0.0821  0.9186
 6936TIP3    H242224   4.923   3.484  11.668  0.0029 -1.5199  1.0696
 6937TIP3   OH242225   2.704   4.236  14.308  0.4662 -0.2995  0.1572
 6937TIP3    H142226   2.675   4.149  14.280  0.3993  0.7222 -3.2077
 6937TIP3    H242227   2.631   4.294  14.286  0.3430  0.5821  2.7519
 6938TIP3   OH242228   0.098   1.245   0.511 -0.3622 -0.1816 -0.6734
 6938TIP3    H142229   0.152   1.324   0.519 -1.7829  0.7052  0.8144
 6938TIP3    H242230   0.139   1.182   0.570 -0.6506  0.3167  0.0693
 6939TIP3   OH242231   2.972   5.065  13.783 -0.1271 -0.2971  0.1304
 6939TIP3    H142232   2.915   5.142  13.795 -0.7132 -0.4815 -1.3532
 6939TIP3    H242233   2.993   5.065  13.690  2.4468 -0.1698  0.6699
 6940TIP3   OH242234   0.235   0.115  11.851  0.4659  0.4788  0.1423
 6940TIP3    H142235   0.167   0.178  11.828  0.1794 -0.0723 -0.5280
 6940TIP3    H242236   0.201   0.072  11.930  1.2676  2.0851  1.3960
 6941TIP3   OH242237   3.875   0.361  11.782 -0.4490 -0.1812  0.3290
 6941TIP3    H142238   3.815   0.330  11.713 -1.3484  0.2164  0.9263
 6941TIP3    H242239   3.916   0.281  11.815  3.1252 -0.1109 -3.4546
 6942TIP3   OH242240   5.119   4.430  14.480  0.3339 -0.2449  0.6242
 6942TIP3    H142241   5.070   4.512  14.483  0.4232 -0.1673 -0.0616
 6942TIP3    H242242   5.178   4.439  14.405 -0.3072 -1.3097 -0.0169
 6943TIP3   OH242243   3.317   2.988   1.765 -0.4157  0.0054 -0.8131
 6943TIP3    H142244   3.342   3.069   1.722  0.1155  1.4469  2.0949
 6943TIP3    H242245   3.235   3.008   1.810  0.0906 -0.8235  0.5292
 6944TIP3   OH242246   0.647   0.448  11.196  0.3130 -0.1712 -0.0890
 6944TIP3    H142247   0.741   0.463  11.205  0.5736 -1.6882 -0.1710
 6944TIP3    H242248   0.614   0.527  11.152  1.1854  1.3456  1.9126
 6945TIP3   OH242249   0.224   5.780   1.831 -0.1227  0.0426 -0.3217
 6945TIP3    H142250   0.299   5.740   1.875  0.2565  0.6059 -0.4583
 6945TIP3    H242251   0.256   5.803   1.744 -0.7047 -0.5194 -0.6956
 6946TIP3   OH242252   1.411   0.841  13.240  0.4004 -0.3088 -0.0189
 6946TIP3    H142253   1.498   0.801  13.233  1.5004  1.9144  0.4050
 6946TIP3    H242254   1.365   0.786  13.304  1.4833 -1.4869 -0.2149
 6947TIP3   OH242255   5.100   2.056   3.345 -0.0423 -0.0740  0.0088
 6947TIP3    H142256   5.122   1.963   3.353  1.8738  0.4629  1.3471
 6947TIP3    H242257   5.093   2.071   3.250  0.8192 -1.3147 -0.2608
 6948TIP3   OH242258   3.426   1.262   2.619  0.3211 -0.0050 -0.0081
 6948TIP3    H142259   3.416   1.346   2.575 -0.2952  0.4836  1.0514
 6948TIP3    H242260   3.396   1.197   2.555 -0.6118  0.6933 -0.2795
 6949TIP3   OH242261   5.292   4.948  16.824  0.0072 -0.3367  0.2695
 6949TIP3    H142262   5.254   5.016  16.768 -0.0040 -0.2991  0.3228
 6949TIP3    H242263   5.370   4.919  16.777 -0.7649 -1.3046 -0.4547
 6950TIP3   OH242264   3.053   2.808  14.274  0.0965  0.2366  0.1169
 6950TIP3    H142265   3.005   2.799  14.192  0.6385  1.1403 -0.3120
 6950TIP3    H242266   3.029   2.731  14.325  0.8616 -1.0752 -1.4604
 6951TIP3   OH242267   3.176   2.182   2.906  0.2377 -0.4809 -0.0735
 6951TIP3    H142268   3.201   2.089   2.904 -2.2515 -1.2235  1.0786
 6951TIP3    H242269   3.084   2.181   2.933 -0.1682  2.2811 -1.2300
 6952TIP3   OH242270   6.010   1.281   1.485 -0.0109 -0.4191 -0.3663
 6952TIP3    H142271   5.982   1.192   1.464  2.2013 -1.0612 -0.6964
 6952TIP3    H242272   5.952   1.337   1.434 -1.8677 -1.6343  0.3645
 6953TIP3   OH242273   5.610   4.071   5.811  0.0674 -0.3740  0.1928
 6953TIP3    H142274   5.618   4.076   5.906  2.0802  2.1072 -0.0613
 6953TIP3    H242275   5.527   4.115   5.792 -1.4307 -2.7840  0.9099
 6954TIP3   OH242276   2.820   4.968   0.394 -0.5762  0.3141 -0.1102
 6954TIP3    H142277   2.907   4.963   0.433 -0.4080 -0.6440 -0.5714
 6954TIP3    H242278   2.803   4.878   0.364 -1.3807  0.6714 -0.7359
 6955TIP3   OH242279   2.352   5.042  12.315  0.5012  0.4469  0.4609
 6955TIP3    H142280   2.420   5.056  12.381  0.4765  2.3541  0.1327
 6955TIP3    H242281   2.391   5.079  12.235  0.1627 -0.9776 -0.3615
 6956TIP3   OH242282   5.770   5.093  13.402 -0.2141 -0.4553  0.4021
 6956TIP3    H142283   5.678   5.068  13.413 -0.6095  1.3223  1.4187
 6956TIP3    H242284   5.792   5.138  13.483  1.6549 -1.1105  0.2659
 6957TIP3   OH242285   1.005   3.442   3.163 -0.0436  0.3878 -0.1618
 6957TIP3    H142286   1.089   3.430   3.118 -0.2339  0.7920 -0.6237
 6957TIP3    H242287   1.020   3.407   3.251  0.4674  0.0216 -0.3930
 6958TIP3   OH242288   6.471   1.879   3.780 -0.6413  0.1354  0.1502
 6958TIP3    H142289   6.505   1.841   3.861 -0.7532  0.8828  0.5600
 6958TIP3    H242290   6.539   1.940   3.751 -0.9981  0.5573  0.1884
 6959TIP3   OH242291   5.645   6.337   4.481  0.4653 -0.2022 -0.1095
 6959TIP3    H142292   5.555   6.323   4.512  0.7092 -0.9545  0.2652
 6959TIP3    H242293   5.697   6.343   4.562  0.5824  1.4661 -0.2831
 6960TIP3   OH242294   1.115   4.175   0.372 -0.4578  0.4090  0.5540
 6960TIP3    H142295   1.167   4.185   0.452  0.7742  0.5183 -0.2477
 6960TIP3    H242296   1.161   4.228   0.307 -0.7678 -0.6620 -0.5521
 6961TIP3   OH242297   3.770   3.643   4.993  0.1388  0.1224  0.0037
 6961TIP3    H142298   3.709   3.572   5.011  2.4895 -1.0520  4.0847
 6961TIP3    H242299   3.854   3.600   4.974  1.1282  1.7355  0.5336
 6962TIP3   OH242300   5.309   3.802  14.847 -0.7265  0.5135 -0.0083
 6962TIP3    H142301   5.226   3.762  14.875 -0.4041  1.7337  2.8565
 6962TIP3    H242302   5.375   3.735  14.864 -0.5398  1.2287  2.2027
 6963TIP3   OH242303   2.674   2.455  10.462  0.0814 -0.2365  0.6532
 6963TIP3    H142304   2.638   2.543  10.471  0.5941  0.2412 -1.5758
 6963TIP3    H242305   2.604   2.397  10.494 -1.1923  0.8702 -0.0699
 6964TIP3   OH242306   5.199   3.010  11.640  0.7453 -0.5579  0.4010
 6964TIP3    H142307   5.201   3.010  11.544 -2.3666 -1.5905  0.2806
 6964TIP3    H242308   5.261   2.942  11.665  2.3953  0.4529 -0.8084
 6965TIP3   OH242309   1.336   2.389   0.906 -0.1778 -0.0977 -0.4708
 6965TIP3    H142310   1.316   2.439   0.827 -1.9278  0.0363  0.0263
 6965TIP3    H242311   1.250   2.375   0.947  0.8787  1.8364  2.5892
 6966TIP3   OH242312   5.345   2.637   2.964 -0.0995  0.2482 -0.0759
 6966TIP3    H142313   5.422   2.580   2.957 -0.6701 -0.5290  0.0337
 6966TIP3    H242314   5.277   2.592   2.913 -0.2492  1.3323 -0.8558
 6967TIP3   OH242315   6.617   4.995   4.192 -0.9109  0.3996 -0.4364
 6967TIP3    H142316   6.645   4.913   4.232  0.4102  1.7632  1.5237
 6967TIP3    H242317   6.579   5.045   4.265 -2.2762  1.2780 -1.7311
 6968TIP3   OH242318   1.840   6.508  16.422 -0.0778  0.1707  0.4746
 6968TIP3    H142319   1.864   6.574  16.487  0.7282 -0.7022  1.0814
 6968TIP3    H242320   1.791   6.443  16.472 -2.4895  1.2019 -0.4701
 6969TIP3   OH242321   6.056   3.363   2.836  0.5805 -0.1528 -0.4173
 6969TIP3    H142322   6.137   3.322   2.866  0.9992  2.3935  2.1090
 6969TIP3    H242323   5.989   3.332   2.896  0.7067  1.8858  0.8411
 6970TIP3   OH242324   0.059   6.744  10.808  0.2987  0.4060 -0.4839
 6970TIP3    H142325   0.138   6.797  10.814  0.1580  0.4280  1.4505
 6970TIP3    H242326  -0.008   6.794  10.854  0.1020 -1.2962  1.1387
 6971TIP3   OH242327   5.180   3.006   5.892 -0.1299 -0.6164  0.1173
 6971TIP3    H142328   5.221   2.993   5.977  5.2483 -3.1334 -2.6056
 6971TIP3    H242329   5.144   2.920   5.870  1.0194 -0.7456 -1.3089
 6972TIP3   OH242330   5.724   1.498   0.967  0.2499 -0.0831 -0.2452
 6972TIP3    H142331   5.756   1.463   1.050 -0.1482  0.2982  0.0688
 6972TIP3    H242332   5.781   1.458   0.901  0.5804 -0.3706  0.2106
 6973TIP3   OH242333   0.977   6.779   3.642 -0.1430 -0.1182  0.9393
 6973TIP3    H142334   1.003   6.869   3.660 -1.0561  0.0548  1.3882
 6973TIP3    H242335   0.918   6.755   3.713 -0.4609 -0.8322  0.4486
 6974TIP3   OH242336   4.256   1.591  14.182  0.2892 -0.2691  0.3661
 6974TIP3    H142337   4.216   1.638  14.109 -0.8054 -0.2784  0.9514
 6974TIP3    H242338   4.288   1.660  14.240  3.0385 -0.2311 -1.0843
 6975TIP3   OH242339   3.274   0.014  14.602  0.1659 -0.3584  0.3999
 6975TIP3    H142340   3.211   0.079  14.635  0.0257  0.2837 -1.0732
 6975TIP3    H242341   3.360   0.051  14.623  0.0868  0.3147 -0.4368
 6976TIP3   OH242342   1.410   5.537  15.277  0.2150  0.2428 -0.3565
 6976TIP3    H142343   1.323   5.516  15.313  1.3756 -2.0785  1.2119
 6976TIP3    H242344   1.428   5.625  15.309 -2.4169  1.6249 -2.4426
 6977TIP3   OH242345   2.358   0.618   1.065 -0.7178 -0.1628  0.2856
 6977TIP3    H142346   2.288   0.595   1.126  0.0734 -1.0629  0.8637
 6977TIP3    H242347   2.422   0.548   1.074 -0.3582 -0.0420 -1.2155
 6978TIP3   OH242348   4.823   0.998  17.148  0.3616 -0.1284 -0.0113
 6978TIP3    H142349   4.756   1.047  17.102 -0.1746 -0.2762  0.5960
 6978TIP3    H242350   4.856   1.059  17.214  2.4227  0.6989 -1.7771
 6979TIP3   OH242351   5.948   2.024   2.084 -0.1131  0.3471 -0.3720
 6979TIP3    H142352   5.897   2.081   2.141 -0.7467  0.5653 -1.1400
 6979TIP3    H242353   6.039   2.036   2.112  0.0225  3.3505 -1.8857
 6980TIP3   OH242354   3.210   4.158   2.372  0.4022 -0.0970  0.1749
 6980TIP3    H142355   3.176   4.164   2.283  0.6756  0.6077  0.1155
 6980TIP3    H242356   3.139   4.190   2.427  1.2136  2.1155 -0.0064
 6981TIP3   OH242357   4.913   4.761  15.913 -0.1372 -0.2252  0.2407
 6981TIP3    H142358   4.970   4.716  15.851 -0.5437  0.7194 -0.8433
 6981TIP3    H242359   4.852   4.810  15.858  1.4595  3.1592  1.3491
 6982TIP3   OH242360   3.919   6.457   3.065 -0.5243  0.3281  0.1769
 6982TIP3    H142361   3.958   6.458   2.977 -0.6828  1.4686  0.1111
 6982TIP3    H242362   3.982   6.410   3.119  0.7031  1.7231 -0.0367
 6983TIP3   OH242363   2.934   5.253  16.586  0.3429 -0.8158  0.1406
 6983TIP3    H142364   2.889   5.232  16.668  0.9937 -0.2495  0.6462
 6983TIP3    H242365   2.867   5.242  16.518 -0.1081 -1.6244  0.7103
 6984TIP3   OH242366   1.651   4.985  14.398 -0.2251 -0.0167 -0.4624
 6984TIP3    H142367   1.595   5.063  14.387 -0.4141  0.2586  2.1007
 6984TIP3    H242368   1.737   5.021  14.422 -0.9331 -0.5487  3.2845
 6985TIP3   OH242369   3.880   0.009   5.675  0.6370  0.2560  0.1573
 6985TIP3    H142370   3.791   0.037   5.655  0.1174 -1.6300 -0.2562
 6985TIP3    H242371   3.907  -0.043   5.600  1.2343 -1.0929  1.2880
 6986TIP3   OH242372   3.588   5.032  15.234 -0.2911 -0.0843 -0.0759
 6986TIP3    H142373   3.625   4.950  15.266 -0.8171 -0.3364 -0.1139
 6986TIP3    H242374   3.661   5.094  15.236 -0.0143 -0.4263  0.4148
 6987TIP3   OH242375   5.256   5.426   5.293 -0.0258 -0.0915 -0.1655
 6987TIP3    H142376   5.173   5.386   5.267  0.0669  0.9381 -2.1248
 6987TIP3    H242377   5.235   5.517   5.310  0.4763 -0.0988  0.5351
 6988TIP3   OH242378   6.440   0.519  12.328 -0.3715 -0.3740 -0.1862
 6988TIP3    H142379   6.364   0.502  12.383 -1.2013  1.0423 -0.8537
 6988TIP3    H242380   6.411   0.497  12.239 -0.4122  1.3053 -0.6062
 6989TIP3   OH242381   0.922   6.567  14.193 -0.1674 -0.5358  0.0613
 6989TIP3    H142382   0.901   6.661  14.193 -0.2525 -0.5546  0.0616
 6989TIP3    H242383   0.949   6.549  14.103 -2.5721 -1.0519 -0.5723
 6990TIP3   OH242384   0.858   6.538  14.661 -0.3576  0.3502  0.0288
 6990TIP3    H142385   0.834   6.493  14.580  1.8278 -1.6327  0.4384
 6990TIP3    H242386   0.945   6.575  14.643  0.2390 -0.3061  1.5193
 6991TIP3   OH242387   6.514   4.798  15.681 -0.0250  0.2223 -0.4336
 6991TIP3    H142388   6.499   4.844  15.598 -0.8768 -1.8705 -1.4791
 6991TIP3    H242389   6.605   4.815  15.702  0.3250  0.4074 -2.0364
 6992TIP3   OH242390   6.491   0.397  10.471 -0.1687  0.2560  0.0801
 6992TIP3    H142391   6.465   0.432  10.385  0.4738 -0.8113 -0.5579
 6992TIP3    H242392   6.425   0.431  10.531 -1.0419  0.4271 -0.9602
 6993TIP3   OH242393   6.046   5.061   3.930 -0.5241  0.1214  0.2201
 6993TIP3    H142394   6.055   5.096   3.842 -2.6706 -0.5840 -0.3202
 6993TIP3    H242395   6.028   4.967   3.917 -0.5482 -0.0539  1.4046
 6994TIP3   OH242396   2.856   2.851   3.698  0.5234 -0.2782  0.1151
 6994TIP3    H142397   2.873   2.896   3.781  1.0883 -1.3521  0.5958
 6994TIP3    H242398   2.937   2.803   3.680 -1.2530 -3.9404  1.4441
 6995TIP3   OH242399   2.172   1.514  16.080 -0.2417  0.0088 -0.1442
 6995TIP3    H142400   2.141   1.426  16.104 -0.6951  0.2219  0.0616
 6995TIP3    H242401   2.253   1.525  16.130 -0.6539  0.0558  0.5204
 6996TIP3   OH242402   4.125   3.330   3.268  0.0024  0.4249 -0.6634
 6996TIP3    H142403   4.125   3.421   3.297  0.3992  0.1787  0.1120
 6996TIP3    H242404   4.120   3.335   3.172 -0.5031  1.2482 -0.5981
 6997TIP3   OH242405   0.878   0.589   3.097 -0.0322 -0.3609  0.4637
 6997TIP3    H142406   0.933   0.640   3.156 -1.1378  0.3101  0.9326
 6997TIP3    H242407   0.918   0.502   3.096  0.1332 -0.3205  2.0587
 6998TIP3   OH242408   0.395   0.031   4.290 -0.5331  0.0330 -0.1710
 6998TIP3    H142409   0.328   0.026   4.358  0.2341 -0.6096  0.5557
 6998TIP3    H242410   0.420   0.123   4.288 -0.1195 -0.0434  0.8741
 6999TIP3   OH242411   0.188   1.375  14.154 -0.1652 -0.1558  0.4467
 6999TIP3    H142412   0.250   1.304  14.136  0.4879  0.4329  0.3629
 6999TIP3    H242413   0.238   1.438  14.206 -1.1876 -0.4606  1.8171
 7000TIP3   OH242414   6.699   0.397  16.791  0.1373  0.3000  0.8232
 7000TIP3    H142415   6.616   0.403  16.745 -0.2228  2.1454  1.6432
 7000TIP3    H242416   6.715   0.303  16.801  0.0290 -0.1312 -2.6218
 7001TIP3   OH242417   5.950   6.142   0.875 -0.3330  0.0127 -0.1862
 7001TIP3    H142418   5.934   6.236   0.883 -0.7135  0.0660 -1.5312
 7001TIP3    H242419   5.868   6.107   0.841  0.3138 -0.5943 -1.1470
 7002TIP3   OH242420   4.904   2.536   0.837 -0.0549 -0.0812 -0.2184
 7002TIP3    H142421   4.837   2.478   0.800 -0.1922 -0.0313 -0.0528
 7002TIP3    H242422   4.968   2.476   0.876  0.7572 -0.1564 -1.6821
 7003TIP3   OH242423   1.319   1.201  12.044  0.0611 -0.3304  0.0659
 7003TIP3    H142424   1.353   1.287  12.069  0.0595 -0.1066 -0.7004
 7003TIP3    H242425   1.281   1.214  11.958 -1.4272 -0.7365  0.6554
 7004TIP3   OH242426   6.106   3.499  13.820  0.1330  0.8952 -0.1294
 7004TIP3    H142427   6.192   3.458  13.811  0.4266  1.1290  1.5395
 7004TIP3    H242428   6.124   3.585  13.859 -0.7987  1.2662 -0.4834
 7005TIP3   OH242429   2.813   6.557  16.027  0.0935 -0.2631 -0.6792
 7005TIP3    H142430   2.818   6.590  15.938 -1.0397 -0.3668 -0.7877
 7005TIP3    H242431   2.747   6.488  16.024 -1.0326  0.7184  0.5088
 7006TIP3   OH242432   3.868   5.353  17.144  0.6307  0.6271 -0.1876
 7006TIP3    H142433   3.913   5.293  17.204 -0.6879 -1.5797 -1.3271
 7006TIP3    H242434   3.937   5.386  17.087  1.6146  1.3756  1.4018
 7007TIP3   OH242435   5.001   1.435  10.692 -0.6013 -0.0506  1.1008
 7007TIP3    H142436   5.039   1.508  10.643  2.1305 -1.0395  1.6572
 7007TIP3    H242437   4.909   1.434  10.667 -0.0676  1.8530 -1.0328
 7008TIP3   OH242438   6.562   2.726   0.532  0.7319 -0.5601 -0.0290
 7008TIP3    H142439   6.529   2.653   0.480 -0.2385  0.1155 -0.3784
 7008TIP3    H242440   6.517   2.803   0.496 -1.8219 -0.3728  3.3448
 7009TIP3   OH242441   6.439   3.993  16.491 -0.7097  0.0230 -0.3946
 7009TIP3    H142442   6.505   3.973  16.557 -2.1250 -0.7068  0.8224
 7009TIP3    H242443   6.363   4.025  16.541 -2.4964 -2.3838 -1.4537
 7010TIP3   OH242444   0.101   6.684   4.834 -0.1473  0.7093 -0.0619
 7010TIP3    H142445   0.104   6.778   4.821  1.7966  0.7735  0.6941
 7010TIP3    H242446   0.081   6.674   4.927  2.0452  0.4316  0.4154
 7011TIP3   OH242447   0.860   1.166   2.639  0.1530 -0.6730 -0.0450
 7011TIP3    H142448   0.825   1.080   2.661  0.3034 -0.0373  2.8259
 7011TIP3    H242449   0.953   1.160   2.657  0.0751  0.2448  0.6937
 7012TIP3   OH242450   6.758   0.647  12.408  0.1712 -0.0371 -0.3744
 7012TIP3    H142451   6.795   0.671  12.323 -0.6327 -0.5282 -0.8664
 7012TIP3    H242452   6.755   0.551  12.406 -0.1131 -0.0402  0.0973
 7013TIP3   OH242453   2.544   5.882  12.755 -0.5633  0.1241  0.1841
 7013TIP3    H142454   2.491   5.894  12.833 -0.1328 -0.4950  0.5713
 7013TIP3    H242455   2.576   5.970  12.734 -2.6065  0.7036 -0.6873
 7014TIP3   OH242456   4.596   1.840   0.335  0.3932  0.0092  0.3215
 7014TIP3    H142457   4.675   1.805   0.294  1.2466  0.9957  1.1051
 7014TIP3    H242458   4.572   1.914   0.279 -1.4118 -1.7551 -1.3381
 7015TIP3   OH242459   5.744   6.592   0.851  0.4092 -0.0627  0.3078
 7015TIP3    H142460   5.788   6.632   0.777  0.7572  0.4498  0.7906
 7015TIP3    H242461   5.703   6.513   0.815 -0.6717  0.9599 -0.7473
 7016TIP3   OH242462   1.774   1.660   1.719 -0.5256 -0.1915  0.1041
 7016TIP3    H142463   1.803   1.571   1.702  3.7576  1.1608 -0.3444
 7016TIP3    H242464   1.783   1.671   1.813 -0.3082 -0.0501  0.0699
 7017TIP3   OH242465   5.478   4.688   5.604 -0.2287  0.3871 -0.2812
 7017TIP3    H142466   5.473   4.592   5.604 -0.6249  0.3779 -2.6561
 7017TIP3    H242467   5.499   4.711   5.513  0.4444  2.5285  0.3882
 7018TIP3   OH242468   1.123   3.934   1.375  0.4350  0.1233 -0.3707
 7018TIP3    H142469   1.177   3.887   1.438  1.4822  0.0116 -1.3266
 7018TIP3    H242470   1.072   3.865   1.332 -1.4317  0.3559  1.4048
 7019TIP3   OH242471   2.185   1.393   1.029  0.2029  0.5631 -0.1355
 7019TIP3    H142472   2.118   1.355   1.085  1.2594  0.6459  1.2026
 7019TIP3    H242473   2.208   1.323   0.968 -1.2430  0.6088 -0.7457
 7020TIP3   OH242474   4.888   1.196  11.693  0.1193  0.2359  0.2057
 7020TIP3    H142475   4.798   1.223  11.675 -0.3109 -0.9277  0.5441
 7020TIP3    H242476   4.881   1.105  11.721  1.3644  0.2616  0.6576
 7021TIP3   OH242477   3.233   0.270   3.137  0.1433  0.1372 -0.1703
 7021TIP3    H142478   3.172   0.329   3.181  0.1467 -0.2667  0.3889
 7021TIP3    H242479   3.179   0.197   3.108  0.4655 -0.6003  1.0159
 7022TIP3   OH242480   4.287   1.791   1.942  0.3521 -0.5959  0.2310
 7022TIP3    H142481   4.293   1.851   1.868 -0.5023  0.2033  0.7875
 7022TIP3    H242482   4.230   1.721   1.912 -1.0804  0.4009  0.5436
 7023TIP3   OH242483   2.549   5.404  16.202  0.6331  0.2534 -0.5327
 7023TIP3    H142484   2.545   5.328  16.143  0.8613 -0.6243  0.5597
 7023TIP3    H242485   2.605   5.467  16.156 -0.9584  0.4641 -2.2248
 7024TIP3   OH242486   0.166   4.868   3.030  0.0698 -0.2268  0.9483
 7024TIP3    H142487   0.231   4.923   2.986 -1.6201  1.2368  0.2004
 7024TIP3    H242488   0.189   4.873   3.123  1.4821 -0.3685  0.6118
 7025TIP3   OH242489   4.245   4.599   0.468  0.4114 -0.2428 -0.1672
 7025TIP3    H142490   4.315   4.592   0.403 -0.6015  0.2405 -1.3089
 7025TIP3    H242491   4.281   4.656   0.536  1.3475 -0.5066 -0.4357
 7026TIP3   OH242492   6.405   1.193  16.116  0.5305  0.0077 -0.5090
 7026TIP3    H142493   6.334   1.159  16.061 -0.8793 -2.0527  2.4689
 7026TIP3    H242494   6.479   1.134  16.098 -0.0213 -0.8615  0.0116
 7027TIP3   OH242495   0.961   3.561   6.567  0.3579 -0.5429  0.1368
 7027TIP3    H142496   1.046   3.568   6.610 -0.0969 -0.0129  0.9395
 7027TIP3    H242497   0.938   3.468   6.576 -0.0162 -0.3174  1.5663
 7028TIP3   OH242498   0.556   6.766  16.788 -0.2487 -0.2340  0.1378
 7028TIP3    H142499   0.628   6.707  16.809  0.4039 -0.1768 -1.7717
 7028TIP3    H242500   0.569   6.786  16.695 -1.2166  1.8838  0.4468
 7029TIP3   OH242501   2.346   1.951  14.393  0.3513  0.0083  0.0241
 7029TIP3    H142502   2.411   1.946  14.462 -0.3171  0.9059  0.7291
 7029TIP3    H242503   2.397   1.954  14.312  1.2207  1.2708  0.6006
 7030TIP3   OH242504   1.531   3.054  14.012 -0.3927 -0.3987 -0.5219
 7030TIP3    H142505   1.537   3.028  13.920 -1.7006 -0.2273 -0.6679
 7030TIP3    H242506   1.467   3.125  14.012  0.4406  0.3539  0.3727
 7031TIP3   OH242507   1.580   6.319   1.725  0.3170 -0.0459 -0.1547
 7031TIP3    H142508   1.503   6.284   1.769 -1.3279  0.5020 -2.5600
 7031TIP3    H242509   1.606   6.250   1.664 -1.0499  1.6237 -2.6581
 7032TIP3   OH242510   5.644   2.666   1.038  0.4800 -0.1584 -0.3596
 7032TIP3    H142511   5.588   2.598   1.074 -0.6757  0.5905 -0.7200
 7032TIP3    H242512   5.673   2.631   0.953  0.9138 -0.7241  0.0205
 7033TIP3   OH242513   5.989   5.619   4.306 -0.2130 -0.1628 -0.1515
 7033TIP3    H142514   6.001   5.646   4.215 -0.5767  1.2216  0.1997
 7033TIP3    H242515   6.076   5.631   4.346 -0.0801 -0.6693 -0.2827
 7034TIP3   OH242516   1.948   0.364   2.212 -0.0727  0.3153  0.0565
 7034TIP3    H142517   1.878   0.307   2.244 -1.3225  2.0392  0.4555
 7034TIP3    H242518   2.002   0.307   2.157 -2.3924 -0.8078 -1.1301
 7035TIP3   OH242519   4.732   4.872   0.671 -0.1738  0.0450 -0.1596
 7035TIP3    H142520   4.679   4.876   0.592  1.2206 -1.2970 -1.1770
 7035TIP3    H242521   4.771   4.959   0.679  1.5326 -0.4970 -2.2581
 7036TIP3   OH242522   1.596   3.213  15.169  0.3560  0.2181 -0.7724
 7036TIP3    H142523   1.594   3.206  15.073 -1.8618  0.7358 -0.8082
 7036TIP3    H242524   1.633   3.300  15.186  0.1845  0.3756 -1.1853
 7037TIP3   OH242525   2.837   5.085   0.079  0.2592 -0.3668 -0.0794
 7037TIP3    H142526   2.752   5.088   0.124 -0.1460  0.6524 -0.8941
 7037TIP3    H242527   2.872   4.999   0.101  0.6628  0.5818  3.3088
 7038TIP3   OH242528   5.098   0.151   4.006 -0.1639 -0.3268  0.5632
 7038TIP3    H142529   5.013   0.194   3.993  0.3956  1.0719  1.4761
 7038TIP3    H242530   5.099   0.127   4.098  0.6240  0.1042  0.6732
 7039TIP3   OH242531   6.561   1.410  14.012 -0.2352 -0.4570 -0.0047
 7039TIP3    H142532   6.501   1.423  13.939 -0.6182  1.0607  0.5484
 7039TIP3    H242533   6.574   1.498  14.048  0.6291 -1.0611  1.2040
 7040TIP3   OH242534   5.222   2.377   2.131 -0.4029  0.5799  0.1614
 7040TIP3    H142535   5.295   2.316   2.121 -0.0111  1.2152 -0.9785
 7040TIP3    H242536   5.148   2.322   2.157  0.2671 -0.1947  0.4310
 7041TIP3   OH242537   2.061   5.954  11.639  0.1297  0.0517 -0.3916
 7041TIP3    H142538   1.974   5.940  11.676  0.6711  0.4665  1.0535
 7041TIP3    H242539   2.064   6.047  11.619  1.0941  0.4961  1.7773
 7042TIP3   OH242540   3.933   0.224  11.375  0.4267  0.1286 -0.5696
 7042TIP3    H142541   4.001   0.157  11.372 -0.8392 -1.2767  0.7605
 7042TIP3    H242542   3.865   0.191  11.315 -0.4352 -0.0824  0.4997
 7043TIP3   OH242543   2.759   3.921  13.430 -0.1690  0.0909  0.4113
 7043TIP3    H142544   2.798   3.984  13.369  0.2257 -1.0523 -0.5185
 7043TIP3    H242545   2.734   3.974  13.506  0.3105  1.3469 -0.2942
 7044TIP3   OH242546   6.230   0.543   4.983 -0.4399  0.7168  0.2263
 7044TIP3    H142547   6.278   0.616   5.022  0.4979  0.2395 -0.0167
 7044TIP3    H242548   6.288   0.509   4.915 -1.7041  1.0072 -1.0411
 7045TIP3   OH242549   2.874   5.533   3.898  0.4718  0.6171  0.4545
 7045TIP3    H142550   2.850   5.606   3.956 -1.6556  2.4674 -2.5900
 7045TIP3    H242551   2.801   5.472   3.906  1.0453  0.0175  1.0944
 7046TIP3   OH242552   2.037   1.107  13.266 -0.2298 -0.1941  0.0011
 7046TIP3    H142553   1.958   1.144  13.225 -1.0534 -0.6251  1.1939
 7046TIP3    H242554   2.006   1.030  13.313  1.0705 -0.9114 -0.2966
 7047TIP3   OH242555   1.314   5.961   1.369 -0.0332 -0.2756 -0.1458
 7047TIP3    H142556   1.295   5.946   1.277 -1.7177  1.4484 -0.1362
 7047TIP3    H242557   1.231   5.993   1.405  0.8208 -0.1404  1.7740
 7048TIP3   OH242558   3.746   3.620   5.322  0.4111 -0.3971  0.0682
 7048TIP3    H142559   3.688   3.679   5.275  1.7589 -0.7171 -2.0465
 7048TIP3    H242560   3.732   3.534   5.281  0.9757 -0.8540  0.8017
 7049TIP3   OH242561   6.049   6.257  14.567  0.1490  0.2231 -0.2099
 7049TIP3    H142562   6.044   6.286  14.477 -1.4587 -1.9481 -0.8618
 7049TIP3    H242563   6.111   6.317  14.609  3.3080 -0.6117 -3.4717
 7050TIP3   OH242564   4.745   1.056  12.592  0.0340  0.1459  0.3861
 7050TIP3    H142565   4.706   0.979  12.634 -0.4327 -0.4813 -1.1517
 7050TIP3    H242566   4.716   1.051  12.501  0.6305  1.7354  0.0848
 7051TIP3   OH242567   6.582   6.133   4.587 -0.5128 -0.0700  0.0178
 7051TIP3    H142568   6.506   6.096   4.541  0.6582 -3.0282  0.3761
 7051TIP3    H242569   6.571   6.104   4.677 -0.0767  1.3399  0.5276
 7052TIP3   OH242570   2.711   3.535   5.691 -0.2781 -0.5354 -0.3612
 7052TIP3    H142571   2.654   3.587   5.635  0.3278  1.6520  0.9769
 7052TIP3    H242572   2.799   3.572   5.677  0.3731 -2.0068 -0.2899
 7053TIP3   OH242573   1.636   5.315   6.118 -0.0427 -0.3750  1.0540
 7053TIP3    H142574   1.650   5.229   6.079  0.4198 -0.4250  1.3287
 7053TIP3    H242575   1.548   5.310   6.156 -0.9253  0.0253 -0.9032
 7054TIP3   OH242576   1.125   2.649  11.901  0.1040  0.1937 -0.1489
 7054TIP3    H142577   1.206   2.667  11.949  0.7181 -0.5946 -0.8616
 7054TIP3    H242578   1.056   2.662  11.965  0.9484 -1.3013  1.0960
 7055TIP3   OH242579   4.218   1.565   4.911 -0.0652 -0.0214  0.1742
 7055TIP3    H142580   4.272   1.535   4.839  0.1032  0.3377  0.1450
 7055TIP3    H242581   4.243   1.657   4.923 -0.7160  0.1670  0.1162
 7056TIP3   OH242582   2.330   4.301   1.655  0.1261  0.0967 -0.0226
 7056TIP3    H142583   2.376   4.259   1.581  1.6917  0.4438  0.7240
 7056TIP3    H242584   2.241   4.313   1.624  0.5428 -0.5736 -1.5463
 7057TIP3   OH242585   0.919   2.024   4.158  0.3686  0.4730  0.1262
 7057TIP3    H142586   0.852   2.016   4.226  1.6697  0.2399  1.4029
 7057TIP3    H242587   0.871   2.010   4.076 -1.0692 -0.1075  1.0400
 7058TIP3   OH242588   4.479   6.182  16.694  0.1187  0.5852  0.3079
 7058TIP3    H142589   4.563   6.201  16.737 -0.1287  0.6151  0.7722
 7058TIP3    H242590   4.501   6.115  16.629  0.4331  0.3127  0.6947
 7059TIP3   OH242591   2.319   4.238  16.034 -0.3791 -0.0746 -0.1314
 7059TIP3    H142592   2.307   4.245  16.129 -1.4355 -2.4881 -0.0390
 7059TIP3    H242593   2.230   4.235  15.999 -0.0271 -2.1937 -0.9145
 7060TIP3   OH242594   5.307   1.986   5.232 -0.3989  0.3025 -0.0109
 7060TIP3    H142595   5.237   1.922   5.248 -1.2973  1.2131 -0.2926
 7060TIP3    H242596   5.266   2.054   5.178  1.2174 -0.1348 -1.8596
 7061TIP3   OH242597   5.548   5.982   0.487 -0.0242 -0.6947  0.2034
 7061TIP3    H142598   5.508   5.902   0.451 -1.5827  0.4476 -0.6693
 7061TIP3    H242599   5.516   6.052   0.430 -0.1955  0.8020  2.1039
 7062TIP3   OH242600   4.183   0.437  16.362  0.2869  0.1577  0.1969
 7062TIP3    H142601   4.102   0.396  16.389  1.4559 -1.9805  0.5280
 7062TIP3    H242602   4.242   0.428  16.437  1.3679  0.1739 -0.6295
 7063TIP3   OH242603   3.981   0.890  15.250 -0.1849  0.1338  0.2242
 7063TIP3    H142604   3.966   0.884  15.345 -0.6881  2.1179  0.2819
 7063TIP3    H242605   4.069   0.928  15.243  0.0836 -0.5492 -0.1127
 7064TIP3   OH242606   0.470   4.422   4.539 -0.4525  0.1587 -0.5945
 7064TIP3    H142607   0.427   4.481   4.477  0.1911  0.7592 -0.4796
 7064TIP3    H242608   0.503   4.480   4.608 -3.0204 -0.7072  1.4476
 7065TIP3   OH242609   0.698   4.239  15.438 -0.1574 -0.7298  0.1874
 7065TIP3    H142610   0.753   4.292  15.495  0.0318  1.3906 -1.9012
 7065TIP3    H242611   0.751   4.223  15.360 -0.9670 -2.2763 -0.0704
 7066TIP3   OH242612   3.549   6.140  12.979  0.0176 -0.2573 -0.0903
 7066TIP3    H142613   3.465   6.094  12.986 -0.3056  0.4494  0.8387
 7066TIP3    H242614   3.600   6.110  13.054 -0.0153  0.5303  0.2538
 7067TIP3   OH242615   4.050   5.154  11.556  0.4069 -0.5788 -0.2342
 7067TIP3    H142616   4.111   5.156  11.630  0.8642  0.4160 -0.6239
 7067TIP3    H242617   4.107   5.156  11.478 -0.1286  1.3035 -0.6022
 7068TIP3   OH242618   2.241   1.593   3.857 -0.0761  0.0969 -0.2178
 7068TIP3    H142619   2.318   1.604   3.801 -0.5069  3.1345 -0.3039
 7068TIP3    H242620   2.267   1.526   3.921  1.4154 -1.3490 -2.2910
 7069TIP3   OH242621   3.192   3.393   1.405 -0.0696  0.1275  0.3918
 7069TIP3    H142622   3.204   3.301   1.429  0.0107  0.8343  3.2147
 7069TIP3    H242623   3.242   3.442   1.470 -3.5275  2.3389  1.5441
 7070TIP3   OH242624   2.894   5.141  12.997  0.0399 -0.3501  0.6941
 7070TIP3    H142625   2.838   5.218  13.009  0.1208 -0.2786  0.6118
 7070TIP3    H242626   2.859   5.076  13.058  0.0499 -0.2046  0.8569
 7071TIP3   OH242627   4.874   1.443   3.847  0.2279 -0.7716 -0.6561
 7071TIP3    H142628   4.967   1.425   3.844  0.6980  1.3462 -0.0338
 7071TIP3    H242629   4.866   1.517   3.907 -1.4468  1.4452 -3.4749
 7072TIP3   OH242630   5.126   1.006  11.891 -0.3783 -0.2094  0.4340
 7072TIP3    H142631   5.109   1.093  11.926 -0.9275 -0.1169 -0.0443
 7072TIP3    H242632   5.170   1.023  11.807 -1.4228 -0.3616 -0.1515
 7073TIP3   OH242633   0.779   1.652  16.009  0.4839 -0.0713 -0.5546
 7073TIP3    H142634   0.858   1.703  16.029  0.5567  0.3349 -1.8655
 7073TIP3    H242635   0.707   1.708  16.039  0.6778 -0.4710  0.7088
 7074TIP3   OH242636   2.015   4.817   0.689  0.0011 -0.3615  0.0171
 7074TIP3    H142637   1.961   4.756   0.740  1.5471 -2.2765 -0.5647
 7074TIP3    H242638   2.062   4.761   0.627  1.1675  1.4822 -0.8104
 7075TIP3   OH242639   2.264   5.486   1.413  0.4673 -0.0122 -0.8910
 7075TIP3    H142640   2.323   5.454   1.344  2.7542 -2.0286  1.8890
 7075TIP3    H242641   2.314   5.555   1.457 -1.4444  2.0947 -1.9384
 7076TIP3   OH242642   4.472   4.642  13.731  0.3384  0.0436 -0.8309
 7076TIP3    H142643   4.490   4.552  13.759  1.4836  0.1949 -1.0775
 7076TIP3    H242644   4.539   4.694  13.775 -0.7043  0.8596 -0.1954
 7077TIP3   OH242645   2.376   4.121   5.094 -0.4103 -0.2697  0.3233
 7077TIP3    H142646   2.356   4.059   5.164 -0.3943  0.3923  0.9214
 7077TIP3    H242647   2.315   4.098   5.024  1.6097 -2.9024 -0.6381
 7078TIP3   OH242648   0.139   0.718   3.134  0.4515  0.5652 -0.5006
 7078TIP3    H142649   0.102   0.782   3.073 -1.1396  0.2497  0.1159
 7078TIP3    H242650   0.170   0.770   3.208  1.4222  0.8426 -1.0861
 7079TIP3   OH242651   3.623   3.878  16.436 -0.4378  0.2096  0.0740
 7079TIP3    H142652   3.567   3.835  16.371 -0.8061 -0.1564  0.6239
 7079TIP3    H242653   3.564   3.937  16.483  0.0492  1.2691 -0.6226
 7080TIP3   OH242654   3.891   6.229  14.075 -0.7464  0.0780 -0.0236
 7080TIP3    H142655   3.868   6.319  14.097  1.4139  0.5702  0.3658
 7080TIP3    H242656   3.868   6.219  13.983  0.1360  1.4245 -0.3971
 7081TIP3   OH242657   0.762   5.539   4.730 -0.2613 -0.9020 -0.0425
 7081TIP3    H142658   0.739   5.610   4.670  0.3812 -1.5681 -1.0935
 7081TIP3    H242659   0.678   5.509   4.765 -0.5618  0.1820  0.2006
 7082TIP3   OH242660   3.334   2.505   1.067 -0.4265 -0.3116  0.2236
 7082TIP3    H142661   3.420   2.493   1.107 -0.8543  0.1335  1.3097
 7082TIP3    H242662   3.318   2.599   1.074 -0.1655 -0.1063 -1.7423
 7083TIP3   OH242663   6.726   0.605  13.476 -0.0149  0.1324 -0.0138
 7083TIP3    H142664   6.743   0.527  13.529  0.7092 -0.5946 -1.2973
 7083TIP3    H242665   6.697   0.671  13.539 -0.2372 -1.0490  1.1435
 7084TIP3   OH242666   2.076   6.565   5.089 -0.3780 -0.3560  0.4676
 7084TIP3    H142667   2.040   6.654   5.092  0.7509  0.0951  1.2114
 7084TIP3    H242668   2.109   6.550   5.178 -0.2152 -1.3786  0.2435
 7085TIP3   OH242669   4.508   5.167   6.257 -0.1003 -0.1815 -0.2074
 7085TIP3    H142670   4.446   5.126   6.317  1.4248  0.8210  2.1459
 7085TIP3    H242671   4.459   5.238   6.216 -1.3978 -1.3844 -0.7562
 7086TIP3   OH242672   6.749   2.832  15.824  0.5261  0.1412 -0.3285
 7086TIP3    H142673   6.752   2.762  15.759  2.1565  1.0197 -1.2297
 7086TIP3    H242674   6.787   2.908  15.779 -0.6430  1.4287  0.8336
 7087TIP3   OH242675   5.468   2.559   0.318  0.2480 -0.2863  0.1199
 7087TIP3    H142676   5.428   2.526   0.238 -0.2332 -0.5698  0.4708
 7087TIP3    H242677   5.545   2.505   0.331  0.3121 -0.2553 -0.1375
 7088TIP3   OH242678   0.209   6.382   4.046 -0.2384 -0.3138 -0.3651
 7088TIP3    H142679   0.262   6.461   4.060  0.3300 -0.8301  0.4127
 7088TIP3    H242680   0.177   6.358   4.133 -3.1656  0.9391 -1.0232
 7089TIP3   OH242681   0.128   1.381  12.740  0.5149 -1.5161 -0.1150
 7089TIP3    H142682   0.098   1.330  12.665 -1.2646 -0.0194 -0.4557
 7089TIP3    H242683   0.218   1.406  12.718 -0.4972  0.1649 -2.4351
 7090TIP3   OH242684   6.252   0.872  17.100  0.0934  0.6698  0.3159
 7090TIP3    H142685   6.303   0.953  17.094 -0.6450  1.0995 -0.5088
 7090TIP3    H242686   6.316   0.802  17.107  0.7927  1.1929 -0.8105
 7091TIP3   OH242687   3.920   1.442  14.154 -0.2188 -0.6871 -0.6165
 7091TIP3    H142688   3.904   1.355  14.190  1.9973 -1.2698 -0.9720
 7091TIP3    H242689   3.982   1.483  14.214 -1.3251  0.7144 -0.3887
 7092TIP3   OH242690   6.422   3.035  11.804  0.2213  0.0545  0.2202
 7092TIP3    H142691   6.358   3.092  11.847  1.3843  1.0432  0.6649
 7092TIP3    H242692   6.506   3.065  11.837  0.9015 -1.4141 -0.1596
 7093TIP3   OH242693   2.588   2.911   2.658  0.2847 -0.0273  0.2587
 7093TIP3    H142694   2.582   2.896   2.753 -0.6787  0.2190  0.2360
 7093TIP3    H242695   2.586   3.006   2.649 -0.8264 -0.0844 -0.0908
 7094TIP3   OH242696   1.305   5.313   5.905 -0.2758  0.2331 -0.4393
 7094TIP3    H142697   1.382   5.257   5.894  0.8554  1.3624  1.4834
 7094TIP3    H242698   1.268   5.286   5.989  0.2004  2.2397  0.4461
 7095TIP3   OH242699   0.234   2.995  16.156 -0.4244 -0.5636  0.5018
 7095TIP3    H142700   0.278   2.961  16.079  0.1085  2.8815 -0.8163
 7095TIP3    H242701   0.141   2.992  16.134 -0.3690 -0.9141  0.3129
 7096TIP3   OH242702   5.686   0.825  16.348 -0.5285  0.0641  0.0028
 7096TIP3    H142703   5.685   0.920  16.351 -0.9231  0.1379 -1.8004
 7096TIP3    H242704   5.615   0.798  16.407 -0.5041  0.8870  0.4142
 7097TIP3   OH242705   5.103   5.713   2.937  0.3778 -0.4376 -0.0290
 7097TIP3    H142706   5.141   5.727   3.024 -0.5566  1.2951  0.1199
 7097TIP3    H242707   5.164   5.755   2.877 -0.0824  0.2627 -0.0083
 7098TIP3   OH242708   6.710   4.093  13.802  0.0131 -0.3282 -0.3423
 7098TIP3    H142709   6.714   4.006  13.762 -0.6407 -0.6947  0.3875
 7098TIP3    H242710   6.706   4.076  13.896 -3.3510  0.3852 -0.3036
 7099TIP3   OH242711   0.802   5.867  12.114  0.6479 -0.2061 -0.0179
 7099TIP3    H142712   0.888   5.841  12.146  0.2832 -1.2357  0.1492
 7099TIP3    H242713   0.761   5.785  12.087  0.4150  0.4919 -1.8276
 7100TIP3   OH242714   0.543   1.552  14.877 -0.2563 -0.7956 -0.3082
 7100TIP3    H142715   0.555   1.544  14.783 -1.5619  1.0076 -0.6533
 7100TIP3    H242716   0.491   1.475  14.901  1.0858 -1.8901 -0.8364
 7101TIP3   OH242717   3.580   5.744  13.949  0.4711 -0.3373  0.8999
 7101TIP3    H142718   3.558   5.818  14.005 -0.0391 -1.7460  2.6234
 7101TIP3    H242719   3.630   5.685  14.006 -0.0543 -1.8136 -0.1257
 7102TIP3   OH242720   5.417   3.549   3.201 -0.3990 -0.6012 -0.6649
 7102TIP3    H142721   5.360   3.472   3.209 -0.6090 -0.4640 -0.8432
 7102TIP3    H242722   5.375   3.603   3.134  0.1004 -0.6412 -1.0162
 7103TIP3   OH242723   1.213   0.848   1.366 -0.1123  0.5999 -0.0719
 7103TIP3    H142724   1.215   0.943   1.375  0.5330  0.5572  0.3002
 7103TIP3    H242725   1.287   0.828   1.309 -1.4215  0.4811 -1.7559
 7104TIP3   OH242726   4.971   4.623  16.211 -0.9019 -0.4547  1.0400
 7104TIP3    H142727   4.971   4.542  16.159 -1.5077  0.3083 -0.1602
 7104TIP3    H242728   5.043   4.675  16.174 -1.6040  0.2690  0.6769
 7105TIP3   OH242729   4.774   0.554   0.868 -0.2658 -0.2851  0.3386
 7105TIP3    H142730   4.838   0.516   0.928  0.7962  0.0780 -0.5519
 7105TIP3    H242731   4.821   0.624   0.824 -1.5864  0.7049  0.4388
 7106TIP3   OH242732   3.801   6.203  14.942 -0.5133  0.6718 -0.3112
 7106TIP3    H142733   3.779   6.126  14.890 -0.1047  0.7327 -0.5688
 7106TIP3    H242734   3.807   6.171  15.032  2.2260 -0.1016 -0.7269
 7107TIP3   OH242735   4.432   0.318  12.858  0.1483  0.2011 -0.0852
 7107TIP3    H142736   4.436   0.231  12.819  1.1813  0.9992 -1.8200
 7107TIP3    H242737   4.341   0.346  12.846  0.0307 -0.2809 -0.3009
 7108TIP3   OH242738   1.989   3.953  13.527 -0.3830  0.1526 -0.1600
 7108TIP3    H142739   2.048   4.023  13.499 -1.1443 -0.0374 -2.3821
 7108TIP3    H242740   2.045   3.893  13.577  0.5032  1.7830  0.8542
 7109TIP3   OH242741   4.248   0.790  13.792 -0.2897 -0.3123 -0.3701
 7109TIP3    H142742   4.280   0.788  13.702  0.4743  0.2486 -0.1223
 7109TIP3    H242743   4.303   0.727  13.839  0.8424  1.0681  0.1790
 7110TIP3   OH242744   0.787   4.141   4.506  0.0020  0.4349  0.2067
 7110TIP3    H142745   0.879   4.136   4.480  0.6905  3.7563  1.7921
 7110TIP3    H242746   0.748   4.203   4.444 -1.4612 -1.6807 -1.0615
 7111TIP3   OH242747   2.310   4.126  16.654 -0.3547  0.1584 -0.0234
 7111TIP3    H142748   2.288   4.214  16.626  0.5115  0.7605  1.1252
 7111TIP3    H242749   2.272   4.069  16.588 -1.3772  1.3673 -0.4922
 7112TIP3   OH242750   3.756   6.464   2.587  0.4967  0.2996  0.2093
 7112TIP3    H142751   3.772   6.557   2.603  1.4546  0.4948 -1.6987
 7112TIP3    H242752   3.665   6.450   2.614 -0.3275  2.2740 -1.3701
 7113TIP3   OH242753   4.117   3.295   3.002  0.2543  0.3601  0.2774
 7113TIP3    H142754   4.184   3.328   2.941  0.1168 -1.2975 -0.8088
 7113TIP3    H242755   4.034   3.326   2.966  0.2947  0.7876  0.5514
 7114TIP3   OH242756   5.346   4.145  16.519  0.5377  0.0947  0.2308
 7114TIP3    H142757   5.376   4.217  16.574  3.3573 -0.4246 -0.5812
 7114TIP3    H242758   5.402   4.148  16.442 -0.2981 -2.0423 -0.4926
 7115TIP3   OH242759   1.915   3.302   0.713  0.1172  1.4051  0.3857
 7115TIP3    H142760   1.923   3.227   0.772  1.1697  1.2763  0.0793
 7115TIP3    H242761   1.839   3.280   0.658 -0.2404  1.0625  1.0018
 7116TIP3   OH242762   4.068   2.453  11.358  0.2018 -0.3016  0.5038
 7116TIP3    H142763   4.126   2.408  11.296 -1.3154  0.1371 -1.2997
 7116TIP3    H242764   4.127   2.504  11.414  1.7547 -2.3311  0.7921
 7117TIP3   OH242765   6.204   5.605  16.929  0.0827  0.2349  0.3114
 7117TIP3    H142766   6.236   5.692  16.907  0.7747  0.2675  1.4259
 7117TIP3    H242767   6.112   5.619  16.951  0.1883  0.6880  0.4771
 7118TIP3   OH242768   6.750   1.697  16.636  0.0033 -0.0326 -0.4371
 7118TIP3    H142769   6.809   1.735  16.701 -1.7399 -0.5395  1.4788
 7118TIP3    H242770   6.739   1.766  16.571  1.3769  0.6623  0.0353
 7119TIP3   OH242771   0.619   4.828  12.255  0.3422  0.2690 -0.6543
 7119TIP3    H142772   0.668   4.903  12.289 -2.2961  2.2484 -1.0376
 7119TIP3    H242773   0.556   4.808  12.324 -1.2867  0.6710 -2.0147
 7120TIP3   OH242774   2.159   4.184   3.239  0.1978 -0.4147 -0.4132
 7120TIP3    H142775   2.121   4.154   3.322  0.4773  2.0384  0.6509
 7120TIP3    H242776   2.247   4.147   3.238  0.0341 -0.8210  0.1733
 7121TIP3   OH242777   1.980   6.419  15.785 -0.2026 -0.4399  0.1015
 7121TIP3    H142778   2.036   6.401  15.709 -1.0564  0.6252 -0.8006
 7121TIP3    H242779   1.894   6.438  15.747 -0.1732  2.0356  1.2042
 7122TIP3   OH242780   3.979   4.207  11.957  0.0788 -0.2319  0.2988
 7122TIP3    H142781   3.987   4.245  11.869 -0.2567  0.4361  0.5538
 7122TIP3    H242782   4.040   4.256  12.011  0.0908 -0.4645  0.5007
 7123TIP3   OH242783   3.342   5.131   1.637  0.2395 -0.7032 -0.5324
 7123TIP3    H142784   3.391   5.090   1.708 -1.2028 -0.1838  0.7731
 7123TIP3    H242785   3.272   5.069   1.617 -1.1830  0.4987  0.5901
 7124TIP3   OH242786   6.006   2.567   1.325 -0.4309 -0.0365 -0.0238
 7124TIP3    H142787   5.931   2.611   1.285 -0.4550 -0.7168 -0.7514
 7124TIP3    H242788   6.035   2.505   1.258  1.0297  0.4991  0.0943
 7125TIP3   OH242789   0.186   4.348  14.068  0.1673  0.3029 -0.1172
 7125TIP3    H142790   0.103   4.391  14.087 -0.8679 -2.3331  1.5754
 7125TIP3    H242791   0.230   4.343  14.153  0.7131 -1.0136 -0.4780
 7126TIP3   OH242792   3.408   1.653   5.343 -0.0321 -0.0354 -0.0026
 7126TIP3    H142793   3.353   1.676   5.418 -2.2867  0.9873 -1.9257
 7126TIP3    H242794   3.475   1.721   5.341 -0.3445  0.3024  0.6773
 7127TIP3   OH242795   0.386   6.342   2.178  0.3404  0.3887 -0.3618
 7127TIP3    H142796   0.477   6.367   2.195  0.3817 -0.2335  0.3180
 7127TIP3    H242797   0.393   6.273   2.111  0.2950  1.2198 -1.2405
 7128TIP3   OH242798   6.308   3.407  15.574  0.0002  0.3883 -0.3476
 7128TIP3    H142799   6.250   3.342  15.614 -0.9086  2.1018  1.1971
 7128TIP3    H242800   6.300   3.392  15.480 -1.8831 -0.3270 -0.0900
 7129TIP3   OH242801   4.595   5.120  14.562  0.0997 -1.0102  0.8817
 7129TIP3    H142802   4.508   5.096  14.595 -1.7327  1.5350 -1.8326
 7129TIP3    H242803   4.604   5.213  14.584  0.6521 -0.3861 -1.8324
 7130TIP3   OH242804   3.794   6.759  17.013 -0.0482 -0.0695  0.0243
 7130TIP3    H142805   3.811   6.825  17.081 -1.1724 -1.0450  1.2790
 7130TIP3    H242806   3.783   6.811  16.933  0.4330  1.1654  0.7263
 7131TIP3   OH242807   4.065   0.226   3.389 -0.0576 -0.0591 -0.3387
 7131TIP3    H142808   4.044   0.155   3.449  0.5939  0.2465  0.2581
 7131TIP3    H242809   4.158   0.217   3.373  0.1471  0.9903  0.1896
 7132TIP3   OH242810   1.106   6.277  14.642 -0.2314 -0.4172 -0.1362
 7132TIP3    H142811   1.098   6.349  14.579 -2.0631  0.1176  0.6731
 7132TIP3    H242812   1.179   6.303  14.698 -0.3784  0.4443 -0.3305
 7133TIP3   OH242813   2.810   5.073   2.912  0.2060  0.3756  0.4837
 7133TIP3    H142814   2.858   5.054   2.831  0.6657 -0.5930  0.9777
 7133TIP3    H242815   2.822   5.167   2.925  0.8808  0.3735 -0.0998
 7134TIP3   OH242816   0.683   4.310   2.697 -0.5929 -0.1692  0.1699
 7134TIP3    H142817   0.588   4.314   2.706 -0.5788  0.6056 -0.0452
 7134TIP3    H242818   0.701   4.217   2.679 -1.4676 -0.0205 -1.5905
 7135TIP3   OH242819   5.841   4.719  15.461  0.2967 -0.1123 -0.1543
 7135TIP3    H142820   5.807   4.792  15.513 -1.3575 -0.3176 -0.9213
 7135TIP3    H242821   5.861   4.758  15.376  0.5237 -0.3146 -0.1933
 7136TIP3   OH242822   5.008   3.563   3.783 -0.3841 -0.0278  0.1707
 7136TIP3    H142823   5.039   3.481   3.820 -2.3560  0.3407  2.7886
 7136TIP3    H242824   5.072   3.628   3.811  0.0265 -0.3189 -0.0876
 7137TIP3   OH242825   2.702   2.195   5.258  0.2707  0.4280  0.1080
 7137TIP3    H142826   2.618   2.170   5.298 -0.1130  0.0343 -0.9239
 7137TIP3    H242827   2.692   2.288   5.238  0.8017  0.8520  1.7406
 7138TIP3   OH242828   1.771   4.769   6.065  0.5661  0.2200  0.2050
 7138TIP3    H142829   1.845   4.709   6.057  2.6695  2.8567 -0.8671
 7138TIP3    H242830   1.807   4.846   6.110 -1.1064  2.1911 -1.6687
 7139TIP3   OH242831   4.659   4.269   4.475  0.7547 -0.2808  0.0774
 7139TIP3    H142832   4.631   4.360   4.481 -0.3865 -0.6935  1.3739
 7139TIP3    H242833   4.611   4.234   4.400 -1.0387 -0.5665  1.3400
 7140TIP3   OH242834   5.934   2.152  13.193 -0.7987  0.1761  0.4586
 7140TIP3    H142835   5.940   2.163  13.098  0.0804  0.4596  0.5419
 7140TIP3    H242836   6.006   2.093  13.214 -1.9489 -1.1611  0.7589
 7141TIP3   OH242837   4.293   6.410   5.048  0.0287 -0.1164  0.5564
 7141TIP3    H142838   4.316   6.328   5.092  0.3931  0.0931  0.7560
 7141TIP3    H242839   4.365   6.425   4.987 -1.4977 -1.5214 -1.6689
 7142TIP3   OH242840   0.442   6.723   1.264 -0.3999  0.0609 -0.1376
 7142TIP3    H142841   0.459   6.813   1.292  1.4982 -0.0201 -1.0226
 7142TIP3    H242842   0.363   6.698   1.313 -0.1886  1.7418  1.1066
 7143TIP3   OH242843   4.207   3.543  15.584  0.3861 -0.3011 -0.7895
 7143TIP3    H142844   4.255   3.532  15.502  0.9780 -1.3690 -0.3259
 7143TIP3    H242845   4.207   3.455  15.623  2.1113  0.6075  1.4071
 7144TIP3   OH242846   2.636   1.188  12.392  0.1251  0.5242 -0.2307
 7144TIP3    H142847   2.643   1.226  12.304 -1.3167 -0.3612 -0.7398
 7144TIP3    H242848   2.702   1.119  12.393 -1.7683 -1.3730 -1.6443
 7145TIP3   OH242849   0.182   1.752  13.768 -0.2635  0.8184  0.3133
 7145TIP3    H142850   0.132   1.713  13.840  0.5774  1.3942  1.2181
 7145TIP3    H242851   0.116   1.774  13.702 -0.9403 -0.5298  0.5243
 7146TIP3   OH242852   5.729   2.068   1.518 -0.1570 -0.9134  0.6114
 7146TIP3    H142853   5.654   2.079   1.459 -0.7872 -1.7047  1.2687
 7146TIP3    H242854   5.702   2.109   1.600  0.4948 -0.3495  0.5513
 7147TIP3   OH242855   2.488   3.026  14.659 -0.6253  0.2550  0.3103
 7147TIP3    H142856   2.571   2.995  14.621 -1.1201  0.1816 -0.7157
 7147TIP3    H242857   2.466   2.960  14.724 -0.1237  0.0239  0.2519
 7148TIP3   OH242858   3.291   6.762   2.714  0.0566 -0.3056  0.0695
 7148TIP3    H142859   3.283   6.733   2.624 -0.2263 -0.1948  0.0579
 7148TIP3    H242860   3.248   6.693   2.766  1.1176 -0.8733  0.2081
 7149TIP3   OH242861   1.984   1.801  15.324 -0.7562 -0.4975  0.1307
 7149TIP3    H142862   1.964   1.745  15.399 -0.0197  0.7577  1.2788
 7149TIP3    H242863   1.911   1.788  15.264 -1.6719 -1.0200  1.3433
 7150TIP3   OH242864   6.166   5.251  13.702 -0.5450 -0.4803 -0.4472
 7150TIP3    H142865   6.129   5.332  13.667  0.9063  0.7312  0.7287
 7150TIP3    H242866   6.255   5.275  13.728 -0.3665 -2.2580  0.6528
 7151TIP3   OH242867   6.633   0.662   2.465  0.5590 -0.0866  0.1599
 7151TIP3    H142868   6.682   0.725   2.518  1.2339 -1.5321  1.2933
 7151TIP3    H242869   6.561   0.633   2.521 -0.5959  0.7394 -0.8766
 7152TIP3   OH242870   5.786   2.231   4.633 -0.1097 -0.2664 -0.5157
 7152TIP3    H142871   5.728   2.306   4.644  0.2390 -0.3966  2.6902
 7152TIP3    H242872   5.866   2.267   4.595 -0.2621  0.8771  0.2305
 7153TIP3   OH242873   1.858   3.230  15.438 -0.4586 -0.0138 -0.9237
 7153TIP3    H142874   1.843   3.139  15.413 -0.7917 -0.0611 -0.5545
 7153TIP3    H242875   1.863   3.277  15.355  1.0538 -0.5676 -1.1575
 7154TIP3   OH242876   2.651   4.169  16.232 -0.1104  0.4191  0.2643
 7154TIP3    H142877   2.747   4.165  16.232 -0.0823  0.9939 -0.1635
 7154TIP3    H242878   2.631   4.262  16.232 -0.6743  0.2986  0.8846
 7155TIP3   OH242879   3.571   5.115  16.411  0.5011 -0.3776 -0.2063
 7155TIP3    H142880   3.567   5.057  16.335 -1.5308  0.6985 -0.9651
 7155TIP3    H242881   3.511   5.077  16.474 -1.0175  0.9637 -0.7967
 7156TIP3   OH242882   2.517   4.028  15.191  0.0261 -0.1721 -0.0708
 7156TIP3    H142883   2.571   3.981  15.127  0.8633 -0.6093  0.9453
 7156TIP3    H242884   2.437   3.975  15.198 -0.4500  0.3566 -1.4154
 7157TIP3   OH242885   1.964   4.854   5.321 -0.3161  0.4579  0.7169
 7157TIP3    H142886   1.998   4.771   5.354 -2.2270 -0.3242  0.8285
 7157TIP3    H242887   2.015   4.921   5.365 -0.0534 -0.6383  2.1178
 7158TIP3   OH242888   5.044   0.147  15.966  0.3753  0.1090  0.0428
 7158TIP3    H142889   4.993   0.213  16.014  0.9443  0.3783  0.2735
 7158TIP3    H242890   5.088   0.197  15.897  0.4543 -0.1024 -0.0598
 7159TIP3   OH242891   5.357   3.924  11.986 -0.7046  0.2853 -0.3583
 7159TIP3    H142892   5.442   3.950  11.950 -0.1320  1.0902  1.5153
 7159TIP3    H242893   5.310   4.007  11.999 -0.0910  0.2174  2.6621
 7160TIP3   OH242894   1.546   3.562  15.674 -0.2582 -0.2471  0.0646
 7160TIP3    H142895   1.624   3.515  15.704 -0.2383 -0.9823 -1.1170
 7160TIP3    H242896   1.580   3.641  15.632 -0.1044 -0.9384 -1.1227
 7161TIP3   OH242897   2.994   3.060  16.865 -0.0633 -0.0451 -0.4856
 7161TIP3    H142898   3.022   3.134  16.919 -1.1651 -0.7783  1.1007
 7161TIP3    H242899   2.973   3.100  16.780 -0.7603  1.5060  0.3831
 7162TIP3   OH242900   0.257   1.735   6.234 -0.1004  0.4325  0.0515
 7162TIP3    H142901   0.275   1.819   6.276  1.9062  0.3996 -0.6676
 7162TIP3    H242902   0.249   1.756   6.141  1.1582 -0.2484 -0.2295
 7163TIP3   OH242903   0.665   1.812   0.968 -0.5965  0.5908 -0.4248
 7163TIP3    H142904   0.731   1.825   0.899 -0.6093  2.2780 -0.1490
 7163TIP3    H242905   0.716   1.793   1.047 -0.5509 -0.6399 -0.7498
 7164TIP3   OH242906   0.059   5.665   4.927 -0.3466  0.4089 -0.5707
 7164TIP3    H142907   0.036   5.698   5.014  0.7315 -0.4562  0.0549
 7164TIP3    H242908   0.144   5.622   4.940  0.2597  1.0724 -2.2364
 7165TIP3   OH242909   1.690   0.287   5.426 -0.2331  0.4661 -0.5183
 7165TIP3    H142910   1.634   0.222   5.386  0.0812 -0.3439  0.3457
 7165TIP3    H242911   1.683   0.364   5.369 -2.3242  0.4294 -0.3378
 7166TIP3   OH242912   4.182   2.930   3.846 -0.4861 -0.2328 -0.4401
 7166TIP3    H142913   4.158   3.020   3.824 -0.2711  0.3013  1.4797
 7166TIP3    H242914   4.121   2.876   3.796 -2.7084  1.0364  0.8265
 7167TIP3   OH242915   6.367   0.920  15.223 -0.5351 -0.5043 -0.5007
 7167TIP3    H142916   6.370   0.827  15.242 -0.5352 -0.5492 -0.7172
 7167TIP3    H242917   6.277   0.935  15.192 -0.6938 -0.3331  0.0408
 7168TIP3   OH242918   3.708   5.381   3.159 -0.5611  0.1880 -0.2049
 7168TIP3    H142919   3.712   5.299   3.111  2.5490 -0.6953  1.4480
 7168TIP3    H242920   3.624   5.420   3.132 -2.6036 -3.9425 -0.2236
 7169TIP3   OH242921   2.966   2.317   1.737  0.5364 -0.1529 -0.1600
 7169TIP3    H142922   2.986   2.407   1.709 -0.5758  0.0281 -0.3703
 7169TIP3    H242923   3.050   2.283   1.768  1.4252  0.2361 -2.0674
 7170TIP3   OH242924   6.782   1.927   1.937  0.0455 -0.0247  0.4741
 7170TIP3    H142925   6.843   2.001   1.938 -0.8071  0.6925  0.3424
 7170TIP3    H242926   6.836   1.851   1.916  0.9804  0.5159  0.8970
 7171TIP3   OH242927   3.040   6.368   5.499 -0.4850 -0.2227  0.0844
 7171TIP3    H142928   3.068   6.297   5.557  0.0220 -0.9868 -1.0917
 7171TIP3    H242929   2.947   6.379   5.519 -0.7827 -1.8197 -0.3481
 7172TIP3   OH242930   1.353   0.605   5.258  0.2322 -0.4497  0.1927
 7172TIP3    H142931   1.292   0.535   5.281  0.0597  0.2691  2.0077
 7172TIP3    H242932   1.353   0.663   5.334  2.3911  0.1016 -0.1921
 7173TIP3   OH242933   0.672   5.429   5.951 -0.4751  0.1049  0.9729
 7173TIP3    H142934   0.665   5.503   6.012 -1.8155  0.6781  0.1522
 7173TIP3    H242935   0.643   5.354   6.002  1.3997  0.0275  1.9778
 7174TIP3   OH242936   5.160   6.223   1.375  0.0207 -0.2193  0.5697
 7174TIP3    H142937   5.255   6.227   1.388  0.1521  0.4648 -0.5438
 7174TIP3    H242938   5.130   6.313   1.387 -0.3722 -0.2780  0.0510
 7175TIP3   OH242939   2.654   2.563   1.933 -0.1573 -0.3400  0.3224
 7175TIP3    H142940   2.689   2.628   1.994 -0.8201  1.5499 -1.2794
 7175TIP3    H242941   2.720   2.493   1.932  2.2294  1.8462 -0.4795
 7176TIP3   OH242942   0.430   2.504   2.247  0.1599 -0.1137 -0.1987
 7176TIP3    H142943   0.465   2.529   2.161  0.1046  0.6935  0.0107
 7176TIP3    H242944   0.505   2.469   2.295  0.6263  1.3234  0.1414
 7177TIP3   OH242945   2.837   5.979  12.644  0.1237 -0.0566  0.1508
 7177TIP3    H142946   2.852   6.044  12.576  1.9760 -1.5502 -0.8964
 7177TIP3    H242947   2.768   5.922  12.609  0.3702 -0.2279 -0.0569
 7178TIP3   OH242948   1.075   1.498   3.959  0.1551 -0.0857  0.0832
 7178TIP3    H142949   0.984   1.524   3.947  0.4281  0.7380 -0.2181
 7178TIP3    H242950   1.126   1.578   3.943  0.9332 -0.5495  0.1886
 7179TIP3   OH242951   2.323   4.722  15.837 -0.1169 -0.1472 -0.2966
 7179TIP3    H142952   2.230   4.725  15.861 -0.1690  1.2199 -0.6037
 7179TIP3    H242953   2.348   4.631  15.850 -0.5659  0.1648  3.3071
 7180TIP3   OH242954   3.606   4.720  15.423 -0.0841  0.3638 -0.1979
 7180TIP3    H142955   3.539   4.711  15.490 -0.8601  0.1884 -0.9930
 7180TIP3    H242956   3.572   4.672  15.348  1.3581 -0.5276 -0.2918
 7181TIP3   OH242957   1.000   0.941   1.209 -0.1851  0.0189  0.4069
 7181TIP3    H142958   0.980   1.011   1.270  0.1005 -1.0815  1.7893
 7181TIP3    H242959   1.049   0.877   1.261  0.0398 -0.9490 -0.9652
 7182TIP3   OH242960   3.045   1.951   2.862  0.7026 -0.0496  0.3723
 7182TIP3    H142961   3.045   1.887   2.933 -1.0202 -0.2346  0.2102
 7182TIP3    H242962   2.955   1.983   2.858  1.3348  1.7004 -0.1622
 7183TIP3   OH242963   6.345   1.531   1.602 -0.0860  0.0932 -0.0486
 7183TIP3    H142964   6.274   1.595   1.601 -1.1855 -1.0658  1.3220
 7183TIP3    H242965   6.424   1.582   1.619 -0.8122  1.1922  0.0485
 7184TIP3   OH242966   1.212   6.570   4.704 -0.2549  0.5820 -0.1428
 7184TIP3    H142967   1.126   6.589   4.668 -1.2637 -1.0620  1.3599
 7184TIP3    H242968   1.245   6.497   4.652 -1.9727 -2.2096  2.5055
 7185TIP3   OH242969   6.084   6.528  11.513 -0.1592  0.1901  0.2451
 7185TIP3    H142970   6.156   6.515  11.574  0.9504 -0.9622 -1.2623
 7185TIP3    H242971   6.124   6.520  11.426 -1.7833  1.3175 -0.6358
 7186TIP3   OH242972   2.850   4.131  13.293 -0.3022  0.5271  0.1514
 7186TIP3    H142973   2.841   4.224  13.314 -2.0350  0.3797  0.1719
 7186TIP3    H242974   2.844   4.128  13.197  1.3321  0.5826  0.0367
 7187TIP3   OH242975   4.585   2.291  15.664  0.3143 -0.0323 -0.7473
 7187TIP3    H142976   4.638   2.355  15.615  0.5376  0.2979 -0.0920
 7187TIP3    H242977   4.650   2.236  15.709  0.1182 -0.6020 -1.1583
 7188TIP3   OH242978   0.534   4.925  15.798 -0.3965  0.0716 -0.0380
 7188TIP3    H142979   0.573   4.837  15.805 -0.8625 -0.0612  1.1442
 7188TIP3    H242980   0.485   4.923  15.716  1.4758  0.0077 -1.1976
 7189TIP3   OH242981   0.955   0.752  15.264 -0.1331  0.3674  0.1753
 7189TIP3    H142982   0.878   0.744  15.322 -0.0358 -1.4677  0.0810
 7189TIP3    H242983   0.969   0.847  15.256 -2.6221  0.7449 -0.1163
 7190TIP3   OH242984   2.244   0.523  16.254  0.1405  0.0188 -0.3896
 7190TIP3    H142985   2.183   0.465  16.300 -0.0022 -1.2227 -2.1174
 7190TIP3    H242986   2.312   0.541  16.319 -0.4350 -1.0971  0.5599
 7191TIP3   OH242987   3.083   3.375   5.700  0.1920  0.4070  0.3395
 7191TIP3    H142988   3.122   3.362   5.613 -0.3797 -1.9662  0.4128
 7191TIP3    H242989   3.045   3.463   5.695  0.7350  0.5660 -1.6006
 7192TIP3   OH242990   0.323   4.384   0.842 -0.3813 -0.4479 -0.1973
 7192TIP3    H142991   0.390   4.328   0.802 -0.4594 -0.8230  0.1874
 7192TIP3    H242992   0.287   4.330   0.912 -0.6462 -0.0079  0.0016
 7193TIP3   OH242993   4.977   0.800   3.948 -0.8364 -0.1643  0.7224
 7193TIP3    H142994   5.037   0.753   3.891 -0.3967  0.5379  0.5918
 7193TIP3    H242995   5.013   0.787   4.036  0.5548  1.7226  0.4785
 7194TIP3   OH242996   6.307   6.562  13.391 -0.4506 -0.1170  0.8494
 7194TIP3    H142997   6.365   6.490  13.370 -0.9666  0.1223 -1.6389
 7194TIP3    H242998   6.223   6.538  13.351 -0.4825  2.0513 -0.5180
 7195TIP3   OH242999   6.209   4.730   2.956 -0.6428  0.5770 -0.2279
 7195TIP3    H143000   6.207   4.670   2.881 -0.1898  1.3400 -0.8515
 7195TIP3    H243001   6.302   4.735   2.980 -0.7901  0.3137  0.4024
 7196TIP3   OH243002   3.850   1.968   1.836  0.0097 -0.3901  0.5240
 7196TIP3    H143003   3.836   2.011   1.752  1.5849 -0.6138  0.1409
 7196TIP3    H243004   3.910   1.896   1.817 -0.4009 -1.0633  1.6679
 7197TIP3   OH243005   0.062   6.724   0.069 -0.3187 -0.5084  0.1476
 7197TIP3    H143006   0.022   6.638   0.057  0.7969 -0.8773 -0.9961
 7197TIP3    H243007   0.000   6.785   0.030  0.0402 -1.0304 -1.2398
 7198TIP3   OH243008   4.422   3.191  11.772  0.0925 -0.5108 -0.0331
 7198TIP3    H143009   4.331   3.190  11.803 -0.7916  1.1797 -2.4136
 7198TIP3    H243010   4.459   3.270  11.809  0.7799 -1.4755  1.3724
 7199TIP3   OH243011   4.234   0.372  10.868 -0.1230 -0.4602 -0.3602
 7199TIP3    H143012   4.215   0.458  10.905  1.2807 -0.1918 -0.2540
 7199TIP3    H243013   4.193   0.374  10.781  0.0731  0.3753 -0.4369
 7200TIP3   OH243014   3.902   1.878   4.338 -0.7894  0.4241 -0.8137
 7200TIP3    H143015   3.871   1.805   4.391 -0.0457 -0.2894 -1.3438
 7200TIP3    H243016   3.953   1.837   4.268 -2.1828  1.3223 -2.3818
 7201TIP3   OH243017   5.766   1.784   3.762  0.1891 -0.4427 -0.7090
 7201TIP3    H143018   5.776   1.849   3.693 -0.9439 -1.0816 -1.5010
 7201TIP3    H243019   5.834   1.806   3.826  0.4679  0.8948 -1.4378
 7202TIP3   OH243020   3.338   5.943   0.434 -0.5918 -0.6708 -0.2819
 7202TIP3    H143021   3.260   5.996   0.451  0.9365  1.0053  1.7706
 7202TIP3    H243022   3.304   5.858   0.407 -3.1345  0.9247 -2.4544
 7203TIP3   OH243023   6.271   3.067  16.173  0.3976 -0.2313 -0.1704
 7203TIP3    H143024   6.284   2.974  16.157 -0.6708 -0.4719  0.3230
 7203TIP3    H243025   6.357   3.098  16.203  0.3257 -1.4210  1.3477
 7204TIP3   OH243026   1.648   4.739  14.525  0.3921  0.8396 -0.0471
 7204TIP3    H143027   1.619   4.824  14.492  0.4745  1.0208  0.3406
 7204TIP3    H243028   1.734   4.726  14.485 -0.3713  0.1374 -1.4866
 7205TIP3   OH243029   5.807   2.097   5.575 -0.2234  0.3402  0.3478
 7205TIP3    H143030   5.738   2.098   5.641 -2.0764 -2.3126 -1.3757
 7205TIP3    H243031   5.853   2.014   5.590  0.8897  0.8687 -0.1377
 7206TIP3   OH243032   0.977   3.546  13.976 -0.2359  0.2050 -0.7267
 7206TIP3    H143033   1.017   3.460  13.968 -1.5795 -0.6478  1.3113
 7206TIP3    H243034   0.888   3.529  14.006 -1.6662  2.1547 -3.5724
 7207TIP3   OH243035   1.877   1.509   3.422  0.1340  0.3489 -0.2789
 7207TIP3    H143036   1.894   1.493   3.329 -0.4620 -1.0772 -0.1651
 7207TIP3    H243037   1.833   1.594   3.424  1.1999  0.9316 -1.1869
 7208TIP3   OH243038   5.855   0.957   0.127 -0.4246 -0.1863  0.6646
 7208TIP3    H143039   5.810   1.007   0.058 -0.0578 -0.6719  0.0614
 7208TIP3    H243040   5.889   1.023   0.186 -0.1034  0.2785 -0.0271
 7209TIP3   OH243041   2.289   3.132  16.398 -0.3513 -0.0046  0.2608
 7209TIP3    H143042   2.309   3.222  16.423 -0.7177 -0.3489  1.8327
 7209TIP3    H243043   2.296   3.082  16.479  2.0857 -1.7979 -0.9635
 7210TIP3   OH243044   4.128   5.193  12.898 -0.7424  0.3213 -0.4092
 7210TIP3    H143045   4.177   5.125  12.944 -1.6093 -0.1403 -0.1602
 7210TIP3    H243046   4.160   5.190  12.808 -0.9205 -0.5572 -0.4466
 7211TIP3   OH243047   6.759   4.835  10.764 -0.7592  0.4619  0.5036
 7211TIP3    H143048   6.748   4.888  10.685 -0.7944 -0.0624  0.1502
 7211TIP3    H243049   6.755   4.744  10.732 -0.1731  0.2506  1.0279
 7212TIP3   OH243050   3.024   0.518  12.639 -0.1700  0.3773  0.6947
 7212TIP3    H143051   2.976   0.582  12.586  1.5339  0.3763 -0.9117
 7212TIP3    H243052   3.065   0.460  12.575  2.1082  0.4943  2.0145
 7213TIP3   OH243053   4.598   0.412   2.664  0.0180  0.2619  0.0596
 7213TIP3    H143054   4.690   0.407   2.635 -0.2228  0.1283 -0.7015
 7213TIP3    H243055   4.602   0.395   2.758  0.5959 -1.6579 -0.2879
 7214TIP3   OH243056   5.507   5.835  14.961  0.4027 -0.1885  0.0941
 7214TIP3    H143057   5.484   5.769  15.026  1.4487 -4.0023 -3.2104
 7214TIP3    H243058   5.599   5.819  14.943  0.6270  2.0920 -0.9178
 7215TIP3   OH243059   5.876   0.025  17.074 -0.1945 -0.8028  0.2953
 7215TIP3    H143060   5.795   0.071  17.053 -0.0191 -0.7007 -0.1601
 7215TIP3    H243061   5.856  -0.023  17.154 -0.8193 -1.0603 -0.0082
 7216TIP3   OH243062   6.069   5.896  11.965 -0.1248 -0.0504 -0.2343
 7216TIP3    H143063   6.007   5.944  11.910  0.0629  0.5992  0.1216
 7216TIP3    H243064   6.014   5.837  12.017 -0.4880  0.9294  0.4897
 7217TIP3   OH243065   4.570   6.289  11.896 -0.0722  0.1384 -0.4051
 7217TIP3    H143066   4.551   6.260  11.985  0.5950  0.2168 -0.2285
 7217TIP3    H243067   4.641   6.232  11.867  1.0051  1.3345 -0.1906
 7218TIP3   OH243068   2.311   1.078  13.243  0.3430 -0.2279 -0.0985
 7218TIP3    H143069   2.217   1.074  13.262  0.3739 -0.5092 -0.0000
 7218TIP3    H243070   2.349   1.007  13.295  0.8655  1.1018  1.3779
 7219TIP3   OH243071   5.677   0.674   1.267  0.0872 -0.2242 -0.1560
 7219TIP3    H143072   5.587   0.660   1.298  0.1913  0.4663  0.4923
 7219TIP3    H243073   5.666   0.713   1.180 -0.2618  0.5987  0.2479
 7220TIP3   OH243074   5.540   0.862  12.849 -0.2981 -0.0361 -0.4997
 7220TIP3    H143075   5.450   0.856  12.881 -0.3428 -0.4936 -0.7021
 7220TIP3    H243076   5.582   0.925  12.907 -0.2630 -1.1633  0.7323
 7221TIP3   OH243077   2.097   2.591   0.636  0.2671  0.5380 -0.4322
 7221TIP3    H143078   2.045   2.556   0.563 -1.6400 -0.5328  1.3778
 7221TIP3    H243079   2.152   2.517   0.663 -0.8724  0.1177  0.8149
 7222TIP3   OH243080   4.336   4.491   5.478 -0.5566 -0.4923  0.1221
 7222TIP3    H143081   4.385   4.465   5.400  0.2249 -1.2182  0.8485
 7222TIP3    H243082   4.390   4.559   5.518 -0.9687 -0.1075  0.0334
 7223TIP3   OH243083   3.825   3.502  11.780 -0.0318 -0.0625 -0.0707
 7223TIP3    H143084   3.829   3.520  11.874  0.4504  0.7984 -0.2438
 7223TIP3    H243085   3.916   3.487  11.754 -0.1171  0.0788 -0.4631
 7224TIP3   OH243086   1.370   0.606  16.404 -0.0966  0.2371  0.3696
 7224TIP3    H143087   1.314   0.556  16.464 -0.5342  0.8022  0.4425
 7224TIP3    H243088   1.420   0.540  16.357  0.6670 -0.1947  1.7474
 7225TIP3   OH243089   5.753   3.506  11.659  0.3887 -0.2962 -0.2307
 7225TIP3    H143090   5.728   3.503  11.567  1.2478 -1.1317 -0.4382
 7225TIP3    H243091   5.676   3.474  11.706 -0.2367  0.6238 -0.6144
 7226TIP3   OH243092   1.350   0.163  16.743  0.1897 -0.3186 -0.3182
 7226TIP3    H143093   1.423   0.225  16.739  1.1457 -1.3588  0.7260
 7226TIP3    H243094   1.320   0.156  16.653  1.1005  0.4469 -0.6958
 7227TIP3   OH243095   5.953   3.627  13.479  0.0374 -0.0465  0.0251
 7227TIP3    H143096   5.951   3.683  13.401 -1.9019  1.3269  1.0193
 7227TIP3    H243097   5.981   3.686  13.549 -0.6208 -0.6922  0.8253
 7228TIP3   OH243098   3.844   5.453   2.383  0.2282  0.3919 -0.3934
 7228TIP3    H143099   3.819   5.371   2.426  0.2662  0.0462 -1.0346
 7228TIP3    H243100   3.938   5.446   2.369  0.4420  1.0671  0.6629
 7229TIP3   OH243101   2.297   4.536   1.026  0.2436  0.6347 -0.5811
 7229TIP3    H143102   2.290   4.448   0.989  1.7420  0.1642  0.1823
 7229TIP3    H243103   2.327   4.521   1.116 -0.6822  1.8732 -0.0588
 7230TIP3   OH243104   5.985   4.624   6.159  0.3131  0.1804  0.8059
 7230TIP3    H143105   5.926   4.556   6.127  1.8608 -0.7642 -0.0749
 7230TIP3    H243106   6.048   4.637   6.088  0.9017  1.4989  1.5469
 7231TIP3   OH243107   3.179   3.539  17.105 -0.5679 -0.0964 -0.0246
 7231TIP3    H143108   3.243   3.526  17.035 -0.1684 -0.8269  0.4693
 7231TIP3    H243109   3.219   3.498  17.181 -0.1954  2.2473  1.0849
 7232TIP3   OH243110   4.915   2.355  13.625  0.1129 -0.0426 -0.1084
 7232TIP3    H143111   4.919   2.398  13.539  2.1768 -0.1806 -0.1067
 7232TIP3    H243112   4.955   2.269  13.610  0.3603 -0.1180  0.9685
 7233TIP3   OH243113   2.809   6.106  12.407 -0.4044  0.6703  0.3087
 7233TIP3    H143114   2.769   6.020  12.392 -1.5082  1.4985 -1.6054
 7233TIP3    H243115   2.886   6.107  12.351  0.2435  0.5106  1.1838
 7234TIP3   OH243116   5.758   3.172  14.660 -0.6402  0.2760 -0.6034
 7234TIP3    H143117   5.852   3.172  14.674 -0.7030  3.2473  0.1541
 7234TIP3    H243118   5.744   3.109  14.589  1.7722 -0.9251 -0.0533
 7235TIP3   OH243119   2.856   4.956  12.322 -0.3600 -0.2806 -0.5215
 7235TIP3    H143120   2.767   4.974  12.352 -0.0430 -0.7877  0.8013
 7235TIP3    H243121   2.863   4.860  12.327  0.5120 -0.1910  0.1903
 7236TIP3   OH243122   4.796   4.074   5.238  0.3832  0.5315 -0.0602
 7236TIP3    H143123   4.880   4.029   5.250  0.4697  0.7556  0.1772
 7236TIP3    H243124   4.741   4.010   5.193  0.3428  0.0027  0.7343
 7237TIP3   OH243125   6.058   0.319   1.758 -0.3664  0.0175 -0.5162
 7237TIP3    H143126   6.048   0.226   1.741  0.5195 -0.7256  2.7632
 7237TIP3    H243127   5.969   0.353   1.762 -0.7264 -0.9060 -0.6081
 7238TIP3   OH243128   3.482   4.922  11.494 -0.1657 -0.3946 -0.3994
 7238TIP3    H143129   3.491   4.958  11.406 -3.9861  1.5807 -0.1092
 7238TIP3    H243130   3.535   4.980  11.549  1.8927 -1.3827 -1.3107
 7239TIP3   OH243131   0.533   0.392  14.503  0.1612  0.7374 -0.2653
 7239TIP3    H143132   0.445   0.366  14.476  0.4626 -0.3667 -0.1957
 7239TIP3    H243133   0.550   0.343  14.583  0.7644  1.0860 -0.1731
 7240TIP3   OH243134   3.335   5.161  15.068  0.5102 -0.4797 -0.5952
 7240TIP3    H143135   3.373   5.123  15.148 -1.8820 -1.2176  0.2319
 7240TIP3    H243136   3.241   5.149  15.079  0.0287  1.3429 -2.5805
 7241TIP3   OH243137   0.638   1.765  15.269 -0.4523 -0.0909  0.1598
 7241TIP3    H143138   0.556   1.790  15.311 -0.9011  0.8856 -1.2962
 7241TIP3    H243139   0.698   1.837  15.287 -1.0246  0.9420 -1.9418
 7242TIP3   OH243140   4.507   3.205  16.168 -0.0784 -0.4679 -0.2357
 7242TIP3    H143141   4.433   3.241  16.215 -0.1419  1.6318 -1.8655
 7242TIP3    H243142   4.575   3.273  16.173 -0.4249  0.2695 -3.9181
 7243TIP3   OH243143   2.660   2.830  16.559  0.4158 -0.2374 -0.1868
 7243TIP3    H143144   2.667   2.738  16.536  0.7608  0.0753 -1.3673
 7243TIP3    H243145   2.644   2.831  16.654 -0.5326 -1.5329 -0.3230
 7244TIP3   OH243146   6.441   1.617   0.721  0.0141 -0.3057 -0.6388
 7244TIP3    H143147   6.535   1.632   0.716  0.2390 -1.7759 -1.3864
 7244TIP3    H243148   6.431   1.522   0.707 -1.6476 -0.0090 -1.6837
 7245TIP3   OH243149   5.388   0.355   5.919  0.1015  0.2383 -0.0908
 7245TIP3    H143150   5.312   0.297   5.916 -1.3518  2.1256 -1.5088
 7245TIP3    H243151   5.461   0.300   5.889 -0.6982 -1.5667  1.1680
 7246TIP3   OH243152   2.814   3.826   5.449 -0.3754 -0.2527 -0.0644
 7246TIP3    H143153   2.751   3.755   5.434 -0.3784 -0.1909 -0.3425
 7246TIP3    H243154   2.837   3.818   5.542 -3.2596  1.7304  0.9010
 7247TIP3   OH243155   4.146   0.008  14.753 -0.3875  0.2758 -0.3240
 7247TIP3    H143156   4.198   0.002  14.833 -0.4257 -1.8058 -0.4315
 7247TIP3    H243157   4.076  -0.055  14.765 -1.1369  0.8671 -1.4776
 7248TIP3   OH243158   4.459   1.712  14.005 -0.1337 -0.3093 -0.6069
 7248TIP3    H143159   4.536   1.691  14.058 -0.2217  0.0562 -0.3328
 7248TIP3    H243160   4.463   1.807  13.994 -1.2483 -0.1304  0.4811
 7249TIP3   OH243161   0.967   5.670   4.297  0.0794 -0.4972 -0.1318
 7249TIP3    H143162   0.933   5.591   4.339  1.6299 -0.0072  2.2024
 7249TIP3    H243163   1.061   5.655   4.291  0.3302  0.9888 -0.0678
 7250TIP3   OH243164   2.092   5.566  12.620 -0.1845  0.0676 -0.1038
 7250TIP3    H143165   2.036   5.501  12.664  0.8313 -1.4183 -0.9634
 7250TIP3    H243166   2.179   5.552  12.656 -0.1338  1.6226  0.4068
 7251TIP3   OH243167   6.369   1.680  10.882  0.1912 -0.2470  0.3980
 7251TIP3    H143168   6.323   1.596  10.878 -0.8042  0.3323 -0.6294
 7251TIP3    H243169   6.333   1.730  10.809 -0.8717  1.9040  2.3292
 7252TIP3   OH243170   1.766   1.296   5.934 -0.0250  0.1562 -0.6602
 7252TIP3    H143171   1.730   1.324   6.018  0.6950  3.0784 -1.2583
 7252TIP3    H243172   1.690   1.266   5.884 -0.8272  0.8041  0.1529
 7253TIP3   OH243173   1.938   6.656  16.852 -0.7116  0.7313  0.9767
 7253TIP3    H143174   1.908   6.568  16.828  0.7226  0.6025 -0.4004
 7253TIP3    H243175   1.955   6.699  16.768  0.7096  1.5776  1.6898
 7254TIP3   OH243176   1.363   6.729   3.002  0.1704  0.0314  0.0279
 7254TIP3    H143177   1.455   6.721   2.978 -0.0302 -3.3909  0.1968
 7254TIP3    H243178   1.365   6.755   3.094  0.9591  0.4547 -0.1058
 7255TIP3   OH243179   4.785   6.305  13.036 -0.5146 -0.1133  0.2098
 7255TIP3    H143180   4.812   6.325  12.946 -1.3159 -1.4095 -0.3279
 7255TIP3    H243181   4.822   6.377  13.088  1.9422 -0.5858 -0.8114
 7256TIP3   OH243182   6.410   3.095   0.666  0.2002  0.1852 -0.1876
 7256TIP3    H143183   6.422   3.190   0.671 -1.5981  0.5077 -1.3660
 7256TIP3    H243184   6.427   3.064   0.755 -2.1489  2.0079  0.9648
 7257TIP3   OH243185   5.757   3.412   0.709 -0.6019  0.9436  0.0168
 7257TIP3    H143186   5.759   3.418   0.804 -1.6182 -2.0567  0.2915
 7257TIP3    H243187   5.675   3.455   0.684 -1.2647  0.1009  0.6922
 7258TIP3   OH243188   5.287   4.411  13.214 -0.1047  0.2948  0.0594
 7258TIP3    H143189   5.313   4.496  13.179  0.0541  0.0691 -0.3737
 7258TIP3    H243190   5.202   4.427  13.255  0.1691  0.7740  0.4352
 7259TIP3   OH243191   6.073   3.763  13.908  0.0391 -0.3015 -0.0400
 7259TIP3    H143192   6.140   3.809  13.960 -0.5028 -0.4669  0.8084
 7259TIP3    H243193   5.990   3.793  13.945 -0.3311 -1.2267 -0.1289
 7260TIP3   OH243194   2.921   2.285   0.540 -0.3958  0.2581  0.1546
 7260TIP3    H143195   2.983   2.355   0.519 -0.7170  0.7591  0.8466
 7260TIP3    H243196   2.964   2.205   0.510 -0.2694  0.8070 -1.1595
 7261TIP3   OH243197   3.795   0.788  17.203 -0.7599 -0.4920  0.7874
 7261TIP3    H143198   3.774   0.790  17.109  1.6056  1.0017  0.2527
 7261TIP3    H243199   3.750   0.864  17.239  0.6727  0.5988  0.3126
 7262TIP3   OH243200   1.753   5.297  14.618  0.4298  0.2737 -0.0566
 7262TIP3    H143201   1.721   5.387  14.620  0.2155  0.2322 -1.1660
 7262TIP3    H243202   1.803   5.287  14.699  1.4839  1.7686 -0.5094
 7263TIP3   OH243203   1.232   5.335   1.016 -0.6028 -0.9530 -0.2695
 7263TIP3    H143204   1.170   5.394   1.059 -0.6759  0.5916 -2.3796
 7263TIP3    H243205   1.215   5.250   1.055 -3.4797 -0.4054 -0.1562
 7264TIP3   OH243206   2.229   0.176   1.836 -0.1409 -0.4443 -0.1588
 7264TIP3    H143207   2.238   0.196   1.930  1.5227 -1.9762  0.0556
 7264TIP3    H243208   2.152   0.224   1.808 -0.2286  0.6372  1.8450
 7265TIP3   OH243209   1.612   4.209   0.038  0.4916  0.1502 -0.1770
 7265TIP3    H143210   1.672   4.139   0.062  1.6679  1.1571 -0.1588
 7265TIP3    H243211   1.603   4.262   0.118 -2.1024 -1.1769  0.4816
 7266TIP3   OH243212   4.798   6.423   2.235 -0.0505  0.1755 -0.0245
 7266TIP3    H143213   4.803   6.382   2.148  0.5204  0.6871 -0.2421
 7266TIP3    H243214   4.793   6.517   2.216  1.2137  0.3612  0.5132
 7267TIP3   OH243215   3.095   3.825   2.262  0.2940  0.4624  0.1077
 7267TIP3    H143216   3.097   3.872   2.345  2.0313 -0.2594  0.4902
 7267TIP3    H243217   3.005   3.794   2.255  0.4161 -0.4933  2.3166
 7268TIP3   OH243218   0.077   0.038  12.323  0.7630 -0.3845 -0.0745
 7268TIP3    H143219  -0.014   0.066  12.331  1.4771  1.8037  0.7315
 7268TIP3    H243220   0.112   0.044  12.411  1.3116 -2.6385 -0.1184
 7269TIP3   OH243221   2.891   1.448   3.387  0.6272 -0.0840 -0.3258
 7269TIP3    H143222   2.931   1.382   3.445 -0.2594 -0.2220  0.1462
 7269TIP3    H243223   2.862   1.398   3.310  1.6566  0.0718 -0.8172
 7270TIP3   OH243224   3.385   5.970  14.543 -0.0125  0.2697 -0.2154
 7270TIP3    H143225   3.400   5.898  14.482 -2.4971 -0.5099  0.0469
 7270TIP3    H243226   3.446   5.953  14.615  0.6104 -0.6234 -0.9442
 7271TIP3   OH243227   3.664   1.484  11.841 -0.0338 -0.8333 -0.0549
 7271TIP3    H143228   3.624   1.405  11.877  1.7727 -1.8732 -0.3012
 7271TIP3    H243229   3.656   1.475  11.747  0.2432 -0.7484 -0.0873
 7272TIP3   OH243230   2.112   6.728   2.073 -0.0605  0.1093  0.1636
 7272TIP3    H143231   2.036   6.684   2.111 -1.4885  1.1470 -1.3913
 7272TIP3    H243232   2.181   6.662   2.073 -1.1979 -1.0959  0.8811
 7273TIP3   OH243233   4.288   3.131  15.368 -0.0113 -0.3643  0.0641
 7273TIP3    H143234   4.382   3.114  15.375  0.1370  0.5622  0.2865
 7273TIP3    H243235   4.256   3.125  15.458 -0.0136  0.2025  0.1023
 7274TIP3   OH243236   1.385   3.866  12.824  0.1123  0.2183  0.3227
 7274TIP3    H143237   1.323   3.898  12.890 -1.2029 -0.6931 -0.4332
 7274TIP3    H243238   1.330   3.821  12.760  1.5866 -0.7378 -0.3039
 7275TIP3   OH243239   5.255   6.081  13.827 -0.1044  0.0275 -0.2125
 7275TIP3    H143240   5.249   6.176  13.836  1.8303  0.2034 -0.5578
 7275TIP3    H243241   5.342   6.066  13.792 -1.1002 -1.7700 -2.0024
 7276TIP3   OH243242   2.749   2.949   0.835  0.4417 -0.3048  0.4763
 7276TIP3    H143243   2.761   2.855   0.849 -1.0318 -0.5201  0.4277
 7276TIP3    H243244   2.719   2.957   0.745  2.5244  0.4075 -0.1780
 7277TIP3   OH243245   6.612   0.017  13.648 -0.7319 -0.2306  0.0160
 7277TIP3    H143246   6.613  -0.076  13.625  1.8781 -0.6856  1.7381
 7277TIP3    H243247   6.701   0.048  13.629 -0.8428  1.3030  1.7804
 7278TIP3   OH243248   3.458   5.298  11.763 -0.0142 -0.1097 -0.5990
 7278TIP3    H143249   3.485   5.272  11.675  2.2315 -0.7256  0.2193
 7278TIP3    H243250   3.535   5.280  11.817 -1.0092  1.2296  1.3110
 7279TIP3   OH243251   5.916   3.068  15.165 -0.4406 -0.0474  0.2744
 7279TIP3    H143252   5.934   3.030  15.079  3.6809 -0.8437  1.3883
 7279TIP3    H243253   5.837   3.024  15.195 -0.8509 -1.1471 -2.2886
 7280TIP3   OH243254   1.898   1.348   0.817 -0.0911  0.1652  0.1400
 7280TIP3    H143255   1.831   1.291   0.854 -1.5719  0.8066 -1.4571
 7280TIP3    H243256   1.924   1.405   0.889 -2.7157  1.2187  0.2990
 7281TIP3   OH243257   2.175   5.966   2.921  0.1624 -0.1494  0.3571
 7281TIP3    H143258   2.175   5.930   3.010 -0.5061 -0.7017  0.1339
 7281TIP3    H243259   2.085   5.995   2.907  0.1097 -0.6925 -0.3989
 7282TIP3   OH243260   3.424   5.978   3.310  0.2439 -0.0427  0.0513
 7282TIP3    H143261   3.518   5.995   3.315  0.2171  0.0171  0.3699
 7282TIP3    H243262   3.387   6.057   3.272  0.4177 -0.3788 -0.8194
 7283TIP3   OH243263   0.885   2.507  16.395  0.0258  0.1935  0.1762
 7283TIP3    H143264   0.932   2.590  16.395  1.3983 -0.5662  0.9442
 7283TIP3    H243265   0.848   2.501  16.484  0.4021 -0.2765  0.3020
 7284TIP3   OH243266   1.857   6.282  13.190  0.3462 -0.0275 -0.4021
 7284TIP3    H143267   1.770   6.300  13.155  0.9271 -0.8129 -2.2778
 7284TIP3    H243268   1.842   6.210  13.253 -0.5473  0.7586  0.3067
 7285TIP3   OH243269   2.492   2.236  16.367  0.0677  0.0715 -0.4110
 7285TIP3    H143270   2.558   2.252  16.300 -0.6169 -1.5737 -1.4901
 7285TIP3    H243271   2.470   2.143  16.359 -0.2789 -0.0792  1.8540
 7286TIP3   OH243272   0.988   4.384   0.944  0.4198 -1.3214  0.4980
 7286TIP3    H143273   0.997   4.380   1.039  1.2097  0.0367  0.4849
 7286TIP3    H243274   0.895   4.367   0.928 -0.2854  1.2399  1.6963
 7287TIP3   OH243275   5.201   5.839  11.998 -0.4524  0.4233  0.1256
 7287TIP3    H143276   5.205   5.808  11.908 -0.2958 -0.0087  0.2811
 7287TIP3    H243277   5.274   5.900  12.006 -0.6390  0.6797 -0.1210
 7288TIP3   OH243278   4.472   5.190  11.420 -0.0078  0.3986 -0.7293
 7288TIP3    H143279   4.561   5.215  11.394  1.6585 -4.6144 -0.3729
 7288TIP3    H243280   4.475   5.189  11.516 -1.0034  1.8467 -0.6643
 7289TIP3   OH243281   4.988   5.104  13.174 -0.6061 -0.4110 -0.4825
 7289TIP3    H143282   5.026   5.132  13.090 -0.3310 -0.1127 -0.2563
 7289TIP3    H243283   4.897   5.081  13.152 -0.4018 -0.7816 -0.9520
 7290TIP3   OH243284   3.977   4.665  11.343  0.4647 -0.1892  0.2363
 7290TIP3    H143285   3.932   4.583  11.361 -0.2807 -0.1876 -1.5311
 7290TIP3    H243286   4.070   4.643  11.348  0.2636 -1.1603 -0.3210
 7291TIP3   OH243287   1.230   3.552   3.041  0.0944  0.9195 -0.0787
 7291TIP3    H143288   1.166   3.555   2.971  1.4379 -0.8691 -1.4359
 7291TIP3    H243289   1.296   3.617   3.016  1.5883 -1.0971 -1.5556
 7292TIP3   OH243290   2.814   4.984  12.714 -0.0620 -0.2377  0.5512
 7292TIP3    H143291   2.876   4.969  12.785  1.0323  2.6884  0.2624
 7292TIP3    H243292   2.813   5.079  12.702 -0.4328 -0.6366 -3.1596
 7293TIP3   OH243293   3.340   4.791  12.760  0.3631 -0.3322  0.1107
 7293TIP3    H143294   3.386   4.846  12.824 -0.2363 -0.2773  0.4941
 7293TIP3    H243295   3.378   4.704  12.771 -0.0876 -0.4327  0.8934
 7294TIP3   OH243296   5.235   6.452   3.029  0.6432 -0.2076 -0.4116
 7294TIP3    H143297   5.265   6.531   3.073  1.0482  1.3112 -3.2722
 7294TIP3    H243298   5.140   6.452   3.041  0.6461  0.7036 -0.3362
 7295TIP3   OH243299   5.256   4.535   0.684 -0.4924  0.2866 -0.6208
 7295TIP3    H143300   5.231   4.465   0.744 -0.6794  0.1190 -0.8934
 7295TIP3    H243301   5.187   4.600   0.692  0.1389  0.8484  0.2985
 7296TIP3   OH243302   2.331   5.937   4.649  0.1856 -0.3940  0.1286
 7296TIP3    H143303   2.325   5.947   4.554 -0.5335  1.0740  0.3227
 7296TIP3    H243304   2.317   6.025   4.683 -0.0161 -0.9957  1.6146
 7297TIP3   OH243305   1.187   1.362  16.425 -0.0536  0.0511  0.3231
 7297TIP3    H143306   1.236   1.337  16.347  0.8514 -0.9652  1.2028
 7297TIP3    H243307   1.099   1.327  16.410  0.4557 -1.2232  0.3066
 7298TIP3   OH243308   1.035   1.801   4.601 -0.2487  0.3358 -0.2502
 7298TIP3    H143309   1.116   1.792   4.551 -1.4864 -0.3025 -2.1511
 7298TIP3    H243310   1.064   1.839   4.685  2.4285 -2.8540  0.3731
 7299TIP3   OH243311   6.524   1.667   1.034  0.5668  0.1533  0.9336
 7299TIP3    H143312   6.479   1.583   1.028  0.0247  0.4742  0.4820
 7299TIP3    H243313   6.569   1.676   0.949  1.1060  0.0454  1.2056
 7300TIP3   OH243314   3.432   0.806   3.397 -0.0396  0.7722 -0.2922
 7300TIP3    H143315   3.405   0.872   3.333  0.1457  0.3153 -0.8449
 7300TIP3    H243316   3.471   0.857   3.468  0.6486  1.2226 -0.9794
 7301TIP3   OH243317   1.750   1.261   1.811  0.2920  0.4778  0.6048
 7301TIP3    H143318   1.668   1.300   1.841  0.9800  0.7914  2.0917
 7301TIP3    H243319   1.724   1.176   1.776 -0.8123  1.0293  0.0532
 7302TIP3   OH243320   4.645   0.823  12.714  0.3470  0.4306  0.2494
 7302TIP3    H143321   4.620   0.756  12.650  1.5558  0.5805 -0.3864
 7302TIP3    H243322   4.735   0.801  12.737  0.6487  1.6745  0.2551
 7303TIP3   OH243323   5.744   2.168   2.251  0.6217 -0.2199 -0.1188
 7303TIP3    H143324   5.685   2.220   2.196  0.7467  2.3214  2.0813
 7303TIP3    H243325   5.692   2.091   2.274 -1.1046  0.9627  0.0430
 7304TIP3   OH243326   4.842   1.382  13.516 -0.7717 -0.2877  0.3526
 7304TIP3    H143327   4.931   1.355  13.539 -0.8650 -0.8165  0.0982
 7304TIP3    H243328   4.822   1.452  13.578  1.0951  2.1905 -1.7322
 7305TIP3   OH243329   5.516   6.389   2.736  0.0229  0.2964  0.5922
 7305TIP3    H143330   5.426   6.365   2.714 -0.1094  1.5526 -0.2510
 7305TIP3    H243331   5.528   6.356   2.825 -0.9928 -0.6200  0.4024
 7306TIP3   OH243332   1.327   2.583  14.049  0.0746 -0.7255  0.1390
 7306TIP3    H143333   1.399   2.604  14.108 -0.1549  1.8152 -0.4067
 7306TIP3    H243334   1.257   2.551  14.106  1.2119 -2.0460  0.8001
 7307TIP3   OH243335   0.271   0.620  16.915 -1.0051  0.3830  0.1401
 7307TIP3    H143336   0.304   0.637  16.827  0.9640  1.1552  0.9997
 7307TIP3    H243337   0.234   0.703  16.943 -0.3366  0.5464  0.5654
 7308TIP3   OH243338   6.750   4.685   2.086 -0.4632 -0.7825 -0.3553
 7308TIP3    H143339   6.759   4.765   2.139 -1.9463  0.0181 -1.2828
 7308TIP3    H243340   6.709   4.715   2.004 -1.0929 -2.5034 -0.6892
 7309TIP3   OH243341   5.893   4.414  16.678 -0.0173 -0.3689  0.1009
 7309TIP3    H143342   5.822   4.425  16.615 -1.4174  0.6009  1.8196
 7309TIP3    H243343   5.856   4.358  16.747  0.4114  1.2921  1.7140
 7310TIP3   OH243344   5.072   6.165   5.234  0.0184  0.1764  0.1561
 7310TIP3    H143345   5.121   6.230   5.284  0.8730  0.8133 -1.4682
 7310TIP3    H243346   5.063   6.090   5.294  2.4526  0.2731  0.6819
 7311TIP3   OH243347   4.205   5.725   6.039 -0.5834  0.4534 -0.3653
 7311TIP3    H143348   4.221   5.631   6.049 -0.3592  0.4902 -0.3669
 7311TIP3    H243349   4.250   5.765   6.113  0.5836  0.6714 -1.1787
 7312TIP3   OH243350   3.061   5.835   3.941  0.3934  0.1657 -0.0814
 7312TIP3    H143351   3.046   5.827   3.847 -0.5129  1.9092 -0.0950
 7312TIP3    H243352   2.982   5.797   3.981  0.2043  0.5924 -0.0458
 7313TIP3   OH243353   5.821   3.081   3.449  0.2272 -0.3062  0.1677
 7313TIP3    H143354   5.868   3.134   3.384 -0.1553 -0.3938 -0.1762
 7313TIP3    H243355   5.799   3.143   3.519  1.9596 -0.5047  0.9310
 7314TIP3   OH243356   3.984   3.803  12.118  0.4713 -0.2815 -0.7256
 7314TIP3    H143357   3.959   3.714  12.093  1.7557 -1.0103  0.4985
 7314TIP3    H243358   4.023   3.793  12.205 -0.4963  1.6600 -0.0289
 7315TIP3   OH243359   2.478   3.733   4.958 -0.0649  0.3329  0.3133
 7315TIP3    H143360   2.536   3.760   5.029 -0.3512 -0.4647  0.8563
 7315TIP3    H243361   2.402   3.696   5.002 -0.1155 -0.4277 -0.3992
 7316TIP3   OH243362   3.416   3.883  13.271 -0.2012 -0.1996 -0.2468
 7316TIP3    H143363   3.337   3.907  13.223 -0.9193 -0.7797  0.6280
 7316TIP3    H243364   3.384   3.852  13.356  1.1523  2.4358  1.2793
 7317TIP3   OH243365   0.906   3.283   2.738  0.1228 -0.3604 -0.2995
 7317TIP3    H143366   0.964   3.228   2.684 -0.1623 -0.3329 -0.6347
 7317TIP3    H243367   0.965   3.345   2.780  0.3446 -0.3496 -0.6211
 7318TIP3   OH243368   4.880   5.054  12.689 -0.3735 -0.0780 -0.4442
 7318TIP3    H143369   4.845   5.120  12.629  0.7700  0.1188 -0.8977
 7318TIP3    H243370   4.971   5.079  12.702 -0.8084  0.3937  2.0536
 7319TIP3   OH243371   1.969   1.710  13.702 -0.1212 -0.3333 -0.4208
 7319TIP3    H143372   1.896   1.650  13.684  0.8027 -1.3225 -0.8918
 7319TIP3    H243373   2.044   1.652  13.718  0.9265  0.7086 -1.5064
 7320TIP3   OH243374   4.465   4.645   1.871 -0.5418 -0.3746 -0.4672
 7320TIP3    H143375   4.427   4.561   1.897 -1.9128  0.4279  0.1765
 7320TIP3    H243376   4.420   4.667   1.789 -0.4350 -0.1141 -0.4556
 7321TIP3   OH243377   4.784   6.404   5.365 -0.3638 -0.4307  0.4608
 7321TIP3    H143378   4.769   6.457   5.444 -2.2422  0.3338 -0.3615
 7321TIP3    H243379   4.866   6.437   5.329 -0.6920  0.8323  0.8398
 7322TIP3   OH243380   4.331   6.002   1.427 -0.1850 -0.6837 -0.6887
 7322TIP3    H143381   4.269   5.985   1.498 -1.3721  0.6506 -1.3933
 7322TIP3    H243382   4.370   6.087   1.449  1.0244 -1.2595 -0.5324
 7323TIP3   OH243383   2.153   5.233   5.070  0.0012 -0.0649  0.0475
 7323TIP3    H143384   2.106   5.151   5.077  1.0904 -0.5791  1.4397
 7323TIP3    H243385   2.238   5.209   5.032  0.0764  0.5094 -0.1571
 7324TIP3   OH243386   4.545   4.385   2.092 -0.4768 -0.2094 -0.2203
 7324TIP3    H143387   4.472   4.382   2.031 -0.6924  0.7616 -0.0223
 7324TIP3    H243388   4.516   4.333   2.167 -0.3011 -1.2056 -0.8270
 7325TIP3   OH243389   1.840   2.020  17.217 -0.3242 -0.2136 -0.1351
 7325TIP3    H143390   1.866   2.111  17.205 -0.0552 -0.2823 -0.0727
 7325TIP3    H243391   1.745   2.020  17.202 -0.0297 -0.2769 -2.1177
 7326TIP3   OH243392   0.858   3.933   0.947  0.6928 -0.5203 -0.2748
 7326TIP3    H143393   0.794   3.915   0.878 -0.0078 -0.5999  0.3853
 7326TIP3    H243394   0.937   3.887   0.919  1.0313  1.0613 -1.9917
 7327TIP3   OH243395   4.023   6.371   4.584  0.5660  0.1063  0.6517
 7327TIP3    H143396   4.078   6.352   4.508  0.8715 -3.8041  1.7501
 7327TIP3    H243397   3.939   6.329   4.565  1.4292 -3.0822  3.4274
 7328TIP3   OH243398   0.198   3.337   0.146 -0.4081  0.0478 -0.2227
 7328TIP3    H143399   0.210   3.265   0.208 -0.4546 -2.2540 -2.7998
 7328TIP3    H243400   0.125   3.388   0.181 -0.6843 -1.4429  1.4061
 7329TIP3   OH243401   5.533   2.476  13.433  0.0003 -0.0259  0.6731
 7329TIP3    H143402   5.461   2.498  13.492 -0.3007 -0.8883  0.6337
 7329TIP3    H243403   5.574   2.560  13.412 -1.2708  0.5199  0.3448
 7330TIP3   OH243404   1.185   1.696   3.029 -0.1900  0.8045 -0.1813
 7330TIP3    H143405   1.139   1.617   3.057  1.6605 -0.4229 -0.5352
 7330TIP3    H243406   1.180   1.694   2.933  0.3482  0.8247 -0.2094
 7331TIP3   OH243407   2.834   0.199  15.160 -0.0519  0.2100 -0.5895
 7331TIP3    H143408   2.776   0.231  15.091 -0.7935 -0.5391 -0.3242
 7331TIP3    H243409   2.826   0.103  15.155  1.6316  0.0740 -0.9498
 7332TIP3   OH243410   5.288   3.125  11.904  0.2829  0.1082  0.1093
 7332TIP3    H143411   5.202   3.146  11.942  0.5217  0.6263  0.3642
 7332TIP3    H243412   5.269   3.103  11.813 -0.3140 -1.2856  0.5482
 7333TIP3   OH243413   5.801   3.427  14.431  0.0903  0.4145  0.0417
 7333TIP3    H143414   5.743   3.430  14.355 -0.6662 -0.8928  0.5505
 7333TIP3    H243415   5.888   3.410  14.394 -0.5512 -2.0219 -0.4277
 7334TIP3   OH243416   0.055   6.341  15.368 -0.1069 -0.5136 -0.3434
 7334TIP3    H143417   0.100   6.379  15.444 -0.1197 -0.5811 -0.3027
 7334TIP3    H243418   0.095   6.255  15.356  0.3996 -0.2070 -0.8606
 7335TIP3   OH243419   4.743   4.128  14.226  0.5597 -0.1941  0.5196
 7335TIP3    H143420   4.830   4.138  14.265 -0.3298  3.5810  1.6915
 7335TIP3    H243421   4.745   4.185  14.150 -0.9377 -0.0102  0.6179
 7336TIP3   OH243422   3.943   2.786  11.143 -0.2804  0.3718 -0.0387
 7336TIP3    H143423   3.903   2.861  11.100 -1.7395  0.1762  0.9361
 7336TIP3    H243424   3.993   2.742  11.074  1.4436  2.7698 -0.3986
 7337TIP3   OH243425   1.982   1.853  10.686 -0.1739  0.6913 -0.7812
 7337TIP3    H143426   1.955   1.945  10.679  0.9359  0.9266 -2.3140
 7337TIP3    H243427   1.945   1.811  10.608 -1.4019 -0.3708  0.3527
 7338TIP3   OH243428   3.730   4.622   0.820  0.0162  0.4367  0.7518
 7338TIP3    H143429   3.700   4.532   0.810 -2.4336  1.3404 -0.4713
 7338TIP3    H243430   3.717   4.642   0.913  0.0597 -0.2785  0.9131
 7339TIP3   OH243431   2.288   6.750   4.693 -0.0702 -0.2257  0.3536
 7339TIP3    H143432   2.340   6.676   4.724 -1.4796 -0.7295  1.6061
 7339TIP3    H243433   2.272   6.802   4.772 -0.2695  0.6673 -0.2688
 7340TIP3   OH243434   0.160   3.229  13.032 -0.1260  0.8265  0.2471
 7340TIP3    H143435   0.068   3.204  13.037  0.5756 -1.8525  0.5229
 7340TIP3    H243436   0.165   3.311  13.080 -2.4522  1.2541 -0.1715
 7341TIP3   OH243437   0.643   3.111   4.094 -0.5450  0.5176  0.4159
 7341TIP3    H143438   0.617   3.155   4.014 -1.2722 -0.9277 -0.1439
 7341TIP3    H243439   0.571   3.126   4.155 -0.3261  0.9838  0.5595
 7342TIP3   OH243440   0.498   4.472  14.461  0.4029  0.5962  0.5738
 7342TIP3    H143441   0.530   4.532  14.529 -1.6458 -0.4136  2.4990
 7342TIP3    H243442   0.513   4.385  14.497 -1.7137  0.0663  0.1987
 7343TIP3   OH243443   4.630   4.876   0.414  0.2832  0.5474  0.1167
 7343TIP3    H143444   4.586   4.809   0.362 -0.3636 -1.1052  2.6954
 7343TIP3    H243445   4.665   4.938   0.349  0.0875 -1.7618 -2.2692
 7344TIP3   OH243446   6.775   3.306  12.378  0.3211  0.0660 -0.1506
 7344TIP3    H143447   6.868   3.284  12.387  0.4254  0.7787  0.6113
 7344TIP3    H243448   6.773   3.401  12.382 -0.7031 -0.0370  2.6443
 7345TIP3   OH243449   5.297   5.802   3.136  0.3685  0.3188  0.4952
 7345TIP3    H143450   5.390   5.787   3.153 -0.2163 -0.7588  2.8948
 7345TIP3    H243451   5.270   5.864   3.203 -0.7187  0.4423 -0.0423
 7346TIP3   OH243452   2.514   0.114   1.138 -0.3933  0.2622  0.2242
 7346TIP3    H143453   2.566   0.182   1.179 -0.3020  0.7575 -0.6958
 7346TIP3    H243454   2.574   0.040   1.127 -0.2437  0.3639  0.3738
 7347TIP3   OH243455   3.826   4.351   3.358 -0.1959 -0.2199 -0.0584
 7347TIP3    H143456   3.893   4.369   3.424 -0.3285  0.0228  0.0095
 7347TIP3    H243457   3.743   4.372   3.402 -0.1786  1.6290 -0.8733
 7348TIP3   OH243458   4.209   6.123   0.081  0.0435 -0.3420 -0.1130
 7348TIP3    H143459   4.278   6.081   0.132  0.3782 -0.7929 -0.9157
 7348TIP3    H243460   4.252   6.197   0.039  0.3799 -1.3823 -1.6519
 7349TIP3   OH243461   4.232   5.165  14.002  0.0346 -0.4802  0.0881
 7349TIP3    H143462   4.243   5.244  13.949 -1.8535  0.3646  0.8921
 7349TIP3    H243463   4.321   5.137  14.023  0.7821 -0.0347 -2.3230
 7350TIP3   OH243464   1.441   6.254   2.984  0.0023  0.2935  0.4445
 7350TIP3    H143465   1.532   6.224   2.993  0.8580  2.3410 -0.9702
 7350TIP3    H243466   1.393   6.206   3.052  1.7072 -2.4517 -0.2095
 7351TIP3   OH243467   2.856   4.717   6.209 -0.3745  0.8643 -0.2793
 7351TIP3    H143468   2.927   4.736   6.270 -1.8165  0.0198  1.7342
 7351TIP3    H243469   2.776   4.726   6.262 -1.6412 -0.3406 -1.9296
 7352TIP3   OH243470   4.507   5.637  11.782 -0.4644  0.4207  0.0156
 7352TIP3    H143471   4.521   5.667  11.872  0.7379 -0.1320  0.0270
 7352TIP3    H243472   4.489   5.717  11.733 -1.4399  0.6916  0.8077
 7353TIP3   OH243473   4.851   5.119   0.737  0.8696 -0.6813  0.3245
 7353TIP3    H143474   4.830   5.110   0.830  0.8603 -1.0608  0.2850
 7353TIP3    H243475   4.939   5.084   0.728  1.8535  1.6062  0.6211
 7354TIP3   OH243476   2.938   0.775  14.540  0.0648  0.5555  0.1642
 7354TIP3    H143477   2.933   0.841  14.609 -0.9245  0.1322  0.4933
 7354TIP3    H243478   3.031   0.750  14.538  0.4131  1.7854  0.1835
 7355TIP3   OH243479   1.764   1.794  10.847  0.0439 -0.0460  0.6882
 7355TIP3    H143480   1.747   1.709  10.888  0.6221 -0.3035  0.4050
 7355TIP3    H243481   1.852   1.786  10.811  0.5171  1.0219  1.5638
 7356TIP3   OH243482   5.398   6.470  13.710  0.1900  0.1230  0.5876
 7356TIP3    H143483   5.330   6.525  13.748 -1.6304 -2.5639  1.3860
 7356TIP3    H243484   5.443   6.431  13.785  1.1364  0.1499  0.0421
 7357TIP3   OH243485   0.926   6.541  16.511  0.6039 -0.5444  0.6444
 7357TIP3    H143486   0.859   6.609  16.501 -1.1778 -2.5387 -1.7885
 7357TIP3    H243487   0.883   6.473  16.562  1.6098 -0.8301  1.1227
 7358TIP3   OH243488   4.085   0.319  12.570 -0.5608  0.5516 -0.9326
 7358TIP3    H143489   4.119   0.408  12.575  0.1107  0.3764 -2.2430
 7358TIP3    H243490   4.025   0.320  12.495 -1.4181  0.1825 -0.2641
 7359TIP3   OH243491   3.575   6.660   5.425  0.5682  0.2791 -0.2159
 7359TIP3    H143492   3.491   6.678   5.382  0.3715  0.3735  0.2099
 7359TIP3    H243493   3.628   6.618   5.357 -0.2466 -0.9099 -0.1222
 7360TIP3   OH243494   5.996   0.669  13.943 -0.4516 -0.3585 -0.5242
 7360TIP3    H143495   6.016   0.620  14.023  0.1548 -1.6288 -1.4565
 7360TIP3    H243496   6.057   0.743  13.945 -1.4479  0.4677  0.9325
 7361TIP3   OH243497   4.131   1.184   1.875  0.0672 -0.2243  0.3568
 7361TIP3    H143498   4.186   1.110   1.901  0.7324  0.0453 -0.2645
 7361TIP3    H243499   4.167   1.212   1.791 -1.0728 -0.0900 -0.0916
 7362TIP3   OH243500   3.129   2.427   3.846  0.1701 -0.7744 -0.3420
 7362TIP3    H143501   3.047   2.383   3.871 -0.7395 -0.2276 -2.2340
 7362TIP3    H243502   3.118   2.517   3.877  0.1682 -0.7687 -0.3600
 7363TIP3   OH243503   2.494   5.898  11.213  0.0738  0.0509  0.0201
 7363TIP3    H143504   2.447   5.889  11.131 -0.3242  1.4154  0.0950
 7363TIP3    H243505   2.501   5.992  11.227  1.2509 -0.1549  0.9109
 7364TIP3   OH243506   5.960   3.234   3.260  0.1569  0.3509 -0.2061
 7364TIP3    H143507   5.995   3.147   3.244 -1.0035  0.2407 -2.3742
 7364TIP3    H243508   6.026   3.294   3.225 -0.3003  0.2374 -1.2909
 7365TIP3   OH243509   0.182   5.162   3.562  0.0341 -0.0871 -0.0689
 7365TIP3    H143510   0.096   5.171   3.602 -1.3169 -0.2433 -2.8081
 7365TIP3    H243511   0.209   5.252   3.542  0.6440 -0.0194  1.0138
 7366TIP3   OH243512   5.048   3.626  11.751 -0.1479 -0.5791 -0.4083
 7366TIP3    H143513   5.025   3.627  11.843 -2.4740  2.1072 -0.9556
 7366TIP3    H243514   5.138   3.660  11.748 -0.1563 -0.4294  0.8448
 7367TIP3   OH243515   6.242   2.826   1.631 -0.1838  0.0335 -0.3550
 7367TIP3    H143516   6.243   2.743   1.583  0.1251 -0.0597 -0.1904
 7367TIP3    H243517   6.177   2.880   1.586  0.9216  0.3644 -1.5546
 7368TIP3   OH243518   0.254   5.082   1.895  0.6416 -0.4728 -0.8555
 7368TIP3    H143519   0.202   5.142   1.947  1.6837 -0.4724  0.2087
 7368TIP3    H243520   0.345   5.110   1.909  0.9152 -0.1041 -3.1387
 7369TIP3   OH243521   0.994   5.328  16.530 -0.2779  0.3482 -0.2091
 7369TIP3    H143522   0.916   5.359  16.577 -0.4221  0.7297 -0.7066
 7369TIP3    H243523   1.016   5.246  16.574 -2.4946 -1.1018 -1.7058
 7370TIP3   OH243524   1.617   5.076  13.036 -0.5955  0.5511 -0.1934
 7370TIP3    H143525   1.604   5.072  13.131 -0.5760  1.2542 -0.1639
 7370TIP3    H243526   1.608   4.985  13.007  2.4246 -0.1368  0.8616
 7371TIP3   OH243527   2.115   4.613   1.335  0.0160  0.1376  0.2806
 7371TIP3    H143528   2.072   4.698   1.342 -2.5575 -0.9532 -1.1738
 7371TIP3    H243529   2.120   4.580   1.425  2.0148  2.2320  0.9774
 7372TIP3   OH243530   5.123   2.433   5.127  0.3429  0.1583 -0.8225
 7372TIP3    H143531   5.133   2.508   5.069  1.9605  0.2110 -0.5046
 7372TIP3    H243532   5.067   2.464   5.198  0.5583  0.8921 -0.9718
 7373TIP3   OH243533   6.349   6.009  13.830  0.1026  0.1968 -0.2026
 7373TIP3    H143534   6.324   6.097  13.804  1.4154  0.1889 -1.5272
 7373TIP3    H243535   6.386   6.019  13.918  0.1740  0.9524 -0.3211
 7374TIP3   OH243536   1.836   0.645  11.277  0.5545 -0.1669 -0.5267
 7374TIP3    H143537   1.865   0.653  11.186 -0.3520  0.6014 -0.7579
 7374TIP3    H243538   1.806   0.554  11.285 -0.1609  0.0004 -1.2449
 7375TIP3   OH243539   5.809   4.046  11.091  0.0871  0.1014 -0.8338
 7375TIP3    H143540   5.746   4.080  11.155  0.5500  1.8699 -1.2821
 7375TIP3    H243541   5.754   4.008  11.022 -0.5390  2.0236 -1.4318
 7376TIP3   OH243542   1.115   6.032  14.084  0.0032  0.6237 -0.1890
 7376TIP3    H143543   1.033   6.028  14.134 -0.2418  0.3167 -0.6127
 7376TIP3    H243544   1.087   6.036  13.992  0.4626  0.6037 -0.3302
 7377TIP3   OH243545   5.435   4.629   0.472  0.7497 -0.6744 -0.5101
 7377TIP3    H143546   5.378   4.659   0.401  0.6833  2.8447  0.9099
 7377TIP3    H243547   5.377   4.579   0.529 -0.2113  0.1644 -0.7203
 7378TIP3   OH243548   2.369   4.593   5.430 -0.2773 -0.1047 -0.1973
 7378TIP3    H143549   2.343   4.589   5.337  0.4525 -0.9427 -0.3708
 7378TIP3    H243550   2.449   4.646   5.430 -0.7962  0.6996  0.0827
 7379TIP3   OH243551   5.397   3.889   0.276 -0.4671  0.1241 -0.0821
 7379TIP3    H143552   5.401   3.903   0.371 -1.2836  0.9948 -0.1694
 7379TIP3    H243553   5.442   3.805   0.263 -1.9840 -0.9468  1.2867
 7380TIP3   OH243554   0.939   5.341  14.342  0.2402  0.1829 -0.1929
 7380TIP3    H143555   0.924   5.275  14.410 -0.1302  0.4433 -0.0191
 7380TIP3    H243556   0.904   5.302  14.262 -2.3399  1.1850  0.3932
 7381TIP3   OH243557   2.169   1.547  13.742  0.4694  0.7606  0.0582
 7381TIP3    H143558   2.186   1.566  13.834  1.5423  2.1686 -0.4371
 7381TIP3    H243559   2.153   1.452  13.740 -1.2934  0.9853  1.9446
 7382TIP3   OH243560   5.212   2.880  15.264 -0.1580 -0.0254  0.0402
 7382TIP3    H143561   5.223   2.905  15.356 -0.1737  2.1316 -0.5104
 7382TIP3    H243562   5.119   2.864  15.255 -0.6534  2.7349 -0.2604
 7383TIP3   OH243563   1.817   2.429   2.718  0.2954 -0.6782  0.5112
 7383TIP3    H143564   1.748   2.381   2.762  0.4653  0.0705  1.6330
 7383TIP3    H243565   1.815   2.516   2.758  0.5205  0.0004 -0.9044
 7384TIP3   OH243566   1.854   4.346   4.226  0.0666  0.5932  0.6453
 7384TIP3    H143567   1.825   4.287   4.296 -1.0915  0.0574 -0.2618
 7384TIP3    H243568   1.778   4.355   4.169  1.7013 -1.0133 -1.9326
 7385TIP3   OH243569   6.390   5.062   5.714 -0.3932  0.4596  0.2918
 7385TIP3    H143570   6.464   5.021   5.757 -0.3985  0.8643  0.6916
 7385TIP3    H243571   6.424   5.092   5.630 -0.6395 -1.2454 -0.4295
 7386TIP3   OH243572   1.343   2.345   1.475 -0.1310 -0.1406  0.3773
 7386TIP3    H143573   1.333   2.439   1.487 -0.5547 -0.0568 -0.5878
 7386TIP3    H243574   1.411   2.319   1.538 -0.3668  0.7234  0.9777
 7387TIP3   OH243575   0.165   2.252   3.209 -0.0124  0.3095 -0.3313
 7387TIP3    H143576   0.089   2.293   3.168  0.2603  0.1096 -1.0459
 7387TIP3    H243577   0.239   2.276   3.153  0.2381 -0.6530 -0.4292
 7388TIP3   OH243578   2.734   0.175  12.301 -0.0940 -0.1977  0.3170
 7388TIP3    H143579   2.786   0.232  12.357 -2.4809  3.6405 -1.1784
 7388TIP3    H243580   2.663   0.144  12.358 -0.1863  0.3428  0.4934
 7389TIP3   OH243581   2.648   6.178  13.087 -0.2943 -0.0661  0.6081
 7389TIP3    H143582   2.655   6.182  13.182  1.0257  1.1649  0.4770
 7389TIP3    H243583   2.568   6.226  13.067 -0.0855  0.4540  1.0281
 7390TIP3   OH243584   0.608   4.297  16.847  0.2142 -0.2951 -0.0424
 7390TIP3    H143585   0.518   4.263  16.846  0.2529 -0.4358 -2.2604
 7390TIP3    H243586   0.609   4.364  16.779  1.6608  0.0531  0.3113
 7391TIP3   OH243587   5.515   1.814   5.278  0.1544 -0.2761 -0.4267
 7391TIP3    H143588   5.447   1.860   5.229  0.9117  0.8185 -0.4726
 7391TIP3    H243589   5.504   1.844   5.368  2.4199  2.2434 -0.9026
 7392TIP3   OH243590   5.866   2.374   1.949 -0.3106  0.5521 -0.1524
 7392TIP3    H143591   5.871   2.458   1.904  0.5342 -0.1659 -1.4547
 7392TIP3    H243592   5.864   2.309   1.878 -0.4030 -0.5407  0.8327
 7393TIP3   OH243593   3.584   0.075   2.752 -0.0624  0.0316 -0.0529
 7393TIP3    H143594   3.601   0.041   2.664 -1.0948  2.7863 -1.3635
 7393TIP3    H243595   3.490   0.065   2.764 -0.0211  0.2860  0.4920
 7394TIP3   OH243596   0.599   0.401  16.818  0.3749 -0.0819  0.4753
 7394TIP3    H143597   0.564   0.480  16.859 -0.9165  0.4328 -1.5216
 7394TIP3    H243598   0.544   0.330  16.852 -0.8981  0.3811 -0.5865
 7395TIP3   OH243599   1.267   0.707   4.931  0.3009 -0.5080  0.5226
 7395TIP3    H143600   1.343   0.687   4.876  0.2017  0.1064  0.1577
 7395TIP3    H243601   1.200   0.736   4.869 -0.3790 -1.4522  0.7978
 7396TIP3   OH243602   1.499   2.431  15.780 -0.7225 -0.1233  0.1019
 7396TIP3    H143603   1.425   2.371  15.768  0.4670 -1.8397  1.1647
 7396TIP3    H243604   1.568   2.377  15.818  1.5890  1.1306 -2.1673
 7397TIP3   OH243605   3.689   6.209  11.468 -0.1325 -0.0307  0.5039
 7397TIP3    H143606   3.784   6.217  11.464 -0.2647  0.5990 -1.7128
 7397TIP3    H243607   3.672   6.169  11.554  2.2720 -2.6058 -0.1457
 7398TIP3   OH243608   4.355   4.396  16.900  0.1281 -0.0900  0.2028
 7398TIP3    H143609   4.383   4.420  16.812  0.0663 -2.7136 -0.5827
 7398TIP3    H243610   4.260   4.393  16.895  0.0415  1.2903  0.8032
 7399TIP3   OH243611   5.537   1.065   3.678  0.0999 -0.0572 -0.3771
 7399TIP3    H143612   5.604   1.002   3.703 -1.0396 -1.2836 -0.3695
 7399TIP3    H243613   5.572   1.150   3.706  0.6302 -0.9462  1.7110
 7400TIP3   OH243614   2.396   0.908   3.501 -0.3454 -0.8171 -0.0762
 7400TIP3    H143615   2.479   0.880   3.538 -1.0288 -0.7151  1.5685
 7400TIP3    H243616   2.338   0.918   3.576 -1.3885  0.6736 -1.0384
 7401TIP3   OH243617   0.072   4.711   3.351  0.0655  0.2627  0.5665
 7401TIP3    H143618   0.124   4.758   3.416  0.4031  0.4567  0.1592
 7401TIP3    H243619  -0.019   4.723   3.379  0.1015  1.7692  0.0696
 7402TIP3   OH243620   3.943   2.075   0.715 -0.2962  0.1204 -0.4687
 7402TIP3    H143621   4.015   2.048   0.658 -0.5114 -0.4260 -0.4857
 7402TIP3    H243622   3.961   2.167   0.734  0.7031 -0.1562 -0.0318
 7403TIP3   OH243623   5.536   0.010  12.462  0.1506  0.1649 -0.3244
 7403TIP3    H143624   5.573  -0.055  12.523 -0.0894 -1.3705 -1.7760
 7403TIP3    H243625   5.456  -0.032  12.430 -1.0298  2.0112  0.1616
 7404TIP3   OH243626   3.363   2.708   1.532 -0.2763 -0.5181 -0.2910
 7404TIP3    H143627   3.377   2.637   1.469 -1.4982 -0.3819 -0.7327
 7404TIP3    H243628   3.418   2.780   1.500  0.2123 -0.9269 -0.3855
 7405TIP3   OH243629   5.144   6.684   0.626 -0.5373  0.5516 -0.0338
 7405TIP3    H143630   5.077   6.700   0.692 -0.6015 -1.6683  0.4709
 7405TIP3    H243631   5.131   6.593   0.600  0.0472  1.1418 -2.4974
 7406TIP3   OH243632   0.295   0.203  15.422 -0.7120  0.4736  0.5646
 7406TIP3    H143633   0.239   0.158  15.359 -2.3626  1.4676  1.2898
 7406TIP3    H243634   0.361   0.138  15.446 -2.5641 -1.2979  0.9813
 7407TIP3   OH243635   4.184   3.882   3.165 -0.4391 -0.6267  0.1227
 7407TIP3    H143636   4.255   3.852   3.108  0.1111  0.2792  0.3293
 7407TIP3    H243637   4.141   3.951   3.115 -0.2616 -0.1669  0.6096
 7408TIP3   OH243638   0.294   3.621  15.752 -0.1897  0.0014 -0.2179
 7408TIP3    H143639   0.218   3.653  15.802 -0.0704  0.3912 -0.2869
 7408TIP3    H243640   0.362   3.608  15.818  0.2824  1.4650 -0.4046
 7409TIP3   OH243641   1.770   2.547   3.464 -0.0919 -0.0964 -0.6091
 7409TIP3    H143642   1.848   2.504   3.428 -0.0265 -0.7903  0.3582
 7409TIP3    H243643   1.747   2.495   3.541 -1.1600  0.4641 -0.5429
 7410TIP3   OH243644   6.173   0.486  15.495  0.0864 -0.0568 -0.1962
 7410TIP3    H143645   6.137   0.492  15.584  0.4044 -1.2295  0.0138
 7410TIP3    H243646   6.157   0.573  15.458  0.7733  0.7444  1.3135
 7411TIP3   OH243647   2.258   2.803  13.763  0.2954 -0.7395  0.0514
 7411TIP3    H143648   2.267   2.890  13.725  0.8359 -0.5070  0.6974
 7411TIP3    H243649   2.326   2.799  13.830 -0.5907 -1.1589  0.9489
 7412TIP3   OH243650   3.039   6.149  15.963  0.1593 -0.0283  0.2561
 7412TIP3    H143651   3.097   6.180  16.033  0.5246  1.3176 -0.6172
 7412TIP3    H243652   3.069   6.060  15.945  1.7246  0.5147  0.0858
 7413TIP3   OH243653   4.744   4.651   1.771 -0.0299 -0.3268  0.0629
 7413TIP3    H143654   4.727   4.731   1.721  1.8280  0.0067 -0.0505
 7413TIP3    H243655   4.675   4.649   1.837 -1.0739  0.4910 -0.9854
 7414TIP3   OH243656   3.671   4.331   1.603 -0.4166 -0.3753  0.0736
 7414TIP3    H143657   3.621   4.407   1.571  0.1935 -0.3501 -0.8463
 7414TIP3    H243658   3.608   4.259   1.602 -0.8483 -0.0035  0.4112
 7415TIP3   OH243659   4.681   5.245   1.516 -0.3790  0.3803 -0.3133
 7415TIP3    H143660   4.620   5.172   1.523 -0.6114  0.5033 -0.9604
 7415TIP3    H243661   4.749   5.226   1.580 -0.1515 -0.6758 -0.8586
 7416TIP3   OH243662   2.599   0.048   5.093 -0.4817 -0.1177 -0.0345
 7416TIP3    H143663   2.687   0.051   5.131 -0.3786  1.1738 -0.3558
 7416TIP3    H243664   2.578  -0.045   5.088 -0.0237 -0.3672  2.1098
 7417TIP3   OH243665   4.047   4.538  15.943 -0.4383  0.2627 -0.3988
 7417TIP3    H143666   4.040   4.492  15.859  0.0972 -0.4834 -0.0426
 7417TIP3    H243667   4.046   4.468  16.008  1.8360  0.6645  0.0863
 7418TIP3   OH243668   5.788   3.114   0.701 -0.1655  0.3492 -0.4744
 7418TIP3    H143669   5.776   3.207   0.719  0.0462  0.6761 -1.9488
 7418TIP3    H243670   5.702   3.083   0.674 -0.5608 -0.2155  1.3903
 7419TIP3   OH243671   2.425   5.973   5.921 -0.1038  0.2122 -0.1271
 7419TIP3    H143672   2.444   6.020   5.839 -0.5641  0.0625 -0.3227
 7419TIP3    H243673   2.508   5.933   5.945 -0.1714 -0.4754 -0.9987
 7420TIP3   OH243674   6.206   0.525  14.101  0.0955  0.0394  0.5973
 7420TIP3    H143675   6.210   0.448  14.045 -1.3538  1.6159 -1.7975
 7420TIP3    H243676   6.180   0.492  14.187 -0.3434 -2.1424 -0.3468
 7421TIP3   OH243677   2.597   5.805  13.098  0.6685  0.4163 -0.0368
 7421TIP3    H143678   2.638   5.769  13.019 -0.8698  0.3079 -0.8094
 7421TIP3    H243679   2.533   5.868  13.064 -0.8222 -0.4954  1.0836
 7422TIP3   OH243680   6.536   1.735   4.003 -0.2829 -0.7920 -0.3715
 7422TIP3    H143681   6.452   1.747   4.047 -0.7950 -0.0668 -1.5270
 7422TIP3    H243682   6.542   1.641   3.989 -0.9030 -0.8490 -0.2753
 7423TIP3   OH243683   1.746   3.528   0.051  0.2757 -0.4192 -0.1392
 7423TIP3    H143684   1.661   3.530   0.095  1.3857  1.4378  2.0357
 7423TIP3    H243685   1.777   3.438   0.062 -0.8408 -0.7782  0.1326
 7424TIP3   OH243686   4.802   3.917   4.782 -0.7887 -0.0420 -0.1075
 7424TIP3    H143687   4.824   3.831   4.819  3.2181  1.5873  1.6164
 7424TIP3    H243688   4.800   3.902   4.687  0.5155 -1.9546  0.1175
 7425TIP3   OH243689   0.945   5.210  16.038 -0.0402  0.4170 -0.3443
 7425TIP3    H143690   0.876   5.153  16.073  1.1534 -0.9870 -0.2376
 7425TIP3    H243691   0.956   5.278  16.105 -0.7134  0.1573  0.0401
 7426TIP3   OH243692   0.564   6.045   4.959 -0.1067 -0.3296  0.3980
 7426TIP3    H143693   0.505   6.091   5.018 -1.2968  0.4277 -1.3315
 7426TIP3    H243694   0.649   6.048   5.002 -0.6895  1.3535  1.4559
 7427TIP3   OH243695   1.669   1.825  13.910  0.5245 -0.2222  0.3611
 7427TIP3    H143696   1.635   1.802  13.824  0.7146  2.2125 -0.4032
 7427TIP3    H243697   1.597   1.806  13.970  0.5809 -2.4580 -0.2173
 7428TIP3   OH243698   1.227   1.883  12.452  0.0748  0.4206 -0.1580
 7428TIP3    H143699   1.258   1.836  12.375 -0.3499  0.2904 -0.2497
 7428TIP3    H243700   1.244   1.824  12.525 -1.7120 -0.4731 -0.4256
 7429TIP3   OH243701   3.063   0.426  10.721 -0.4295  0.0468 -0.1430
 7429TIP3    H143702   2.975   0.460  10.702 -1.1834 -1.0211  1.3811
 7429TIP3    H243703   3.055   0.331  10.713  1.1979  0.0370 -2.4007
 7430TIP3   OH243704   5.315   6.259   2.468  0.6014  0.3186  0.0029
 7430TIP3    H143705   5.245   6.304   2.419  0.0259  0.2337  0.7387
 7430TIP3    H243706   5.268   6.207   2.534  1.4650  1.9031  1.8926
 7431TIP3   OH243707   4.572   2.909   4.623 -0.1712  0.5050 -0.2886
 7431TIP3    H143708   4.516   2.964   4.569  0.6072  3.0936  1.4562
 7431TIP3    H243709   4.618   2.970   4.680  2.5771 -1.7583  0.0388
 7432TIP3   OH243710   3.911   3.372  13.507 -0.2660  0.4349 -0.3159
 7432TIP3    H143711   3.984   3.420  13.470  1.0482 -1.4868 -0.2724
 7432TIP3    H243712   3.853   3.356  13.432 -0.2701  1.2511 -0.4951
 7433TIP3   OH243713   6.337   4.319  12.419  0.1170 -0.2608  0.4610
 7433TIP3    H143714   6.266   4.255  12.413  0.3128 -0.4255 -0.1841
 7433TIP3    H243715   6.385   4.295  12.497  0.0816 -0.7888  0.3207
 7434TIP3   OH243716   6.554   0.140  12.955 -0.4674 -0.1998 -0.0256
 7434TIP3    H143717   6.490   0.206  12.929  0.8065  1.2260  0.3556
 7434TIP3    H243718   6.528   0.116  13.044 -0.7894 -0.0003 -0.0634
 7435TIP3   OH243719   5.584   4.204  11.308 -0.2069 -0.2502 -0.1724
 7435TIP3    H143720   5.518   4.168  11.249 -0.5143 -0.0121  0.0274
 7435TIP3    H243721   5.544   4.283  11.344  0.4489  0.2572 -0.5599
 7436TIP3   OH243722   0.511   2.047   6.528  0.0787  0.7105  0.0917
 7436TIP3    H143723   0.592   2.023   6.483 -0.0871  0.4061 -0.0522
 7436TIP3    H243724   0.522   2.012   6.616 -0.6785 -1.0378 -0.4779
 7437TIP3   OH243725   3.118   5.411   6.135  0.6020 -0.6033 -0.2908
 7437TIP3    H143726   3.093   5.381   6.048  0.6661 -1.6141  0.0277
 7437TIP3    H243727   3.047   5.469   6.162  0.8586  0.1538 -1.2429
 7438TIP3   OH243728   1.578   5.097  12.009 -0.1592  0.1431 -0.1439
 7438TIP3    H143729   1.539   5.185  12.002 -0.0869  0.2236  0.4740
 7438TIP3    H243730   1.661   5.111  12.055  0.5078 -0.0626 -1.2665
 7439TIP3   OH243731   1.964   1.500   0.561  0.7951  0.2689  0.3603
 7439TIP3    H143732   1.950   1.454   0.644  0.6658 -0.7563 -0.2268
 7439TIP3    H243733   1.998   1.434   0.501  1.8292  1.2254 -0.1422
 7440TIP3   OH243734   2.457   1.456   1.581  0.0677  0.7243 -0.2852
 7440TIP3    H143735   2.495   1.541   1.558 -0.7134  1.2843  0.5094
 7440TIP3    H243736   2.379   1.450   1.526  0.5449  0.1717 -0.9118
 7441TIP3   OH243737   0.116   3.013  15.711 -0.2110  0.4656 -0.5748
 7441TIP3    H143738   0.211   3.022  15.723 -0.0303 -2.1898  0.4702
 7441TIP3    H243739   0.103   3.021  15.616  1.2903 -0.7933 -0.9114
 7442TIP3   OH243740   3.457   2.437   0.731  0.1144 -0.2861  0.5175
 7442TIP3    H143741   3.482   2.363   0.787 -0.3131 -0.8810 -0.0737
 7442TIP3    H243742   3.393   2.486   0.784  1.2502  0.3065  1.3631
 7443TIP3   OH243743   6.401   0.854   3.429  0.4768  1.2254 -0.1681
 7443TIP3    H143744   6.462   0.928   3.430  0.3286  1.3311  0.6675
 7443TIP3    H243745   6.322   0.889   3.386  0.3740  1.5736  0.3067
 7444TIP3   OH243746   4.505   4.370  12.621 -0.4984  0.1799 -0.1572
 7444TIP3    H143747   4.468   4.302  12.565 -0.1813 -0.0611 -0.0768
 7444TIP3    H243748   4.567   4.416  12.564 -0.2942  0.0370 -0.0528
 7445TIP3   OH243749   0.546   6.568   0.336 -0.7700  0.2450  0.5510
 7445TIP3    H143750   0.459   6.541   0.366 -0.4310 -0.5916  0.7975
 7445TIP3    H243751   0.569   6.505   0.268  0.2032 -0.3434  1.4155
 7446TIP3   OH243752   1.592   1.620   5.017  0.5313  0.1504 -0.3253
 7446TIP3    H143753   1.661   1.637   5.080  1.0916  0.2750 -0.9596
 7446TIP3    H243754   1.633   1.566   4.950 -0.2213 -0.4878 -0.2726
 7447TIP3   OH243755   2.422   5.025  16.697  0.0459 -0.4589 -0.9282
 7447TIP3    H143756   2.376   5.065  16.623 -1.4183  2.0932  1.2470
 7447TIP3    H243757   2.357   4.968  16.738  0.3311 -0.5656 -0.6236
 7448TIP3   OH243758   3.685   0.392  15.378  0.1126  0.4384 -0.0196
 7448TIP3    H143759   3.759   0.420  15.433  0.1128  1.3815 -0.5023
 7448TIP3    H243760   3.710   0.303  15.350  0.8577  0.5759  0.1795
 7449TIP3   OH243761   2.935   2.120  16.202  0.1414 -0.3414 -0.2032
 7449TIP3    H143762   2.856   2.129  16.255 -0.2836 -0.2025 -0.8471
 7449TIP3    H243763   2.929   2.192  16.138  1.9843  1.1566  1.2461
 7450TIP3   OH243764   1.287   6.721   5.860 -0.4015  0.0981 -0.2208
 7450TIP3    H143765   1.213   6.771   5.824 -1.0883  0.2149  1.3329
 7450TIP3    H243766   1.268   6.713   5.953 -1.1003 -4.3845 -0.6306
 7451TIP3   OH243767   1.896   2.255   5.670  0.0685  0.0086  0.0708
 7451TIP3    H143768   1.901   2.299   5.754  3.0307  0.4237 -0.2591
 7451TIP3    H243769   1.950   2.177   5.680  0.4471  0.0550 -1.4263
 7452TIP3   OH243770   1.154   3.776  15.237  0.0808 -0.3757  0.2293
 7452TIP3    H143771   1.124   3.826  15.313  2.8623  0.7028  0.6549
 7452TIP3    H243772   1.144   3.684  15.264  0.1036 -0.0072  1.5159
 7453TIP3   OH243773   0.152   6.536  15.162 -0.0363  0.1110  0.0459
 7453TIP3    H143774   0.222   6.479  15.131  1.2386  0.4110  2.2774
 7453TIP3    H243775   0.101   6.482  15.221  0.2691  0.8052  0.9669
 7454TIP3   OH243776   2.126   0.711  14.262 -0.6354 -0.2917  0.1684
 7454TIP3    H143777   2.062   0.690  14.330  0.2954  0.0474  1.1659
 7454TIP3    H243778   2.161   0.626  14.235 -1.2092 -0.4470 -0.1015
 7455TIP3   OH243779   2.934   2.823  13.486  0.4928  0.2789 -0.3620
 7455TIP3    H143780   2.853   2.804  13.439  0.1491  1.0595 -0.1040
 7455TIP3    H243781   2.910   2.814  13.579  0.3188  1.9111 -0.2323
 7456TIP3   OH243782   3.286   6.427  15.762 -0.3832 -0.3168  1.0151
 7456TIP3    H143783   3.376   6.462  15.765 -0.9674  1.9272 -3.1478
 7456TIP3    H243784   3.257   6.429  15.853  3.9585 -1.7386  2.6031
 7457TIP3   OH243785   5.815   5.308  15.714  0.7835 -0.1786  0.2777
 7457TIP3    H143786   5.806   5.213  15.701 -0.7276  0.2267 -1.8638
 7457TIP3    H243787   5.904   5.328  15.686  0.2559 -0.5890 -1.7417
 7458TIP3   OH243788   1.899   3.053   4.271  0.3169 -0.0020 -0.6861
 7458TIP3    H143789   1.944   3.137   4.281 -0.0984  0.1119  0.3820
 7458TIP3    H243790   1.908   3.031   4.179  1.6276  0.5460 -0.7003
 7459TIP3   OH243791   4.385   4.256  15.214 -0.3865 -0.2458  0.2510
 7459TIP3    H143792   4.460   4.201  15.233 -0.5807 -0.0739  1.5708
 7459TIP3    H243793   4.317   4.195  15.183  0.5025 -0.3148 -1.6419
 7460TIP3   OH243794   3.023   6.231  16.460 -0.1667 -0.7118 -0.5765
 7460TIP3    H143795   2.958   6.185  16.407  0.7834 -0.6826 -1.7865
 7460TIP3    H243796   2.989   6.225  16.549 -1.2153 -1.7516 -1.0245
 7461TIP3   OH243797   6.301   2.294  13.809  0.6781  0.5136 -0.0850
 7461TIP3    H143798   6.350   2.273  13.730  0.1668 -1.1306  0.0003
 7461TIP3    H243799   6.243   2.366  13.784 -0.7443 -1.1497 -1.7326
 7462TIP3   OH243800   4.282   2.526   2.681 -0.3731  0.3164 -0.3403
 7462TIP3    H143801   4.374   2.519   2.706 -0.5729 -0.7235  0.1664
 7462TIP3    H243802   4.280   2.497   2.590 -0.3543 -0.7956  0.0021
 7463TIP3   OH243803   1.419   1.010  14.207 -0.5570 -0.3378 -0.7290
 7463TIP3    H143804   1.470   1.062  14.145 -1.4034  1.4840  0.0835
 7463TIP3    H243805   1.485   0.968  14.263  0.0756  2.2855  0.5482
 7464TIP3   OH243806   4.347   3.189   3.128  0.3616 -0.8550  0.0393
 7464TIP3    H143807   4.296   3.122   3.173 -0.5183 -0.3190 -0.1538
 7464TIP3    H243808   4.284   3.232   3.070  0.4766  1.3781  1.5140
 7465TIP3   OH243809   5.479   1.595   2.078 -0.2713  0.6361  0.6944
 7465TIP3    H143810   5.421   1.643   2.019 -0.3568 -0.0198  0.2460
 7465TIP3    H243811   5.420   1.555   2.142 -0.3263 -0.1127  0.1802
 7466TIP3   OH243812   4.841   5.541  12.244 -0.2913 -0.0548 -0.0239
 7466TIP3    H143813   4.861   5.447  12.236 -0.4313 -0.0952  0.0934
 7466TIP3    H243814   4.894   5.583  12.176 -2.2029 -0.4918 -1.8162
 7467TIP3   OH243815   5.253   5.469   3.795 -0.6893 -0.0260  0.4037
 7467TIP3    H143816   5.297   5.429   3.720 -1.6012  0.6820 -0.5240
 7467TIP3    H243817   5.195   5.535   3.756 -0.9496  0.5494  1.7522
 7468TIP3   OH243818   6.787   2.737  12.812  0.1259  0.3871 -0.0501
 7468TIP3    H143819   6.813   2.711  12.901  0.8567  1.0083 -0.0764
 7468TIP3    H243820   6.712   2.795  12.826 -1.1059 -1.2015  0.0371
 7469TIP3   OH243821   0.088   2.684  16.016 -0.5735  0.1883  0.0634
 7469TIP3    H143822   0.003   2.643  16.030 -0.1319 -0.4824  0.8130
 7469TIP3    H243823   0.069   2.762  15.963 -1.8202  0.7115  1.2445
 7470TIP3   OH243824   6.273   4.249   4.125 -0.3316  0.0879  0.6120
 7470TIP3    H143825   6.223   4.326   4.151  0.3699  0.1606  1.7764
 7470TIP3    H243826   6.351   4.285   4.082  0.0602  0.0388  1.2748
 7471TIP3   OH243827   6.668   2.023  13.732  0.3961  0.1446  0.1895
 7471TIP3    H143828   6.630   1.990  13.651 -1.2650  2.7082 -0.1357
 7471TIP3    H243829   6.687   1.944  13.784 -1.1891 -1.3811 -1.4901
 7472TIP3   OH243830   0.014   3.445   2.052 -0.0262  0.0082 -0.7068
 7472TIP3    H143831   0.031   3.356   2.020  2.3608  0.2430 -0.2289
 7472TIP3    H243832  -0.064   3.437   2.106  2.2062 -2.5915  2.3281
 7473TIP3   OH243833   3.060   4.666  16.573 -0.0182  0.1708  0.2263
 7473TIP3    H143834   3.075   4.761  16.567  0.5151 -0.0120 -1.5109
 7473TIP3    H243835   3.148   4.628  16.571 -0.3301 -0.4969 -1.9652
 7474TIP3   OH243836   1.326   0.973   0.014 -0.1431 -0.3185  0.1997
 7474TIP3    H143837   1.395   1.038   0.025 -0.3463 -0.0166 -0.3027
 7474TIP3    H243838   1.369   0.889   0.030  0.8637 -0.3183 -2.3431
 7475TIP3   OH243839   0.190   2.371   0.860 -0.0658 -0.1973  0.5660
 7475TIP3    H143840   0.214   2.464   0.863  0.5211 -0.3834  2.1850
 7475TIP3    H243841   0.105   2.370   0.816 -0.4345  1.1794  1.2146
 7476TIP3   OH243842   4.414   3.084   0.749  0.5129 -0.7135 -0.0106
 7476TIP3    H143843   4.328   3.116   0.779  0.1442  0.2369 -2.0017
 7476TIP3    H243844   4.398   3.051   0.661  2.1767 -0.6601 -0.3437
 7477TIP3   OH243845   4.778   5.433  14.961 -0.0140 -0.4989  0.2359
 7477TIP3    H143846   4.691   5.397  14.943  0.2999 -0.4443 -1.4963
 7477TIP3    H243847   4.839   5.371  14.920  0.8294 -1.0679  2.3081
 7478TIP3   OH243848   5.223   6.079   2.665  0.2295  0.5123  0.0109
 7478TIP3    H143849   5.131   6.063   2.645  0.3900  0.1717 -0.4667
 7478TIP3    H243850   5.225   6.167   2.704 -0.0028  1.5398 -2.1730
 7479TIP3   OH243851   0.935   1.347   3.326 -0.0552 -0.3475 -0.3001
 7479TIP3    H143852   0.850   1.362   3.285 -0.5240 -1.6988  0.1634
 7479TIP3    H243853   0.923   1.372   3.417  0.9468  2.5050 -0.8752
 7480TIP3   OH243854   5.094   6.178  11.806  0.1645 -0.1948 -0.1496
 7480TIP3    H143855   5.040   6.140  11.737 -0.6643  0.2730  0.2394
 7480TIP3    H243856   5.184   6.170  11.773 -0.1798 -0.5360 -1.0094
 7481TIP3   OH243857   6.357   6.732   4.746  0.1513  0.6763 -0.1957
 7481TIP3    H143858   6.305   6.810   4.766  0.9811  1.4670 -1.0310
 7481TIP3    H243859   6.438   6.744   4.797  0.6178  0.7669 -0.9498
 7482TIP3   OH243860   3.541   6.455   0.074 -0.3300 -0.8025  0.0445
 7482TIP3    H143861   3.604   6.382   0.066  0.3181 -0.2508  0.0189
 7482TIP3    H243862   3.549   6.502  -0.009  0.5187  0.2922  0.7253
 7483TIP3   OH243863   1.535   6.008  10.878 -0.0058  0.3162  0.0354
 7483TIP3    H143864   1.575   5.940  10.824 -1.2161  0.5002 -1.1040
 7483TIP3    H243865   1.518   6.080  10.818 -0.5734  0.8535  0.8327
 7484TIP3   OH243866   2.240   3.858   3.203  0.1752 -0.1996  0.0402
 7484TIP3    H143867   2.145   3.857   3.215 -0.2800  0.0018 -3.2350
 7484TIP3    H243868   2.264   3.951   3.205  0.1403 -0.1830 -0.2959
 7485TIP3   OH243869   4.153   4.782   6.072 -0.8652  0.4084 -0.9565
 7485TIP3    H143870   4.224   4.754   6.128 -0.7058  1.5017 -0.6007
 7485TIP3    H243871   4.135   4.706   6.016  0.1734 -0.0705 -0.6515
 7486TIP3   OH243872   1.135   1.252   2.373 -0.3210 -0.2151  0.0959
 7486TIP3    H143873   1.208   1.229   2.315 -0.3678 -0.3911  0.1066
 7486TIP3    H243874   1.173   1.251   2.461  0.0629  1.3385 -0.0454
 7487TIP3   OH243875   1.754   6.730  14.062 -0.0864 -0.2737  0.3510
 7487TIP3    H143876   1.685   6.674  14.028 -0.5556  1.0706 -1.0112
 7487TIP3    H243877   1.729   6.819  14.035  1.2475  0.4519  1.3851
 7488TIP3   OH243878   4.019   4.976   1.832  0.5423  0.0872  0.1580
 7488TIP3    H143879   4.057   4.937   1.754  1.4894  0.3146  0.5087
 7488TIP3    H243880   3.938   5.017   1.802 -0.6244 -2.3804 -0.1849
 7489TIP3   OH243881   0.350   3.486  14.768 -0.1306 -0.3895 -0.0464
 7489TIP3    H143882   0.407   3.559  14.793 -1.9383  1.7391 -1.9481
 7489TIP3    H243883   0.335   3.438  14.849  0.1727  2.0202  1.4770
 7490TIP3   OH243884   4.673   1.877   4.188  0.3142  0.0143  0.3299
 7490TIP3    H143885   4.638   1.814   4.251  0.0391  0.6805  0.8498
 7490TIP3    H243886   4.712   1.945   4.243  1.3727 -0.1288 -0.2304
 7491TIP3   OH243887   2.744   0.949  14.790 -0.0677 -0.2194 -0.1018
 7491TIP3    H143888   2.655   0.932  14.822 -0.4670  1.8149 -0.0409
 7491TIP3    H243889   2.797   0.952  14.870  0.0332 -1.3666 -0.1323
 7492TIP3   OH243890   1.125   6.422  11.769 -0.4316 -0.2217  0.6904
 7492TIP3    H143891   1.167   6.342  11.737 -0.0883  0.1235  0.2896
 7492TIP3    H243892   1.041   6.392  11.804  0.3660 -0.9952  1.9865
 7493TIP3   OH243893   0.554   2.271   5.102 -0.2078 -0.5132  0.6119
 7493TIP3    H143894   0.532   2.358   5.070  1.1352 -0.8038 -1.1923
 7493TIP3    H243895   0.501   2.212   5.048 -1.2939 -0.8208  1.9871
 7494TIP3   OH243896   2.245   2.815   5.941  0.0994  0.2952  0.2741
 7494TIP3    H143897   2.322   2.767   5.970  0.5233 -0.5151 -2.1213
 7494TIP3    H243898   2.261   2.905   5.971  1.9350  0.1275 -0.1343
 7495TIP3   OH243899   2.255   0.732  16.993  0.1734  0.5428 -0.0071
 7495TIP3    H143900   2.291   0.818  16.970  0.1759  0.6712  0.4743
 7495TIP3    H243901   2.303   0.706  17.071  0.2644  0.0398 -0.2264
 7496TIP3   OH243902   3.678   1.694  16.177 -0.0264 -0.0557 -0.5289
 7496TIP3    H143903   3.668   1.760  16.246 -0.4998  0.5536 -1.1806
 7496TIP3    H243904   3.703   1.614  16.225  1.9617  0.9175  0.1125
 7497TIP3   OH243905   0.758   3.444   2.330  0.2533  0.7146  0.3950
 7497TIP3    H143906   0.689   3.499   2.368 -0.1470  0.4147  0.1074
 7497TIP3    H243907   0.742   3.357   2.367  1.5733  1.0129  1.7503
 7498TIP3   OH243908   2.417   0.976  15.468  0.5623 -0.2722  0.3493
 7498TIP3    H143909   2.357   0.962  15.394 -1.5587  0.9864  1.7942
 7498TIP3    H243910   2.470   1.051  15.441 -1.9474  1.8428  1.1074
 7499TIP3   OH243911   0.021   0.015  14.709  0.3127  0.2201  0.5829
 7499TIP3    H143912   0.089   0.042  14.772 -1.3830  1.9267  1.7276
 7499TIP3    H243913   0.026  -0.080  14.708  2.8505  0.3136  0.5109
 7500TIP3   OH243914   1.596   0.013   1.857 -0.1680 -0.3413  0.1798
 7500TIP3    H143915   1.538   0.058   1.918  1.1953 -0.8205  1.8942
 7500TIP3    H243916   1.670   0.073   1.845  0.1175 -0.7364 -0.0794
 7501TIP3   OH243917   0.677   0.505   4.815  0.3433  0.0650  0.5392
 7501TIP3    H143918   0.595   0.532   4.857  0.4681  1.4362 -0.0652
 7501TIP3    H243919   0.729   0.468   4.887  0.6033  2.5064  1.7015
 7502TIP3   OH243920   0.436   2.944   3.078 -0.0440 -0.2399  0.9887
 7502TIP3    H143921   0.525   2.977   3.092 -0.5208  0.6092  2.1582
 7502TIP3    H243922   0.447   2.861   3.032  1.3355  0.0230  0.8418
 7503TIP3   OH243923   3.383   1.742  10.441 -0.1311  0.0856 -0.4496
 7503TIP3    H143924   3.329   1.755  10.519  1.2627  3.8110 -0.0272
 7503TIP3    H243925   3.332   1.782  10.370  1.2343  2.0295 -0.3619
 7504TIP3   OH243926   5.318   2.096   0.325 -0.1312  0.1144  0.2393
 7504TIP3    H143927   5.371   2.052   0.259 -0.5799  0.0228 -0.0624
 7504TIP3    H243928   5.262   2.156   0.276  0.7884  1.3804  0.6732
 7505TIP3   OH243929   0.684   4.142  14.056  0.1999  0.1075 -0.2755
 7505TIP3    H143930   0.679   4.181  14.143 -1.4561  0.4357 -0.5115
 7505TIP3    H243931   0.682   4.047  14.072  0.0088  0.1644  0.0398
 7506TIP3   OH243932   0.445   4.808   2.807  0.1483 -0.1378  0.3182
 7506TIP3    H143933   0.491   4.783   2.727  0.7126  2.6264 -0.2685
 7506TIP3    H243934   0.449   4.730   2.863  2.0017 -1.2538 -1.3184
 7507TIP3   OH243935   4.081   3.979  14.130 -0.4338 -0.7606  0.5356
 7507TIP3    H143936   4.010   3.936  14.178  0.5826 -1.7950  1.1438
 7507TIP3    H243937   4.082   4.069  14.164 -0.1139 -1.3155  2.0687
 7508TIP3   OH243938   6.015   3.698   3.223 -0.7460 -0.5823 -0.2231
 7508TIP3    H143939   5.980   3.780   3.258 -1.5944 -0.4949 -1.2512
 7508TIP3    H243940   6.059   3.657   3.298  0.4987  1.2353  0.0743
 7509TIP3   OH243941   0.987   1.738   0.055 -0.3059 -0.0218 -0.7333
 7509TIP3    H143942   0.904   1.763   0.013 -0.4828 -2.0452 -1.6121
 7509TIP3    H243943   1.051   1.738  -0.016 -0.2136 -1.5864 -0.6674
 7510TIP3   OH243944   3.192   3.714  12.775 -0.0118 -0.1222  0.6706
 7510TIP3    H143945   3.245   3.749  12.704 -0.6996  1.5684  0.9641
 7510TIP3    H243946   3.151   3.635  12.738 -1.4121  1.4667 -1.2505
 7511TIP3   OH243947   6.307   2.519   2.083  0.5966 -0.0423  0.4106
 7511TIP3    H143948   6.278   2.610   2.085 -1.3262 -0.6441  0.4067
 7511TIP3    H243949   6.291   2.486   2.171 -1.0308 -1.0671 -0.2429
 7512TIP3   OH243950   3.310   4.849   3.619 -0.2546 -0.1299 -0.3790
 7512TIP3    H143951   3.309   4.772   3.562 -0.9919 -0.0632 -0.4589
 7512TIP3    H243952   3.403   4.872   3.626  0.0660 -1.5340  0.3439
 7513TIP3   OH243953   3.102   4.215  12.753  0.3681 -0.1826 -0.4783
 7513TIP3    H143954   3.008   4.228  12.745  0.2885  0.4041  1.0754
 7513TIP3    H243955   3.141   4.299  12.729  0.3478  0.3016  1.1162
 7514TIP3   OH243956   4.827   2.792  13.922 -0.3196  0.2359 -0.4559
 7514TIP3    H143957   4.839   2.711  13.971 -0.3242  0.0099 -0.8196
 7514TIP3    H243958   4.883   2.856  13.966 -2.7184  0.8663  1.7428
 7515TIP3   OH243959   2.318   0.876  12.238 -0.3803  0.0237  0.4068
 7515TIP3    H143960   2.352   0.963  12.219  0.7191 -0.5755 -0.4452
 7515TIP3    H243961   2.331   0.865  12.333  0.1114  0.5142  0.3966
 7516TIP3   OH243962   1.249   4.740   6.378  0.2639 -0.6990  0.2325
 7516TIP3    H143963   1.338   4.712   6.400  0.2215 -0.8506  0.2152
 7516TIP3    H243964   1.212   4.666   6.329  0.0076 -0.7879  0.5527
 7517TIP3   OH243965   1.053   6.149   5.184 -0.5294  0.2128 -0.1033
 7517TIP3    H143966   1.141   6.152   5.147 -0.9795 -0.9301 -1.3120
 7517TIP3    H243967   1.014   6.234   5.161 -0.1727  0.2304 -0.6332
 7518TIP3   OH243968   5.772   2.573  17.095 -0.3936  0.4901 -0.1893
 7518TIP3    H143969   5.756   2.506  17.029 -2.2214 -0.1191  0.8382
 7518TIP3    H243970   5.827   2.529  17.160  0.8920  0.9074 -0.9658
 7519TIP3   OH243971   2.398   0.195   3.019 -0.1733 -0.5517  0.1435
 7519TIP3    H143972   2.311   0.199   2.978 -0.8688 -0.8561  1.5675
 7519TIP3    H243973   2.407   0.103   3.046  1.1078 -0.8023 -1.0915
 7520TIP3   OH243974   2.528   1.944  16.415  0.1704 -0.0217  0.5509
 7520TIP3    H143975   2.620   1.923  16.429  0.6643  2.1709  0.6413
 7520TIP3    H243976   2.487   1.859  16.397  1.8945 -1.2253  2.1280
 7521TIP3   OH243977   1.277   3.432   1.602 -0.1113  0.2546  0.1755
 7521TIP3    H143978   1.362   3.428   1.557  1.2930 -1.0776  2.8453
 7521TIP3    H243979   1.257   3.341   1.623 -1.7825  0.6605  0.3832
 7522TIP3   OH243980   3.134   1.917   5.651 -0.2948  0.3360  0.2857
 7522TIP3    H143981   3.184   1.945   5.574  0.4338  1.3943  1.1276
 7522TIP3    H243982   3.048   1.892   5.616  0.6863 -1.2011 -1.1366
 7523TIP3   OH243983   3.372   1.719   3.387 -0.0056  0.5446 -0.2876
 7523TIP3    H143984   3.288   1.756   3.360 -0.0318  0.8437  0.1881
 7523TIP3    H243985   3.437   1.770   3.338 -0.1508 -0.4822 -1.5522
 7524TIP3   OH243986   6.197   4.477  16.261  0.0935 -1.0576 -0.4133
 7524TIP3    H143987   6.247   4.462  16.340  0.2425  2.2368  0.1947
 7524TIP3    H243988   6.114   4.515  16.291 -0.4669 -1.1606 -1.7496
 7525TIP3   OH243989   4.335   4.609  10.530  0.6144  0.7762 -0.1838
 7525TIP3    H143990   4.319   4.518  10.506  1.4126  0.3032  1.0245
 7525TIP3    H243991   4.380   4.604  10.615 -0.5971  2.3297  0.5904
 7526TIP3   OH243992   2.784   2.456  15.270  0.5577  0.0951  0.5941
 7526TIP3    H143993   2.726   2.462  15.194  0.8289  1.9356  0.5167
 7526TIP3    H243994   2.850   2.392  15.244  0.4585  0.4532 -0.5962
 7527TIP3   OH243995   2.030   0.887  12.127 -0.3932  0.3475  0.3917
 7527TIP3    H143996   2.001   0.948  12.195 -0.5587 -0.0995  0.7213
 7527TIP3    H243997   2.124   0.879  12.141 -0.6910 -1.1657  1.7365
 7528TIP3   OH243998   1.507   3.034   1.020 -0.1325 -0.2031 -0.1722
 7528TIP3    H143999   1.538   2.964   1.076 -2.6278  0.6097  2.3316
 7528TIP3    H244000   1.567   3.107   1.036  0.5774 -0.7337 -0.4010
 7529TIP3   OH244001   1.967   3.679  13.072 -0.7209  0.0418  0.3627
 7529TIP3    H144002   2.036   3.740  13.045 -0.3714 -0.8745 -0.8895
 7529TIP3    H244003   1.957   3.694  13.166 -0.9276  2.2871 -0.0071
 7530TIP3   OH244004   3.289   5.951  11.874 -0.1952  0.1380 -0.3099
 7530TIP3    H144005   3.272   5.894  11.949 -0.5814  1.4564  0.6190
 7530TIP3    H244006   3.236   6.029  11.890  0.8862  1.0816 -1.1938
 7531TIP3   OH244007   0.218   2.418   0.009 -0.0194 -0.9376  0.1161
 7531TIP3    H144008   0.131   2.393  -0.023  0.9828 -3.0174 -1.1420
 7531TIP3    H244009   0.211   2.414   0.104 -0.8749 -2.7877  0.0123
 7532TIP3   OH244010   1.328   3.029  11.934 -0.2154 -0.4725 -0.2938
 7532TIP3    H144011   1.371   2.951  11.898  0.1918 -0.3922  0.0163
 7532TIP3    H244012   1.285   3.069  11.859  2.5985  1.0121 -1.1956
 7533TIP3   OH244013   6.079   6.464  10.514 -0.1046  0.2325  0.3529
 7533TIP3    H144014   6.093   6.530  10.582  0.9879  1.1064 -0.7064
 7533TIP3    H244015   6.134   6.492  10.441 -1.2770 -0.6887 -0.9123
 7534TIP3   OH244016   3.457   2.189  12.681  0.3124  0.3014 -0.3828
 7534TIP3    H144017   3.491   2.235  12.604 -0.9992  0.8123 -0.6859
 7534TIP3    H244018   3.486   2.242  12.755  0.3018  0.6561 -0.6271
 7535TIP3   OH244019   0.864   2.696   5.684  0.6414  0.2257  0.0973
 7535TIP3    H144020   0.791   2.757   5.699  0.2286 -0.6119  1.6431
 7535TIP3    H244021   0.935   2.731   5.737  0.5252 -0.4195  0.6808
 7536TIP3   OH244022   3.923   0.948  15.968  0.6636 -0.3158 -0.1426
 7536TIP3    H144023   3.878   0.968  16.050  0.8678 -0.3859 -0.0138
 7536TIP3    H244024   4.006   0.996  15.974 -0.1902  1.3333 -1.1885
 7537TIP3   OH244025   5.395   5.714  13.031  0.1375  0.0401  0.2704
 7537TIP3    H144026   5.362   5.679  13.114 -0.6208 -0.3748 -0.2005
 7537TIP3    H244027   5.321   5.705  12.971  1.2419 -1.2166 -0.9003
 7538TIP3   OH244028   3.133   5.353  14.374 -0.3614  0.5607  0.0402
 7538TIP3    H144029   3.091   5.274  14.409 -2.0309  0.0844 -2.8348
 7538TIP3    H244030   3.216   5.359  14.421 -0.5187 -2.5109  0.8408
 7539TIP3   OH244031   3.996   5.591   3.683 -0.3363  0.6459 -0.3571
 7539TIP3    H144032   4.015   5.675   3.643 -0.6986  1.2449  0.6959
 7539TIP3    H244033   3.934   5.612   3.753  0.7733 -0.2754  0.9228
 7540TIP3   OH244034   4.773   0.958   2.668 -0.4842 -0.1117  0.6478
 7540TIP3    H144035   4.764   0.873   2.626  1.6170 -1.1714  2.2784
 7540TIP3    H244036   4.867   0.978   2.664 -0.9710  2.2587  0.0529
 7541TIP3   OH244037   4.559   2.164   1.504  0.0161  0.5067 -0.0339
 7541TIP3    H144038   4.592   2.075   1.498 -1.2530  0.0137  0.2017
 7541TIP3    H244039   4.626   2.211   1.554  0.4912 -0.4077  0.1965
 7542TIP3   OH244040   6.023   0.839  16.206 -0.9416 -0.4611 -0.0450
 7542TIP3    H144041   5.962   0.837  16.132  0.1986 -2.3921 -0.9645
 7542TIP3    H244042   5.987   0.906  16.264 -1.9827  0.9767 -2.2401
 7543TIP3   OH244043   0.557   2.143   1.781  0.0771  0.6445 -1.0320
 7543TIP3    H144044   0.577   2.050   1.792 -0.7263  0.6983  1.1211
 7543TIP3    H244045   0.578   2.182   1.866 -0.6463  2.2303 -1.5620
 7544TIP3   OH244046   5.344   2.208  13.585 -0.1192 -0.5152 -0.0422
 7544TIP3    H144047   5.339   2.302  13.599  2.7476 -0.5034  1.3816
 7544TIP3    H244048   5.306   2.170  13.665  3.4728 -0.4867  1.7758
 7545TIP3   OH244049   5.614   0.213   3.137  0.1410 -0.3829 -0.3167
 7545TIP3    H144050   5.669   0.136   3.120 -0.1369 -0.1375 -2.4554
 7545TIP3    H244051   5.539   0.178   3.186  0.1910 -1.4242 -0.9642
 7546TIP3   OH244052   5.782   2.552  12.233  1.2251  0.5895  0.0140
 7546TIP3    H144053   5.737   2.481  12.278 -0.6236  1.9113  0.3086
 7546TIP3    H244054   5.794   2.520  12.143 -0.1606  0.1350 -0.0243
 7547TIP3   OH244055   0.184   2.107  13.314  0.0950  0.2139 -0.1282
 7547TIP3    H144056   0.134   2.129  13.392 -1.7402 -0.7002 -1.0144
 7547TIP3    H244057   0.185   2.188  13.262 -0.1892  0.3230  0.0366
 7548TIP3   OH244058   5.640   6.282  11.653  0.0185 -0.8455  0.2530
 7548TIP3    H144059   5.670   6.228  11.580  0.3160  0.6722 -0.7609
 7548TIP3    H244060   5.665   6.371  11.629 -2.0144 -0.0213  1.1137
 7549TIP3   OH244061   0.665   1.571  16.441  0.3269 -0.2770 -0.2360
 7549TIP3    H144062   0.722   1.531  16.376 -0.4100 -1.3350 -0.2474
 7549TIP3    H244063   0.707   1.549  16.525 -0.0431 -1.0357 -0.2450
 7550TIP3   OH244064   2.654   3.820   5.148  0.4030 -0.1073  0.0654
 7550TIP3    H144065   2.595   3.874   5.202  1.0840  1.2014 -0.4723
 7550TIP3    H244066   2.739   3.864   5.156  1.0563 -1.3469 -0.0646
 7551TIP3   OH244067   5.798   5.389   5.469  0.0167 -0.6047  0.4204
 7551TIP3    H144068   5.749   5.472   5.476  0.3349 -0.2598 -1.3599
 7551TIP3    H244069   5.850   5.386   5.549 -0.2499  0.7503  0.6624
 7552TIP3   OH244070   5.524   1.595   3.105 -1.0482  0.0123  0.6479
 7552TIP3    H144071   5.436   1.579   3.138 -2.2522  1.8183 -1.5834
 7552TIP3    H244072   5.511   1.634   3.019  1.9560 -1.0890 -0.3726
 7553TIP3   OH244073   6.032   4.216   0.226 -0.1329  0.6862 -0.1875
 7553TIP3    H144074   6.090   4.247   0.295 -0.6445  0.7353  0.2197
 7553TIP3    H244075   6.052   4.272   0.151  1.7635 -0.5816 -0.6722
 7554TIP3   OH244076   4.514   1.849  11.369  0.1580 -0.0253 -0.3868
 7554TIP3    H144077   4.570   1.869  11.443 -0.5475 -1.0561  0.4393
 7554TIP3    H244078   4.441   1.799  11.406 -2.3439  2.9548 -1.1191
 7555TIP3   OH244079   3.907   0.948   5.956 -0.1081 -0.1009  0.0013
 7555TIP3    H144080   3.828   0.951   5.901 -0.4873  1.1222  0.5793
 7555TIP3    H244081   3.878   0.908   6.037 -0.6024  2.0244  0.9052
 7556TIP3   OH244082   1.316   1.116  12.764  0.5282 -0.1344 -0.1568
 7556TIP3    H144083   1.280   1.027  12.764 -1.7055  0.7334 -0.2126
 7556TIP3    H244084   1.247   1.170  12.804  0.4517  2.0807 -3.1150
 7557TIP3   OH244085   6.047   6.225   1.752  0.1370  0.3887 -0.1050
 7557TIP3    H144086   6.128   6.270   1.730 -0.1814  0.6039 -0.8664
 7557TIP3    H244087   6.069   6.132   1.749  0.2011  0.4325 -0.9084
 7558TIP3   OH244088   2.392   0.739   5.807 -0.2687 -0.1053  0.0139
 7558TIP3    H144089   2.418   0.759   5.897  1.1591 -1.2081 -0.1238
 7558TIP3    H244090   2.369   0.646   5.809  1.5466 -0.6117 -1.1140
 7559TIP3   OH244091   2.211   1.569  14.749  0.6860  0.0749 -0.3687
 7559TIP3    H144092   2.229   1.661  14.730 -0.3140  0.5532  0.9816
 7559TIP3    H244093   2.257   1.552  14.831  0.2288 -0.4053 -0.2107
 7560TIP3   OH244094   0.339   5.851  15.939 -0.2694  0.1831  0.0953
 7560TIP3    H144095   0.378   5.884  15.858  0.6178  2.6376  1.4847
 7560TIP3    H244096   0.246   5.876  15.932  0.2260  2.3662  0.7544
 7561TIP3   OH244097   5.117   4.675   1.496 -0.2915  0.0153 -0.0976
 7561TIP3    H144098   5.104   4.591   1.539 -1.6565 -0.1623 -0.8523
 7561TIP3    H244099   5.116   4.655   1.403  2.0175  0.4933 -0.2503
 7562TIP3   OH244100   0.410   0.797   2.149 -0.3461  0.3270  0.3424
 7562TIP3    H144101   0.342   0.732   2.132 -1.3188  1.6032 -0.7617
 7562TIP3    H244102   0.492   0.753   2.129 -1.0469 -0.3466 -1.0733
 7563TIP3   OH244103   2.834   4.644   3.281 -0.1401  0.4116  0.7343
 7563TIP3    H144104   2.803   4.688   3.361 -1.6546  1.7794 -0.5623
 7563TIP3    H244105   2.861   4.716   3.224  0.4433 -0.5372 -0.2043
 7564TIP3   OH244106   6.308   0.989   1.612 -0.0893  0.0893 -0.0206
 7564TIP3    H144107   6.309   1.084   1.600  0.5187 -0.0013 -0.7160
 7564TIP3    H244108   6.280   0.977   1.702  0.0556  0.9359  0.1444
 7565TIP3   OH244109   4.043   2.449   3.828 -0.1589  0.4380 -0.0480
 7565TIP3    H144110   3.992   2.379   3.789 -2.5828  0.6251  2.6020
 7565TIP3    H244111   4.114   2.405   3.874 -0.3934 -0.1165 -0.2222
 7566TIP3   OH244112   3.506   1.604  12.588  0.1803  0.4974  0.0263
 7566TIP3    H144113   3.584   1.549  12.577  0.3408  0.3315  1.8444
 7566TIP3    H244114   3.472   1.579  12.674 -1.6535  0.8539 -0.5933
 7567TIP3   OH244115   2.042   5.912   1.975 -0.3403 -0.5580 -0.4277
 7567TIP3    H144116   2.074   5.851   1.909 -0.0348 -0.5296 -0.3073
 7567TIP3    H244117   1.966   5.954   1.935  0.0321 -0.3130 -0.8756
 7568TIP3   OH244118   1.081   4.175  15.458  0.1212  0.1092  0.5754
 7568TIP3    H144119   1.083   4.271  15.467  2.2063 -0.1004  2.5680
 7568TIP3    H244120   1.141   4.157  15.385  0.0454  0.2958  0.4667
 7569TIP3   OH244121   3.670   5.679  15.352  0.3078  0.1495 -0.0894
 7569TIP3    H144122   3.725   5.755  15.369 -1.2661  2.0321 -2.9817
 7569TIP3    H244123   3.584   5.705  15.385 -0.2481 -0.3567 -1.1247
 7570TIP3   OH244124   0.908   6.029   3.320 -0.3238 -0.3048 -0.2353
 7570TIP3    H144125   0.843   6.017   3.251  0.7302 -1.4469 -1.0364
 7570TIP3    H244126   0.869   6.094   3.379 -1.4656  0.2574 -1.6013
 7571TIP3   OH244127   6.239   5.873   5.243 -0.5573 -0.4355 -0.0862
 7571TIP3    H144128   6.190   5.950   5.273  0.5486  0.0053  0.5890
 7571TIP3    H244129   6.214   5.804   5.304 -1.2446 -0.5201 -0.4542
 7572TIP3   OH244130   5.973   4.370  11.341  0.2175  0.3944 -0.0628
 7572TIP3    H144131   6.049   4.323  11.374 -0.3453 -1.2592 -1.0496
 7572TIP3    H244132   5.913   4.374  11.415 -0.3872 -1.9053 -0.3793
 7573TIP3   OH244133   0.012   0.929   2.344 -1.0249 -0.4543 -0.0015
 7573TIP3    H144134  -0.025   0.870   2.278 -0.1684  0.3151 -1.1799
 7573TIP3    H244135   0.062   0.993   2.294  0.6261 -0.5587  1.4691
 7574TIP3   OH244136   4.471   5.400  12.093  0.3903  0.2596 -0.0424
 7574TIP3    H144137   4.398   5.436  12.042 -0.2450 -0.4210  0.3605
 7574TIP3    H244138   4.454   5.429  12.182  1.5761  1.5655 -0.2349
 7575TIP3   OH244139   2.816   4.734  13.005 -0.1978  0.1247 -0.1748
 7575TIP3    H144140   2.878   4.670  12.969  0.2563  0.4359  0.0432
 7575TIP3    H244141   2.812   4.715  13.098 -0.8670 -0.2569 -0.2786
 7576TIP3   OH244142   3.839   2.131  11.714 -0.6291  0.5801  0.1755
 7576TIP3    H144143   3.847   2.205  11.654  0.2183  0.7816  0.5428
 7576TIP3    H244144   3.893   2.155  11.790  0.1060 -0.6698  0.0504
 7577TIP3   OH244145   6.512   4.375   0.479 -0.0091  0.4206  0.2750
 7577TIP3    H144146   6.577   4.390   0.411  0.7702 -1.3310  0.5948
 7577TIP3    H244147   6.467   4.459   0.490  1.8040  1.4829 -0.3688
 7578TIP3   OH244148   2.124   5.334   0.795 -0.1969  0.7830 -0.0541
 7578TIP3    H144149   2.210   5.327   0.754 -0.2319 -1.2241  0.1830
 7578TIP3    H244150   2.142   5.331   0.889 -0.6169 -1.2261 -0.0111
 7579TIP3   OH244151   5.039   1.338  14.622  0.3301 -0.3612  0.0357
 7579TIP3    H144152   4.956   1.375  14.652  0.3708 -0.3867  0.1807
 7579TIP3    H244153   5.093   1.414  14.602  0.0663 -0.3458 -0.6316
 7580TIP3   OH244154   0.738   3.043  11.813  0.3089 -0.3095 -0.7831
 7580TIP3    H144155   0.701   3.075  11.731  0.9149 -0.8163 -1.2658
 7580TIP3    H244156   0.797   3.113  11.842  0.2530 -0.2199 -0.8872
 7581TIP3   OH244157   2.586   1.219  11.110 -0.1559  0.3306  0.0283
 7581TIP3    H144158   2.500   1.255  11.090  0.2422  0.3279 -1.7937
 7581TIP3    H244159   2.634   1.292  11.151 -0.5808  0.7453 -0.2087
 7582TIP3   OH244160   4.707   6.047   2.856  0.3851  0.1925 -0.1156
 7582TIP3    H144161   4.714   6.107   2.781  2.4138  1.2101  0.8461
 7582TIP3    H244162   4.769   5.976   2.835 -0.9646 -0.8764 -0.5869
 7583TIP3   OH244163   5.625   4.490  13.362 -0.4101  0.1455  0.1340
 7583TIP3    H144164   5.557   4.555  13.348 -0.4660 -0.1506 -1.0342
 7583TIP3    H244165   5.578   4.407  13.368 -0.1137 -0.1684 -1.5105
 7584TIP3   OH244166   4.137   2.671   1.138 -0.2825 -0.2870  0.1400
 7584TIP3    H144167   4.195   2.747   1.135 -0.7459  0.0953  0.6675
 7584TIP3    H244168   4.107   2.667   1.229 -0.7070 -0.7591 -0.0164
 7585TIP3   OH244169   0.713   1.618   3.344 -0.5415  0.5887  0.2491
 7585TIP3    H144170   0.736   1.571   3.425  0.4561  0.7161  0.0438
 7585TIP3    H244171   0.691   1.706   3.374  1.5063  1.1254  0.2039
 7586TIP3   OH244172   3.970   2.584   2.551  0.0450 -0.6137  0.8767
 7586TIP3    H144173   3.898   2.641   2.524  0.0170 -1.1567 -0.2378
 7586TIP3    H244174   3.934   2.531   2.621 -0.6366 -0.8511  0.3529
 7587TIP3   OH244175   0.269   4.027   0.101  0.0900 -0.1480  0.0956
 7587TIP3    H144176   0.235   4.010   0.189 -0.7312 -0.4634 -0.2714
 7587TIP3    H244177   0.213   4.097   0.068  1.1749  0.8226  0.2698
 7588TIP3   OH244178   6.088   4.895   0.205 -0.5686  0.1998  0.3469
 7588TIP3    H144179   6.099   4.802   0.189  1.2063  0.5705 -0.7003
 7588TIP3    H244180   5.999   4.914   0.174 -0.2905 -0.7961 -1.1050
 7589TIP3   OH244181   4.718   1.264   2.838  0.2560 -0.9504 -0.7816
 7589TIP3    H144182   4.644   1.212   2.808 -0.1887 -0.3384 -0.7501
 7589TIP3    H244183   4.758   1.298   2.758 -0.0305 -0.5584 -0.7632
 7590TIP3   OH244184   3.568   0.362  13.872 -0.2281  0.2690  0.3826
 7590TIP3    H144185   3.512   0.363  13.949 -0.1262  0.0943  0.4591
 7590TIP3    H244186   3.557   0.274  13.836 -0.5470  0.4616 -0.0021
 7591TIP3   OH244187   2.644   4.207   5.042  0.1944 -0.5840  0.3794
 7591TIP3    H144188   2.560   4.168   5.066  1.2244 -2.3535  1.2071
 7591TIP3    H244189   2.639   4.219   4.947 -1.4098  0.3946  0.5569
 7592TIP3   OH244190   0.398   1.430   1.857  0.1326 -0.2156  0.1056
 7592TIP3    H144191   0.380   1.412   1.950  0.5258  0.6089  0.3474
 7592TIP3    H244192   0.372   1.350   1.812  0.0673 -0.6790  0.9479
 7593TIP3   OH244193   3.803   4.664   2.295 -0.1137 -0.3072 -0.7299
 7593TIP3    H144194   3.717   4.682   2.258 -0.4982 -2.4366 -0.9097
 7593TIP3    H244195   3.849   4.616   2.226  0.3185 -1.4233  0.3212
 7594TIP3   OH244196   5.792   1.691  11.675 -0.2864 -0.1848 -0.1262
 7594TIP3    H144197   5.854   1.706  11.746  0.8894  1.9392 -1.5233
 7594TIP3    H244198   5.836   1.727  11.597 -2.4775 -0.3841 -1.5030
 7595TIP3   OH244199   1.847   6.051  11.932 -0.3429  0.0219  0.6250
 7595TIP3    H144200   1.797   6.133  11.932  1.3924  1.1396 -2.1911
 7595TIP3    H244201   1.937   6.078  11.912  0.5447 -2.4346  1.1400
 7596TIP3   OH244202   5.731   3.432   2.721 -0.1009 -0.2315 -0.5670
 7596TIP3    H144203   5.790   3.472   2.785  1.3722  0.4840 -2.3447
 7596TIP3    H244204   5.749   3.338   2.728  1.2029 -0.0281 -1.0110
 7597TIP3   OH244205   5.379   2.471   4.443  0.1952  0.7473 -0.6771
 7597TIP3    H144206   5.289   2.470   4.410 -0.7353  2.9207  1.6051
 7597TIP3    H244207   5.412   2.558   4.420  1.2474  0.4597 -0.3117
 7598TIP3   OH244208   5.585   6.330   3.010 -0.1848 -0.3557 -0.2045
 7598TIP3    H144209   5.663   6.299   3.056  0.6220  0.5211 -0.9546
 7598TIP3    H244210   5.523   6.352   3.079  0.5513 -0.2550  0.4287
 7599TIP3   OH244211   1.703   5.564   4.964  0.0072 -0.2156 -0.5726
 7599TIP3    H144212   1.686   5.488   4.908 -1.2004 -0.4434  0.0879
 7599TIP3    H244213   1.745   5.527   5.042 -2.1570 -0.4491  0.5132
 7600TIP3   OH244214   1.290   0.595   2.902 -0.1321  0.2368 -0.1580
 7600TIP3    H144215   1.223   0.529   2.882  0.4518 -0.2456 -0.5230
 7600TIP3    H244216   1.369   0.545   2.920  0.1720  0.8155  0.1266
 7601TIP3   OH244217   5.634   6.629   4.122 -0.0988 -0.0570  0.1646
 7601TIP3    H144218   5.596   6.660   4.204  2.8283  1.5131  0.9762
 7601TIP3    H244219   5.712   6.581   4.148 -0.3615 -1.4892 -1.6017
 7602TIP3   OH244220   1.483   1.710   3.391  0.4527 -0.5000 -0.6249
 7602TIP3    H144221   1.469   1.625   3.349  1.3217 -0.6138 -0.7010
 7602TIP3    H244222   1.574   1.707   3.421 -0.0963 -0.3590  1.1238
 7603TIP3   OH244223   4.631   5.375   0.904  0.1404  0.6376 -0.3064
 7603TIP3    H144224   4.719   5.411   0.909  0.5475 -0.3856  0.1594
 7603TIP3    H244225   4.635   5.295   0.956 -0.9973  0.4415 -0.4962
 7604TIP3   OH244226   6.594   6.285   3.155  0.1854  1.1365 -0.4796
 7604TIP3    H144227   6.516   6.318   3.200  0.0013  1.8614 -1.3134
 7604TIP3    H244228   6.586   6.319   3.066  0.4921 -0.3643 -1.0922
 7605TIP3   OH244229   6.421   5.154   2.182  0.2911  0.0460 -0.0766
 7605TIP3    H144230   6.410   5.071   2.135  0.5954  0.7561 -1.4150
 7605TIP3    H244231   6.332   5.179   2.206  0.1675 -0.4903  0.0452
 7606TIP3   OH244232   2.964   2.847  16.318  0.2968  0.2400  0.4186
 7606TIP3    H144233   2.875   2.830  16.286  0.5689 -0.7674  0.1881
 7606TIP3    H244234   3.016   2.857  16.238  0.9214 -1.9781  0.5243
 7607TIP3   OH244235   2.646   4.460  15.796 -0.0439 -0.0116 -0.2629
 7607TIP3    H144236   2.634   4.482  15.704 -0.3300 -0.4523 -0.3345
 7607TIP3    H244237   2.735   4.489  15.817 -0.0599  0.2885 -0.6183
 7608TIP3   OH244238   4.899   0.760   0.764 -0.0606  0.3013 -0.0041
 7608TIP3    H144239   4.851   0.842   0.753 -0.0437  0.2674 -0.3521
 7608TIP3    H244240   4.985   0.787   0.798 -0.3100  0.3643  0.5843
 7609TIP3   OH244241   2.446   5.759   6.588  0.6232 -0.3023  0.0414
 7609TIP3    H144242   2.515   5.819   6.618 -0.0085  0.2270  0.4455
 7609TIP3    H244243   2.427   5.788   6.499  2.5162 -1.8889 -0.9145
 7610TIP3   OH244244   6.055   1.623  11.316 -0.4834 -0.1273 -0.0476
 7610TIP3    H144245   5.991   1.552  11.311  0.4211 -0.8942 -1.2955
 7610TIP3    H244246   6.088   1.631  11.227 -1.2274  2.5119 -0.1219
 7611TIP3   OH244247   0.798   6.655   4.837  0.3682  0.2036 -0.1887
 7611TIP3    H144248   0.751   6.578   4.869 -0.1204  1.2686  1.7252
 7611TIP3    H244249   0.858   6.621   4.771 -1.3775 -1.5190 -0.9506
 7612TIP3   OH244250   5.597   1.041   1.272 -0.2165 -0.0545  0.3546
 7612TIP3    H144251   5.691   1.028   1.259 -0.1230 -0.1093  1.0863
 7612TIP3    H244252   5.587   1.134   1.290 -0.5147  0.3033 -1.5433
 7613TIP3   OH244253   1.057   6.320   4.207  0.0707 -0.7782  0.1505
 7613TIP3    H144254   1.040   6.324   4.112 -0.5104  0.3622  0.2886
 7613TIP3    H244255   1.146   6.352   4.216  0.1517 -0.9515 -0.0163
 7614TIP3   OH244256   0.241   0.173   0.400 -0.3733  0.2341  0.4292
 7614TIP3    H144257   0.241   0.108   0.330  0.2481 -0.0932  0.7255
 7614TIP3    H244258   0.310   0.234   0.377 -0.3699  0.2963  0.6006
 7615TIP3   OH244259   5.627   0.478  12.287 -0.4070  0.7677 -0.0369
 7615TIP3    H144260   5.559   0.452  12.226  0.9025  0.9003 -1.5653
 7615TIP3    H244261   5.661   0.561  12.252 -0.0718  1.1762  1.2148
 7616TIP3   OH244262   3.125   5.375   1.587 -0.3950  0.4472  0.4461
 7616TIP3    H144263   3.070   5.391   1.663  0.3461  0.2486  1.0309
 7616TIP3    H244264   3.166   5.291   1.604 -1.9439 -0.6868 -1.2182
 7617TIP3   OH244265   6.542   1.688  12.161 -0.0657  0.2647  0.0175
 7617TIP3    H144266   6.587   1.611  12.126 -2.3539 -1.2018  0.2105
 7617TIP3    H244267   6.588   1.762  12.122  2.4772 -1.1546  0.1585
 7618TIP3   OH244268   6.429   2.935   3.878 -0.6706 -0.3231  0.5122
 7618TIP3    H144269   6.450   2.940   3.784 -0.3761 -0.8989  0.5435
 7618TIP3    H244270   6.360   2.869   3.883 -1.0863  0.1195  0.6391
 7619TIP3   OH244271   3.962   5.103   3.789  0.5398 -0.1732  0.2351
 7619TIP3    H144272   4.051   5.134   3.802 -0.0133  0.6711  2.2005
 7619TIP3    H244273   3.907   5.180   3.804 -0.5719 -0.9385  0.1985
 7620TIP3   OH244274   6.205   4.482   5.597 -0.1542  0.1780  0.1825
 7620TIP3    H144275   6.279   4.450   5.545 -1.7103 -1.5682 -1.0472
 7620TIP3    H244276   6.152   4.532   5.535 -0.0409  1.4007  1.0481
 7621TIP3   OH244277   0.604   3.755  12.027  0.1431 -0.1054 -0.1987
 7621TIP3    H144278   0.536   3.823  12.023  1.1550  0.8813 -1.0791
 7621TIP3    H244279   0.634   3.758  12.118 -0.6238 -0.1795  0.0597
 7622TIP3   OH244280   0.953   4.408   4.830  0.2862  0.1865  0.3287
 7622TIP3    H144281   0.914   4.439   4.912 -2.1573 -1.8062 -0.0093
 7622TIP3    H244282   0.930   4.315   4.827  2.5120 -0.3468 -1.4230
 7623TIP3   OH244283   6.628   2.636   0.778  0.3972  0.4007  0.0774
 7623TIP3    H144284   6.620   2.692   0.701  0.0590  0.9585  0.5129
 7623TIP3    H244285   6.668   2.556   0.745 -0.5209  0.3103 -0.8222
 7624TIP3   OH244286   5.857   1.016  11.539  0.0192 -0.0261 -0.4358
 7624TIP3    H144287   5.822   1.103  11.560  1.8501  0.6464 -0.0585
 7624TIP3    H244288   5.861   1.014  11.443  0.8409  0.6947 -0.4307
 7625TIP3   OH244289   3.479   0.763   3.860 -0.1063 -0.0492 -0.7384
 7625TIP3    H144290   3.557   0.793   3.907 -1.0249  1.0775  0.0665
 7625TIP3    H244291   3.512   0.693   3.802  1.2914 -0.3977  0.4452
 7626TIP3   OH244292   2.590   3.849   3.310  0.2426 -0.5711  0.9354
 7626TIP3    H144293   2.549   3.814   3.389  1.0080  1.6713  2.3562
 7626TIP3    H244294   2.683   3.832   3.321  0.1614 -2.2136 -0.5432
 7627TIP3   OH244295   3.579   4.946   6.767 -0.5269  0.6643  0.1579
 7627TIP3    H144296   3.666   4.911   6.750 -1.2789 -1.4136  0.4440
 7627TIP3    H244297   3.524   4.911   6.697 -2.1373 -2.1007  2.7043
 7628TIP3   OH244298   2.065   5.816   4.676 -0.3708  0.2788 -0.2362
 7628TIP3    H144299   2.042   5.844   4.588  1.6189  2.0547 -0.2189
 7628TIP3    H244300   2.160   5.826   4.682 -0.3908 -0.3930  1.8936
 7629TIP3   OH244301   6.354   4.386   3.154  0.2974  0.1335 -0.3313
 7629TIP3    H144302   6.363   4.463   3.210  2.1997 -1.0647  1.0917
 7629TIP3    H244303   6.442   4.372   3.118 -0.0838 -1.2283 -0.7656
 7630TIP3   OH244304   3.741   6.168  12.712 -0.2006  0.6330  0.5904
 7630TIP3    H144305   3.773   6.228  12.780  0.9921  1.0757 -0.3572
 7630TIP3    H244306   3.649   6.155  12.734  0.0803  1.0368  2.1085
 7631TIP3   OH244307   6.392   5.511   5.888  0.5486 -0.2835  0.4225
 7631TIP3    H144308   6.349   5.499   5.803  1.5348 -0.8731  0.0036
 7631TIP3    H244309   6.482   5.483   5.873  1.3358  1.8601  1.0453
 7632TIP3   OH244310   0.123   2.058  14.630 -0.3327 -0.5562 -0.5547
 7632TIP3    H144311   0.077   2.059  14.715  0.4268 -0.5429 -0.1411
 7632TIP3    H244312   0.147   2.149  14.615  0.6130 -0.7405 -0.1910
 7633TIP3   OH244313   1.475   5.088  16.707 -0.4974 -0.3113 -0.2889
 7633TIP3    H144314   1.460   5.067  16.800  1.6244 -0.1442  0.1064
 7633TIP3    H244315   1.390   5.121  16.677 -1.4492 -1.1317  1.3726
 7634TIP3   OH244316   5.970   4.611   2.405  0.7032 -0.0018 -0.0428
 7634TIP3    H144317   6.009   4.531   2.370 -0.3600 -0.4523 -0.1951
 7634TIP3    H244318   6.035   4.643   2.468  1.9263 -0.0230 -1.2591
 7635TIP3   OH244319   4.802   1.619  14.028  0.2073 -0.5012 -0.0756
 7635TIP3    H144320   4.769   1.530  14.044  1.6419 -0.6641  2.2423
 7635TIP3    H244321   4.873   1.607  13.965  0.4440 -1.0261  0.2830
 7636TIP3   OH244322   3.734   4.014   4.493 -0.2949  0.0192  0.0897
 7636TIP3    H144323   3.657   3.957   4.503  0.1500 -0.9648 -1.9087
 7636TIP3    H244324   3.722   4.056   4.408  1.7604 -0.7655 -0.6128
 7637TIP3   OH244325   4.085   5.081   2.334 -0.1617 -0.9020 -0.0646
 7637TIP3    H144326   4.102   5.114   2.245 -1.5201  1.8097  0.6144
 7637TIP3    H244327   3.994   5.051   2.332 -0.1398 -1.0010  0.3631
 7638TIP3   OH244328   5.024   5.166   4.627  0.0090 -0.2228  0.0686
 7638TIP3    H144329   5.053   5.080   4.597 -0.8913 -1.0890  1.5934
 7638TIP3    H244330   4.949   5.147   4.685  1.3708  1.3911  2.4588
 7639TIP3   OH244331   3.876   3.190   0.967  0.0438 -0.7178 -0.2531
 7639TIP3    H144332   3.818   3.172   1.041 -0.2226 -2.3137 -0.8258
 7639TIP3    H244333   3.964   3.184   1.004 -0.0760 -2.0206 -0.1620
 7640TIP3   OH244334   5.176   2.423   3.697 -0.0128  0.0050 -0.0540
 7640TIP3    H144335   5.243   2.366   3.661  1.0113  0.0548  1.6945
 7640TIP3    H244336   5.099   2.409   3.642  0.5809 -2.1733 -0.3436
 7641TIP3   OH244337   5.459   1.401   3.706  0.2197  0.5520 -0.3087
 7641TIP3    H144338   5.419   1.422   3.621  0.7728  0.9253 -0.4743
 7641TIP3    H244339   5.492   1.484   3.738  2.6122 -0.0808 -1.0671
 7642TIP3   OH244340   2.072   2.827   4.713 -0.1325  0.1907  0.4541
 7642TIP3    H144341   2.022   2.853   4.636  0.1950  1.0094  0.5116
 7642TIP3    H244342   2.142   2.772   4.679  0.3977  1.0856  0.0888
 7643TIP3   OH244343   5.123   4.295   1.516  0.5325  0.1961 -0.4558
 7643TIP3    H144344   5.132   4.281   1.422  1.4352 -3.1224  0.0683
 7643TIP3    H244345   5.033   4.327   1.527 -0.1823 -1.1023 -2.2632
 7644TIP3   OH244346   2.654   1.240   2.049  0.1419  0.2727 -0.2440
 7644TIP3    H144347   2.733   1.290   2.066 -0.3086  0.3241  1.7603
 7644TIP3    H244348   2.585   1.306   2.040  0.3158  0.2356 -2.0786
 7645TIP3   OH244349   3.783   1.793   3.523 -0.1969  0.2286 -0.0730
 7645TIP3    H144350   3.773   1.749   3.439  0.6742  0.0552 -0.0912
 7645TIP3    H244351   3.876   1.817   3.527  0.1927 -1.4674  1.6750
 7646TIP3   OH244352   4.060   5.979   5.740 -0.3481  0.9661  0.7218
 7646TIP3    H144353   4.076   6.006   5.649 -0.2401 -0.5090  0.2863
 7646TIP3    H244354   4.095   6.051   5.793  1.3321  0.9763 -0.3528
 7647TIP3   OH244355   1.726   4.345  12.369 -0.1072 -0.2285 -0.3342
 7647TIP3    H144356   1.739   4.422  12.425  1.1015 -1.1855  0.7339
 7647TIP3    H244357   1.671   4.286  12.421  0.0971 -0.6587 -0.6034
 7648TIP3   OH244358   2.134   3.313  10.309  0.1235  0.4723  0.1358
 7648TIP3    H144359   2.201   3.365  10.352  1.2181  0.4697 -1.5169
 7648TIP3    H244360   2.055   3.367  10.313  0.0636  0.2599  2.5451
 7649TIP3   OH244361   0.870   0.863  17.191 -0.2990 -0.2428  0.3375
 7649TIP3    H144362   0.831   0.815  17.264 -2.2423  1.6872  0.6102
 7649TIP3    H244363   0.887   0.951  17.225  1.8024 -0.2434 -0.5898
 7650TIP3   OH244364   5.058   3.987  15.444  0.1195  0.4023  0.2347
 7650TIP3    H144365   5.095   3.964  15.358 -0.5315  0.4176 -0.0549
 7650TIP3    H244366   4.977   3.936  15.449 -0.7212  1.6789  0.1010
 7651TIP3   OH244367   3.602   0.790   4.960  0.6702  0.4211 -0.6528
 7651TIP3    H144368   3.543   0.723   4.925  2.0536 -1.3537  0.3140
 7651TIP3    H244369   3.616   0.850   4.886 -0.0109 -0.7748 -1.7826
 7652TIP3   OH244370   0.053   6.283   2.194 -0.0501 -0.1145  0.1879
 7652TIP3    H144371   0.072   6.358   2.251 -1.2302  0.8641 -0.6807
 7652TIP3    H244372   0.078   6.313   2.107  1.4320 -1.4899  0.1219
 7653TIP3   OH244373   1.466   4.509   5.967  0.0679 -0.7778 -0.2069
 7653TIP3    H144374   1.441   4.480   5.880  1.7885  0.1453 -1.0277
 7653TIP3    H244375   1.434   4.599   5.973 -1.4670 -1.3596  0.7380
 7654TIP3   OH244376   4.466   3.323   5.544  0.7150  0.2478  0.1205
 7654TIP3    H144377   4.518   3.256   5.588  1.9381  0.3788 -1.1154
 7654TIP3    H244378   4.515   3.404   5.556  0.6617  0.4224 -0.7948
 7655TIP3   OH244379   4.626   1.451   5.398 -0.5063 -0.0727 -0.1292
 7655TIP3    H144380   4.539   1.423   5.369  0.1296 -0.9996 -1.2206
 7655TIP3    H244381   4.669   1.370   5.427  0.6533  0.0593 -1.4101
 7656TIP3   OH244382   2.430   1.429  12.118 -0.3865  0.1989 -0.6091
 7656TIP3    H144383   2.410   1.512  12.074 -1.3743  0.2896  0.0044
 7656TIP3    H244384   2.462   1.455  12.204  0.2398 -0.0305 -0.7692
 7657TIP3   OH244385   1.545   2.095  17.138 -0.3957 -0.1864 -0.5161
 7657TIP3    H144386   1.501   2.145  17.207  2.7991  2.4485 -0.2435
 7657TIP3    H244387   1.547   2.155  17.063  1.5885 -0.7047 -0.8916
 7658TIP3   OH244388   1.296   1.430   1.851 -0.4756  1.0623  0.3718
 7658TIP3    H144389   1.358   1.368   1.889 -2.3044 -0.7279  0.5355
 7658TIP3    H244390   1.350   1.504   1.822  1.8436 -0.8869 -0.4299
 7659TIP3   OH244391   5.690   4.449  12.558 -0.2853 -0.8762  0.2236
 7659TIP3    H144392   5.762   4.459  12.621  0.1972 -0.8182 -0.3349
 7659TIP3    H244393   5.730   4.410  12.481 -0.3632  1.3850 -1.0066
 7660TIP3   OH244394   1.824   1.167   4.759 -0.4914 -0.2547 -0.1940
 7660TIP3    H144395   1.858   1.100   4.818 -0.4794 -0.5451 -0.5285
 7660TIP3    H244396   1.897   1.185   4.699 -0.5824 -0.1332 -0.2695
 7661TIP3   OH244397   2.259   0.022   0.564 -0.2309  0.1457 -0.5417
 7661TIP3    H144398   2.228  -0.068   0.550 -2.0515  0.7801 -0.7087
 7661TIP3    H244399   2.219   0.047   0.648 -1.7784  1.6644 -1.7095
 7662TIP3   OH244400   3.896   5.893  17.139 -0.2985 -0.6705  0.5425
 7662TIP3    H144401   3.936   5.942  17.211 -0.2726 -1.2805  0.9462
 7662TIP3    H244402   3.835   5.833  17.182 -0.8765 -0.4758 -0.0018
 7663TIP3   OH244403   5.916   0.446   6.043  0.0575  0.0816 -0.2636
 7663TIP3    H144404   5.840   0.504   6.044  0.3435  0.4657 -0.8934
 7663TIP3    H244405   5.958   0.460   6.128  1.0644  2.0367 -1.0597
 7664TIP3   OH244406   4.331   1.165  13.023  0.3428  0.4091 -0.1429
 7664TIP3    H144407   4.317   1.080  12.981 -1.4455  0.3656  0.5035
 7664TIP3    H244408   4.317   1.229  12.953 -0.4115  0.2548 -0.1283
 7665TIP3   OH244409   6.328   2.616   0.811 -0.2661 -0.5293 -0.0390
 7665TIP3    H144410   6.343   2.547   0.876 -1.5856  0.0777  0.9413
 7665TIP3    H244411   6.413   2.657   0.798 -0.2426  0.1834  2.2858
 7666TIP3   OH244412   4.183   4.971   6.683  0.7846 -0.1786  0.3662
 7666TIP3    H144413   4.215   4.911   6.751 -0.0589 -0.5366  0.4537
 7666TIP3    H244414   4.147   5.044   6.732 -1.0162 -1.0353  0.3551
 7667TIP3   OH244415   1.423   5.842   4.706  0.1557 -0.5461 -0.3090
 7667TIP3    H144416   1.496   5.899   4.731 -1.1121  0.5981  0.8426
 7667TIP3    H244417   1.411   5.859   4.613  0.6706  0.0670 -0.2725
 7668TIP3   OH244418   5.713   4.512  16.496 -0.2161  0.3249  0.4487
 7668TIP3    H144419   5.763   4.465  16.429  0.4246 -0.7729  1.6785
 7668TIP3    H244420   5.717   4.603  16.468  3.0942  0.3725  0.8490
 7669TIP3   OH244421   5.072   1.603  13.254 -0.0060 -0.6687 -0.5763
 7669TIP3    H144422   5.114   1.637  13.175  0.8823 -1.6269 -0.5299
 7669TIP3    H244423   5.013   1.535  13.222 -0.3111 -0.4469 -0.4897
 7670TIP3   OH244424   3.064   1.990  12.622 -0.5320  0.7405  0.3964
 7670TIP3    H144425   2.969   1.996  12.610 -0.6670 -1.0391  0.4862
 7670TIP3    H244426   3.075   1.989  12.717 -0.6100 -1.5252  0.3977
 7671TIP3   OH244427   4.333   1.665  11.492 -0.1360 -0.4643 -0.4702
 7671TIP3    H144428   4.345   1.599  11.560  0.4910  0.9621  0.8422
 7671TIP3    H244429   4.311   1.616  11.413  0.6757 -2.2477  0.4039
 7672TIP3   OH244430   6.568   4.244  12.006 -0.3623 -0.2568 -0.1243
 7672TIP3    H144431   6.602   4.159  11.976  0.7731 -0.7253  2.2883
 7672TIP3    H244432   6.621   4.264  12.083 -1.8096  1.8215  0.3671
 7673TIP3   OH244433   0.684   2.692   0.098 -0.7082 -0.3965  0.1104
 7673TIP3    H144434   0.594   2.668   0.074 -0.5119 -1.4051  0.3426
 7673TIP3    H244435   0.739   2.635   0.044 -0.1819  1.1059 -0.9575
 7674TIP3   OH244436   1.735   1.185  14.515  0.3027  0.1934  0.1925
 7674TIP3    H144437   1.783   1.266  14.497  2.0406 -0.3478  2.2565
 7674TIP3    H244438   1.738   1.176  14.610 -3.4884 -0.1456  0.3719
 7675TIP3   OH244439   4.647   4.885   6.261 -0.2390 -0.3239  0.3739
 7675TIP3    H144440   4.598   4.966   6.275 -2.4659 -1.7128  0.8111
 7675TIP3    H244441   4.713   4.886   6.330  0.5333  1.6666 -0.3406
 7676TIP3   OH244442   5.159   4.307   4.659  0.2427  0.6495  0.1747
 7676TIP3    H144443   5.161   4.301   4.755  1.0739  3.2366  0.3630
 7676TIP3    H244444   5.067   4.317   4.638 -0.0726 -1.1383  0.5806
 7677TIP3   OH244445   1.865   2.109  16.303 -0.1750  0.1025 -0.0974
 7677TIP3    H144446   1.918   2.187  16.285  0.8808 -0.5075  0.3089
 7677TIP3    H244447   1.925   2.035  16.289 -0.5254 -0.5513  1.6528
 7678TIP3   OH244448   5.689   3.821  16.482 -0.1739 -0.2986  0.3245
 7678TIP3    H144449   5.765   3.864  16.442 -0.4157 -0.8911 -0.7828
 7678TIP3    H244450   5.698   3.729  16.458 -2.0086 -0.1324 -1.0474
 7679TIP3   OH244451   3.574   6.732   1.772  0.1453  0.4969  0.4770
 7679TIP3    H144452   3.586   6.797   1.841 -0.6279  0.9711  0.1720
 7679TIP3    H244453   3.480   6.734   1.753  0.3746  0.4790 -0.6987
 7680TIP3   OH244454   5.962   4.828  16.648  0.1411 -0.0561 -0.2208
 7680TIP3    H144455   6.026   4.896  16.630 -0.8111  0.6389 -1.0805
 7680TIP3    H244456   6.013   4.748  16.658  1.3284  0.9181  1.5657
 7681TIP3   OH244457   3.134   4.727   0.249  0.0970  0.1659  0.3306
 7681TIP3    H144458   3.186   4.784   0.306 -0.2531 -0.5258  1.3363
 7681TIP3    H244459   3.141   4.640   0.288 -1.3282 -0.0451  0.1333
 7682TIP3   OH244460   2.251   3.270   1.380 -0.3225  0.1614 -0.3215
 7682TIP3    H144461   2.313   3.200   1.400  1.2234  1.9649  1.3764
 7682TIP3    H244462   2.291   3.317   1.307 -1.8779 -1.3155 -2.1804
 7683TIP3   OH244463   1.759   4.420  12.036 -0.0467 -1.5212 -0.2720
 7683TIP3    H144464   1.839   4.395  12.082  0.1648 -2.2439 -1.0089
 7683TIP3    H244465   1.789   4.440  11.947  0.1123  3.3349  0.7635
 7684TIP3   OH244466   2.207   5.844  11.830 -0.1684  0.2736 -0.1152
 7684TIP3    H144467   2.158   5.762  11.842 -1.2722  1.4349  4.0340
 7684TIP3    H244468   2.150   5.897  11.774 -1.9523  0.1759  1.5620
 7685TIP3   OH244469   2.272   3.562  14.368 -0.1107 -0.0636  0.0452
 7685TIP3    H144470   2.257   3.612  14.288 -0.6132 -0.7674 -0.3024
 7685TIP3    H244471   2.188   3.519  14.386 -0.0571  0.2426  1.0578
 7686TIP3   OH244472   6.583   1.007  15.084  0.4914 -0.4797  0.2536
 7686TIP3    H144473   6.521   0.972  15.147 -0.1318 -0.0515 -0.1115
 7686TIP3    H244474   6.658   0.948  15.089  0.7671 -0.0113  1.9289
 7687TIP3   OH244475   2.794   0.457  14.953  0.7300  0.3575 -0.7864
 7687TIP3    H144476   2.730   0.504  15.007  0.4983 -1.0418  0.1916
 7687TIP3    H244477   2.874   0.510  14.959  0.3101  0.9328 -0.1787
 7688TIP3   OH244478   2.642   2.240   3.607 -0.3123 -0.5984  0.9263
 7688TIP3    H144479   2.731   2.216   3.635 -0.6063  0.3179  2.7030
 7688TIP3    H244480   2.655   2.306   3.539  0.3887 -1.7340 -0.0671
 7689TIP3   OH244481   3.874   4.300  16.352  0.9976 -0.0404  0.3149
 7689TIP3    H144482   3.797   4.347  16.385  2.1719  0.8174  1.8849
 7689TIP3    H244483   3.840   4.215  16.324 -0.4328  0.1334  1.4756
 7690TIP3   OH244484   3.992   4.636   0.834  0.4935  0.1466 -0.2162
 7690TIP3    H144485   4.039   4.553   0.824  0.0728 -0.0059 -0.9096
 7690TIP3    H244486   3.900   4.613   0.828  0.2652  0.2948  2.2147
 7691TIP3   OH244487   5.831   1.865  11.973  0.3591 -0.4326  0.3709
 7691TIP3    H144488   5.874   1.782  11.994 -0.0527 -0.9368 -0.7559
 7691TIP3    H244489   5.742   1.840  11.947 -0.1036  0.4606  1.0823
 7692TIP3   OH244490   2.534   3.364   4.940 -0.0416  0.4446  0.2687
 7692TIP3    H144491   2.504   3.454   4.924  1.5611  0.9974  0.2627
 7692TIP3    H244492   2.545   3.326   4.853 -2.2165 -0.2800  0.2955
 7693TIP3   OH244493   1.104   3.381   0.753  0.1495  0.1064  0.1539
 7693TIP3    H144494   1.114   3.443   0.825  1.7798  0.5809 -0.4602
 7693TIP3    H244495   1.188   3.335   0.749 -0.3900 -0.8254 -0.5972
 7694TIP3   OH244496   3.069   0.758   4.003  0.1592  0.0543  0.3685
 7694TIP3    H144497   3.022   0.681   4.035 -1.1845  1.2887  1.4039
 7694TIP3    H244498   3.055   0.756   3.908  0.5966 -1.2534  0.3086
 7695TIP3   OH244499   4.451   5.577  12.326  0.0661  0.0374  0.2596
 7695TIP3    H144500   4.378   5.526  12.362 -0.2058 -0.4473 -0.9508
 7695TIP3    H244501   4.414   5.663  12.310  0.1071  0.1661  0.8292
 7696TIP3   OH244502   3.276   4.084  12.594  0.7672 -0.0734  0.1491
 7696TIP3    H144503   3.358   4.104  12.640  0.9047  0.2776 -0.2432
 7696TIP3    H244504   3.228   4.166  12.594  0.1738 -0.4186  0.8577
 7697TIP3   OH244505   5.149   2.734   5.814 -0.2286  0.0848  0.0984
 7697TIP3    H144506   5.234   2.690   5.809 -0.5464 -0.5153 -0.0985
 7697TIP3    H244507   5.113   2.728   5.726 -0.4373  0.4233  0.1569
 7698TIP3   OH244508   5.522   5.043  14.299 -0.6136 -0.4975  0.1086
 7698TIP3    H144509   5.545   5.101  14.372 -3.4220  0.3821  0.3431
 7698TIP3    H244510   5.569   5.079  14.224 -1.5938  1.5794  0.4457
 7699TIP3   OH244511   1.916   4.320  14.037  0.3015 -0.8649 -0.3248
 7699TIP3    H144512   1.821   4.329  14.027  0.4235  0.6652 -0.2753
 7699TIP3    H244513   1.930   4.226  14.049 -1.0349 -1.3073 -2.0251
 7700TIP3   OH244514   5.805   6.092  14.011  0.6014  0.0718  0.2144
 7700TIP3    H144515   5.727   6.046  14.039 -0.2244  1.2403 -0.1227
 7700TIP3    H244516   5.792   6.182  14.042  1.8693  0.2494  0.2684
 7701TIP3   OH244517   4.676   2.365  13.225  0.1069 -0.1599  0.1239
 7701TIP3    H144518   4.772   2.367  13.225  0.1521 -1.3983  1.8125
 7701TIP3    H244519   4.653   2.297  13.161  0.3244  0.6994 -0.8786
 7702TIP3   OH244520   6.785   1.556   4.310  0.1200 -0.2560 -1.1359
 7702TIP3    H144521   6.808   1.475   4.264  1.6601  0.1783 -1.1802
 7702TIP3    H244522   6.734   1.527   4.386  1.8608 -1.4050 -0.3744
 7703TIP3   OH244523   4.611   5.944   2.516 -0.4578  1.0118 -0.2138
 7703TIP3    H144524   4.546   5.977   2.454  0.8674  3.5270 -0.3699
 7703TIP3    H244525   4.630   6.019   2.572  0.8076 -0.2738  1.1246
 7704TIP3   OH244526   3.514   5.648  12.974  0.3854  0.4063 -0.1870
 7704TIP3    H144527   3.519   5.557  12.946 -0.7365 -0.1150  1.2758
 7704TIP3    H244528   3.558   5.650  13.059 -0.1092  1.1199  0.0575
 7705TIP3   OH244529   4.972   5.818  12.303 -0.4286 -0.0607 -0.3109
 7705TIP3    H144530   4.945   5.881  12.237  0.4630 -0.5109 -1.1236
 7705TIP3    H244531   5.020   5.869  12.369 -1.6973  0.4544  0.2169
 7706TIP3   OH244532   5.794   5.867   5.543  0.0816 -0.2003 -0.4836
 7706TIP3    H144533   5.875   5.918   5.548 -0.2207  0.1709  0.8123
 7706TIP3    H244534   5.724   5.932   5.545 -0.3372 -0.6677  2.2276
 7707TIP3   OH244535   2.089   1.105   1.865 -0.0511  0.0924  0.0142
 7707TIP3    H144536   2.047   1.021   1.845 -1.2997  1.0184 -1.3926
 7707TIP3    H244537   2.114   1.140   1.779  2.1476  0.3172  0.7156
 7708TIP3   OH244538   4.074   2.464   1.610 -1.0625  0.9695  0.0347
 7708TIP3    H144539   4.157   2.455   1.658 -0.0415 -0.1261 -1.8909
 7708TIP3    H244540   4.007   2.434   1.672 -0.1258  2.5120  1.8567
 7709TIP3   OH244541   1.381   0.111  16.467 -0.0459  0.1145  0.1422
 7709TIP3    H144542   1.443   0.172  16.427  0.9535 -0.0556  1.4243
 7709TIP3    H244543   1.431   0.030  16.479 -0.5445 -0.0534  1.1082
 7710TIP3   OH244544   2.469   3.730   6.156  0.0074 -0.4491  0.3060
 7710TIP3    H144545   2.532   3.695   6.093 -0.9326  0.9262 -1.4512
 7710TIP3    H244546   2.520   3.749   6.234  1.2192 -2.1044 -0.0474
 7711TIP3   OH244547   4.382   3.377   0.586  0.5792  0.3458 -0.3359
 7711TIP3    H144548   4.312   3.348   0.645  1.6057 -1.1735  0.1739
 7711TIP3    H244549   4.362   3.336   0.502  2.0003 -1.8821  0.3708
 7712TIP3   OH244550   4.235   0.431  11.832  0.0722 -0.1230 -0.3372
 7712TIP3    H144551   4.162   0.373  11.809 -0.8849  1.4306 -1.3171
 7712TIP3    H244552   4.292   0.377  11.886 -2.0781 -1.2363  0.9127
 7713TIP3   OH244553   5.686   1.500  15.323  0.0795  0.0247 -0.5598
 7713TIP3    H144554   5.705   1.534  15.236 -1.4759  0.5960 -0.6936
 7713TIP3    H244555   5.596   1.469  15.318  0.5926 -1.6761  0.3328
 7714TIP3   OH244556   5.900   4.212   4.057  0.2040  0.1865 -0.2609
 7714TIP3    H144557   5.914   4.118   4.069 -0.8612  0.0933  0.3339
 7714TIP3    H244558   5.809   4.219   4.029  0.1096  1.0797  0.2369
 7715TIP3   OH244559   0.077   0.673  13.069  0.1452 -0.0934 -0.3583
 7715TIP3    H144560   0.142   0.607  13.047  0.1344  0.4575 -2.1607
 7715TIP3    H244561   0.122   0.756  13.058 -0.8295  0.2938 -1.5437
 7716TIP3   OH244562   3.153   2.488  11.174 -0.4830  0.3407  0.6961
 7716TIP3    H144563   3.231   2.534  11.142 -1.3761  0.0390 -2.0999
 7716TIP3    H244564   3.185   2.402  11.201  0.0288 -0.1932 -1.5033
 7717TIP3   OH244565   5.613   3.805   4.386 -0.2649 -0.1452 -0.3136
 7717TIP3    H144566   5.639   3.803   4.294 -0.2270 -2.8684 -0.2901
 7717TIP3    H244567   5.528   3.850   4.385 -0.1915 -0.0022 -1.6547
 7718TIP3   OH244568   4.582   2.497  17.145  0.2613  0.1884  0.5998
 7718TIP3    H144569   4.525   2.497  17.068 -0.2567  1.6290  0.9733
 7718TIP3    H244570   4.638   2.574  17.134  1.4879 -0.6771  0.7153
 7719TIP3   OH244571   4.582   4.805  12.578  0.3024 -0.4017 -0.1780
 7719TIP3    H144572   4.595   4.734  12.641  1.8854  0.2665  0.2661
 7719TIP3    H244573   4.613   4.769  12.495  2.4225  0.2243  0.3208
 7720TIP3   OH244574   4.370   4.805   0.980  0.4394 -0.1110  0.5290
 7720TIP3    H144575   4.297   4.743   0.982  0.0490  0.2017 -1.9231
 7720TIP3    H244576   4.443   4.754   0.944 -0.0922  0.9908 -2.2544
 7721TIP3   OH244577   4.160   3.259  11.836  0.6228  0.4398 -0.9058
 7721TIP3    H144578   4.088   3.197  11.823  1.4649 -0.6295 -0.5111
 7721TIP3    H244579   4.132   3.337  11.789 -1.3407  0.4587  0.2034
 7722TIP3   OH244580   2.354   3.267  13.853  0.2971 -0.2941 -0.0515
 7722TIP3    H144581   2.443   3.298  13.841  0.2567 -0.4671 -0.8381
 7722TIP3    H244582   2.362   3.188  13.906  0.4407  0.7747  1.5504
 7723TIP3   OH244583   1.905   1.095   4.057 -0.1714 -0.4044  0.3858
 7723TIP3    H144584   1.860   1.180   4.059 -0.4284 -0.5159 -0.4273
 7723TIP3    H244585   1.839   1.034   4.023 -0.1327 -1.0254  1.4087
 7724TIP3   OH244586   3.603   4.077  16.125  0.2662 -0.3616 -0.6904
 7724TIP3    H144587   3.564   3.989  16.120 -1.7180  0.5264 -1.0144
 7724TIP3    H244588   3.684   4.063  16.174 -1.3043 -1.9567  1.6270
 7725TIP3   OH244589   5.977   5.874  16.643  0.0402 -0.5622 -0.7037
 7725TIP3    H144590   5.940   5.789  16.665 -0.2261 -0.2593  0.0248
 7725TIP3    H244591   6.053   5.883  16.701  0.2910 -0.4704 -1.0439
 7726TIP3   OH244592   6.662   4.409   3.884  0.0334 -0.3652 -0.8678
 7726TIP3    H144593   6.593   4.474   3.899  1.6444  1.3807 -0.8433
 7726TIP3    H244594   6.620   4.325   3.904 -1.8282  0.7252  0.0061
 7727TIP3   OH244595   0.295   2.604   5.639 -0.3425  0.2365 -0.2364
 7727TIP3    H144596   0.380   2.568   5.615  0.1199  0.9563  0.2981
 7727TIP3    H244597   0.311   2.655   5.718 -1.3509  0.0427  0.1116
 7728TIP3   OH244598   6.477   6.568  12.242 -0.2147 -0.1475  0.1907
 7728TIP3    H144599   6.399   6.615  12.211 -0.3839  0.2590  1.2114
 7728TIP3    H244600   6.507   6.619  12.317  1.8897  0.4940 -1.0650
 7729TIP3   OH244601   2.689   3.987  11.028 -0.2126  0.2208  0.3690
 7729TIP3    H144602   2.669   4.004  10.937  0.2992  0.3290  0.2722
 7729TIP3    H244603   2.613   4.019  11.077 -0.3600  0.4230  0.0033
 7730TIP3   OH244604   3.929   2.795   5.991 -0.5183 -0.0496  0.4817
 7730TIP3    H144605   3.882   2.740   6.054  2.6700 -4.3632 -0.6385
 7730TIP3    H244606   4.011   2.818   6.036  0.1034  0.0403 -0.6686
 7731TIP3   OH244607   3.582   1.016  14.071 -0.2052  0.0695 -0.3361
 7731TIP3    H144608   3.522   0.968  14.014 -0.0966  0.5106 -0.8362
 7731TIP3    H244609   3.654   1.042  14.013  0.9266 -1.2547  0.4653
 7732TIP3   OH244610   1.206   2.338   4.091 -0.4540 -0.1711  0.5008
 7732TIP3    H144611   1.156   2.325   4.172 -1.3968 -0.3966 -0.1206
 7732TIP3    H244612   1.145   2.318   4.021 -0.4298  2.5517 -0.3667
 7733TIP3   OH244613   5.228   3.498   5.566 -0.4073 -0.5534 -0.3549
 7733TIP3    H144614   5.226   3.439   5.642 -0.8819 -1.7995 -1.3134
 7733TIP3    H244615   5.296   3.461   5.509  0.3254  0.6912 -0.2959
 7734TIP3   OH244616   5.393   2.245   2.367  0.3597 -0.8815  0.1172
 7734TIP3    H144617   5.342   2.241   2.286  1.0115 -0.5498 -0.3045
 7734TIP3    H244618   5.441   2.162   2.369  2.3640  0.2185 -1.1567
 7735TIP3   OH244619   3.175   2.348  17.134  0.9700 -0.0354 -0.2016
 7735TIP3    H144620   3.148   2.266  17.174  0.2149  0.0293 -0.5623
 7735TIP3    H244621   3.194   2.326  17.043  2.6917 -0.1845  0.1799
 7736TIP3   OH244622   5.096   5.893  14.748 -0.7906 -0.0802  0.1702
 7736TIP3    H144623   5.049   5.887  14.831  0.8384  0.0836  1.1264
 7736TIP3    H244624   5.175   5.840  14.761 -1.6398 -1.9730 -2.0873
 7737TIP3   OH244625   3.456   5.080  15.748  0.1935  0.2741  0.4092
 7737TIP3    H144626   3.423   5.152  15.694  2.0408  1.0236  0.2432
 7737TIP3    H244627   3.482   5.013  15.685 -0.0319  0.1131  0.4871
 7738TIP3   OH244628   4.575   3.006  13.320 -0.4483  0.4809  0.2364
 7738TIP3    H144629   4.547   2.918  13.293  1.3371 -0.1460  0.3907
 7738TIP3    H244630   4.668   2.996  13.341 -0.5256  2.1420  1.4364
 7739TIP3   OH244631   6.155   4.758  11.701  0.1796 -0.0310 -0.4218
 7739TIP3    H144632   6.180   4.685  11.644  0.5070 -0.1857 -0.0812
 7739TIP3    H244633   6.160   4.835  11.645  4.6711  0.4083  0.4341
 7740TIP3   OH244634   1.293   2.240   1.224  0.1003 -0.3005  0.2565
 7740TIP3    H144635   1.305   2.298   1.299 -2.5553 -0.6524  1.0115
 7740TIP3    H244636   1.227   2.284   1.170  0.4258 -1.0770 -0.7840
 7741TIP3   OH244637   4.148   3.862  11.676 -0.4552 -0.6532  0.2584
 7741TIP3    H144638   4.121   3.923  11.607  1.0264  1.6910  1.6822
 7741TIP3    H244639   4.081   3.872  11.744  1.3419  1.6137  1.7463
 7742TIP3   OH244640   5.663   5.643  12.981  0.2002 -0.2005 -0.5159
 7742TIP3    H144641   5.581   5.692  12.984 -0.4590 -1.3278 -0.0015
 7742TIP3    H244642   5.708   5.666  13.063 -1.0272 -1.9930  0.7153
 7743TIP3   OH244643   1.827   0.045   2.551 -0.2977 -0.1927 -0.1041
 7743TIP3    H144644   1.863  -0.040   2.526  1.2560  0.2151  0.7134
 7743TIP3    H244645   1.900   0.092   2.589 -1.5405  0.9324  0.9385
 7744TIP3   OH244646   3.716   6.232  13.851 -0.4739 -0.9903  0.2587
 7744TIP3    H144647   3.687   6.234  13.760 -0.8915 -1.4542  0.3805
 7744TIP3    H244648   3.673   6.155  13.888  1.9415 -2.4888  0.0816
 7745TIP3   OH244649   5.151   2.857  12.397  0.0927 -0.0061 -0.6694
 7745TIP3    H144650   5.245   2.873  12.401  0.0523 -0.1711  2.7095
 7745TIP3    H244651   5.143   2.772  12.354  1.2308  1.4560 -3.9314
 7746TIP3   OH244652   1.461   1.053  14.778 -0.4018 -0.4016 -0.4624
 7746TIP3    H144653   1.497   1.141  14.786  1.1357 -0.9522 -1.0014
 7746TIP3    H244654   1.517   1.010  14.713  1.1692 -2.9086  2.3940
 7747TIP3   OH244655   6.387   2.890   4.393 -0.3091 -0.1580 -0.3898
 7747TIP3    H144656   6.352   2.810   4.430 -0.8098 -0.9792 -2.5441
 7747TIP3    H244657   6.320   2.920   4.331  0.1484  1.5768 -0.0879
 7748TIP3   OH244658   0.872   2.197  13.010  0.0291 -0.3028 -0.0156
 7748TIP3    H144659   0.814   2.144  13.064 -0.5662 -1.9374 -2.1952
 7748TIP3    H244660   0.816   2.232  12.941  0.8911  1.2819  0.0552
 7749TIP3   OH244661   2.243   6.666  13.438 -0.8287 -0.3826  0.2477
 7749TIP3    H144662   2.267   6.692  13.349 -0.3675 -1.7544 -0.0359
 7749TIP3    H244663   2.149   6.682  13.443 -0.5545  1.3186  0.0808
 7750TIP3   OH244664   6.239   6.291   0.708 -0.8366 -0.1945 -0.6481
 7750TIP3    H144665   6.170   6.357   0.724 -1.0588 -0.2280 -1.4498
 7750TIP3    H244666   6.193   6.218   0.666 -0.6943 -1.1089  0.7600
 7751TIP3   OH244667   5.556   6.705  11.855  0.6530  0.2962 -0.2249
 7751TIP3    H144668   5.635   6.742  11.814  2.2727 -2.8868 -0.1763
 7751TIP3    H244669   5.578   6.613  11.870 -2.0964 -0.0315  2.3406
 7752TIP3   OH244670   4.018   1.260  11.056 -0.3727 -0.8143 -0.0497
 7752TIP3    H144671   3.954   1.276  11.126 -0.8579 -1.7992 -0.2555
 7752TIP3    H244672   3.965   1.252  10.976  0.2057  0.6215 -0.5888
 7753TIP3   OH244673   1.184   4.502   2.152 -0.0087  0.2314 -0.3970
 7753TIP3    H144674   1.173   4.468   2.241 -1.6236 -1.7318 -1.3014
 7753TIP3    H244675   1.265   4.552   2.155  0.7665 -1.0978  1.7865
 7754TIP3   OH244676   5.579   1.610  12.911 -0.2409  0.7295  0.4862
 7754TIP3    H144677   5.593   1.702  12.934  0.6652  1.1338 -1.5357
 7754TIP3    H244678   5.523   1.613  12.833 -0.5931 -0.4517  0.6886
 7755TIP3   OH244679   0.562   4.347   5.377 -0.3040 -0.6295  0.0028
 7755TIP3    H144680   0.531   4.260   5.352  2.7400 -1.1012 -2.3282
 7755TIP3    H244681   0.624   4.332   5.448 -0.2961 -0.2863  0.0701
 7756TIP3   OH244682   6.537   0.791  11.401  0.3443  0.2641 -0.0481
 7756TIP3    H144683   6.472   0.722  11.414 -1.1286  1.6750  0.2597
 7756TIP3    H244684   6.498   0.869  11.441  1.4895  1.5502 -1.3616
 7757TIP3   OH244685   3.043   2.056  14.853 -0.2267  0.0485 -0.7165
 7757TIP3    H144686   3.031   2.136  14.803 -0.4725 -0.1390 -0.9583
 7757TIP3    H244687   3.067   2.085  14.941 -1.7845  0.4018 -0.4125
 7758TIP3   OH244688   5.690   1.954  17.128  0.0336 -0.1677  0.2443
 7758TIP3    H144689   5.746   2.005  17.069 -1.1842 -1.5440 -2.1312
 7758TIP3    H244690   5.751   1.896  17.174  0.8424 -0.0670 -0.6803
 7759TIP3   OH244691   1.968   1.239   0.372  0.0506 -0.7322  0.3341
 7759TIP3    H144692   1.966   1.154   0.327 -0.4464 -1.1577  1.1392
 7759TIP3    H244693   2.059   1.267   0.365  0.2621 -1.4249  0.2169
 7760TIP3   OH244694   2.113   5.019   6.360  0.0005 -0.5379 -0.5226
 7760TIP3    H144695   2.067   4.957   6.303 -0.5219 -0.8729  0.2522
 7760TIP3    H244696   2.062   5.019   6.441 -0.8986  2.0834 -1.0520
 7761TIP3   OH244697   5.143   4.580   5.902 -0.4218 -0.5786  0.6946
 7761TIP3    H144698   5.118   4.659   5.853 -0.1312 -0.3764  0.8735
 7761TIP3    H244699   5.166   4.612   5.989 -1.4329 -0.9980  1.1270
 7762TIP3   OH244700   2.086   4.566  12.255 -0.1496  0.2020  0.1405
 7762TIP3    H144701   2.062   4.627  12.185  0.8279 -1.1609 -1.4157
 7762TIP3    H244702   2.036   4.487  12.237  0.3108 -0.2551  0.8223
 7763TIP3   OH244703   3.763   0.692   4.347  0.3265 -0.3074  0.0983
 7763TIP3    H144704   3.692   0.673   4.286  2.7053 -2.0881 -2.2837
 7763TIP3    H244705   3.794   0.606   4.376  1.4973  0.4169  1.0641
 7764TIP3   OH244706   0.278   0.489   2.953 -0.0903  0.4508 -0.1810
 7764TIP3    H144707   0.304   0.501   2.861  0.6367  0.1118 -0.0195
 7764TIP3    H244708   0.296   0.574   2.994 -0.2051  0.5336 -0.3016
 7765TIP3   OH244709   6.179   0.751  10.680  0.2309  0.1191 -0.2928
 7765TIP3    H144710   6.084   0.740  10.675  0.2079  0.2108 -0.0783
 7765TIP3    H244711   6.191   0.841  10.711  0.3880  0.1474 -0.4386
 7766TIP3   OH244712   6.116   1.850   3.485 -0.1149 -0.2657  0.2917
 7766TIP3    H144713   6.182   1.866   3.417 -1.3742 -0.8958 -1.1135
 7766TIP3    H244714   6.103   1.755   3.483 -1.2612 -0.1146  0.3484
 7767TIP3   OH244715   0.856   6.658   5.300  0.1805  0.5713  0.3285
 7767TIP3    H144716   0.853   6.713   5.222 -0.4369  0.3123  0.1665
 7767TIP3    H244717   0.764   6.633   5.316  0.6010 -1.6277 -0.4797
 7768TIP3   OH244718   5.465   4.360   2.817  0.4076 -0.1954 -0.5163
 7768TIP3    H144719   5.446   4.354   2.723 -1.4476  0.8474 -0.2472
 7768TIP3    H244720   5.405   4.298   2.858 -0.9854  1.5501  0.1888
 7769TIP3   OH244721   6.742   5.608   5.316  0.2875 -0.2797 -0.5866
 7769TIP3    H144722   6.835   5.589   5.333  0.3970  0.0035 -0.8731
 7769TIP3    H244723   6.695   5.557   5.383  0.6144 -0.9749 -0.8848
 7770TIP3   OH244724   5.053   5.168   1.480 -0.3599 -0.3192 -0.2377
 7770TIP3    H144725   5.008   5.197   1.559  1.7735 -0.4144  1.0541
 7770TIP3    H244726   5.063   5.073   1.491 -0.0935 -0.3410 -0.6366
 7771TIP3   OH244727   4.058   2.075  13.836 -0.3436  0.0515  0.5841
 7771TIP3    H144728   4.082   2.150  13.782  0.3965  2.0487  3.5784
 7771TIP3    H244729   4.078   1.999  13.781 -1.1469  1.9921 -2.5229
 7772TIP3   OH244730   1.495   2.621   4.412  0.5162 -0.4178 -0.4353
 7772TIP3    H144731   1.491   2.525   4.419  1.1213 -0.5813 -1.9912
 7772TIP3    H244732   1.403   2.648   4.405  0.3711 -0.9748 -0.8069
 7773TIP3   OH244733   2.772   1.564  13.402 -0.0214 -0.0304 -0.3001
 7773TIP3    H144734   2.795   1.546  13.310  0.0371 -1.4814 -0.0058
 7773TIP3    H244735   2.851   1.542  13.451  0.0774  1.1248  0.0792
 7774TIP3   OH244736   3.536   6.394  14.042 -0.5167  0.0455 -0.3376
 7774TIP3    H144737   3.582   6.372  14.122 -0.6615  2.6756  0.5117
 7774TIP3    H244738   3.600   6.378  13.972  0.1336 -0.7426  0.4305
 7775TIP3   OH244739   4.175   5.707  14.756  0.1997  0.6942  0.1073
 7775TIP3    H144740   4.191   5.800  14.741  0.6127  0.4180 -1.2911
 7775TIP3    H244741   4.134   5.677  14.675  1.1483 -0.5731  0.0758
 7776TIP3   OH244742   6.699   3.986  16.929 -0.3259  0.4405 -0.5534
 7776TIP3    H144743   6.675   3.980  16.836  2.1803 -1.1038 -1.1759
 7776TIP3    H244744   6.787   4.025  16.928  0.1756 -0.6098  1.0829
 7777TIP3   OH244745   5.980   2.754  16.950 -0.5308 -0.0102  0.2149
 7777TIP3    H144746   5.907   2.741  16.890 -2.1119  0.9607  1.8686
 7777TIP3    H244747   6.028   2.672  16.947 -0.9134 -0.1942 -1.9018
 7778TIP3   OH244748   4.286   1.479   0.638 -0.0697 -0.2066 -0.1378
 7778TIP3    H144749   4.314   1.526   0.559 -0.7581  0.9286  0.2781
 7778TIP3    H244750   4.305   1.387   0.619  0.7057  0.1635 -1.2250
 7779TIP3   OH244751   6.327   6.367  13.064  0.0461 -0.0995 -0.6925
 7779TIP3    H144752   6.319   6.460  13.084  0.6023  0.0376 -1.1109
 7779TIP3    H244753   6.303   6.324  13.146 -0.5738  0.3977 -0.6060
 7780TIP3   OH244754   1.834   5.838   5.796 -0.6685 -0.3457 -0.1430
 7780TIP3    H144755   1.877   5.833   5.882  0.4909  2.7219 -0.4748
 7780TIP3    H244756   1.742   5.820   5.814 -0.4348  0.2442  1.7781
 7781TIP3   OH244757   6.653   4.553   5.816 -0.1696  0.1241  0.2420
 7781TIP3    H144758   6.585   4.489   5.832 -1.3927  0.9239 -1.5573
 7781TIP3    H244759   6.634   4.625   5.877 -1.1560  0.4897 -0.4798
 7782TIP3   OH244760   6.713   4.823   1.351  0.4645 -0.6391  0.2752
 7782TIP3    H144761   6.694   4.827   1.444 -0.9271  4.3447 -0.0494
 7782TIP3    H244762   6.634   4.787   1.311  1.0718 -2.7940  0.9961
 7783TIP3   OH244763   3.139   5.260   4.747  0.0959  0.2094 -0.1050
 7783TIP3    H144764   3.046   5.282   4.737  0.3032  0.4009 -1.6908
 7783TIP3    H244765   3.183   5.313   4.681  1.2727 -0.3443  0.2322
 7784TIP3   OH244766   0.815   3.531   6.030  0.4121  0.3651 -0.3896
 7784TIP3    H144767   0.767   3.589   6.089 -1.3642  0.1293 -1.5387
 7784TIP3    H244768   0.832   3.453   6.082  3.4038  2.1134  1.3749
 7785TIP3   OH244769   0.483   5.419  11.901  0.1502  0.3335 -0.7449
 7785TIP3    H144770   0.396   5.383  11.913  0.5212 -1.2133 -2.5357
 7785TIP3    H244771   0.502   5.464  11.983 -1.7746 -0.4784  0.1669
 7786TIP3   OH244772   5.787   1.708   3.252 -0.0431 -0.5319 -0.5231
 7786TIP3    H144773   5.701   1.694   3.211 -0.1652 -1.0798 -0.0929
 7786TIP3    H244774   5.840   1.633   3.222  0.0626 -0.5834 -0.2089
 7787TIP3   OH244775   3.843   2.269  14.956 -0.6870  0.3376  0.1324
 7787TIP3    H144776   3.861   2.362  14.940 -1.1537  0.2717 -0.8164
 7787TIP3    H244777   3.794   2.240  14.878  0.1066 -0.8857  0.0655
 7788TIP3   OH244778   3.893   2.753  15.990  0.8632 -0.7967  0.1981
 7788TIP3    H144779   3.843   2.757  15.908  1.1129  0.2643  0.0943
 7788TIP3    H244780   3.853   2.820  16.046  1.4309 -0.7378  0.5342
 7789TIP3   OH244781   4.233   6.600  10.599  0.0062  0.6708 -0.2304
 7789TIP3    H144782   4.218   6.532  10.533 -0.3175  0.2622  0.2566
 7789TIP3    H244783   4.203   6.681  10.557 -1.5221  0.2010 -0.0826
 7790TIP3   OH244784   0.015   5.812   3.615 -0.1713  0.0557  0.5230
 7790TIP3    H144785  -0.059   5.768   3.657 -2.3766  1.9372 -1.2644
 7790TIP3    H244786   0.046   5.750   3.549 -1.9642  0.3258 -0.6085
 7791TIP3   OH244787   4.626   5.538   3.502 -0.4049  0.8480  0.1293
 7791TIP3    H144788   4.576   5.567   3.425 -0.9836  1.5007  0.7472
 7791TIP3    H244789   4.566   5.480   3.549 -0.2000  0.7819  0.3069
 7792TIP3   OH244790   6.095   4.504  15.796  0.5669  0.4564  0.0656
 7792TIP3    H144791   6.114   4.570  15.863 -0.4007 -0.4356  1.2386
 7792TIP3    H244792   6.127   4.422  15.833 -2.1064 -0.4492  0.4945
 7793TIP3   OH244793   0.093   4.829  12.864 -0.5313  0.5938  0.3758
 7793TIP3    H144794   0.004   4.865  12.865 -1.0355 -0.6477  1.3026
 7793TIP3    H244795   0.143   4.886  12.921 -0.4519  1.9737 -1.0408
 7794TIP3   OH244796   4.817   3.093   2.330 -0.0668  0.1701 -0.0911
 7794TIP3    H144797   4.872   3.033   2.381 -0.3465 -0.4028 -0.4579
 7794TIP3    H244798   4.760   3.036   2.279  0.0067  0.7489 -0.8283
 7795TIP3   OH244799   4.309   5.573   4.417 -0.3718 -0.1173  0.7193
 7795TIP3    H144800   4.265   5.639   4.363  1.3553 -1.0400 -1.9315
 7795TIP3    H244801   4.336   5.620   4.495  0.9600  2.4208 -1.1880
 7796TIP3   OH244802   0.119   5.756  15.751  0.9855  0.1236  0.5050
 7796TIP3    H144803   0.153   5.706  15.826  1.1728 -1.9982 -0.9410
 7796TIP3    H244804   0.036   5.792  15.782  0.3662 -1.9050  1.3282
 7797TIP3   OH244805   4.307   6.381   3.400  0.7588  0.0114 -0.3113
 7797TIP3    H144806   4.360   6.458   3.423 -2.1706  2.5884 -1.8429
 7797TIP3    H244807   4.280   6.344   3.484  1.2785  1.2898  0.4365
 7798TIP3   OH244808   3.113   4.559  16.893 -0.3603 -0.4523 -0.4631
 7798TIP3    H144809   3.037   4.520  16.850  0.1886 -1.3047 -0.6641
 7798TIP3    H244810   3.179   4.567  16.825 -0.0882 -0.1983 -0.1724
 7799TIP3   OH244811   1.695   1.926   3.213 -0.2124 -0.5281  0.0907
 7799TIP3    H144812   1.634   1.967   3.275  0.7358 -0.2895  0.8758
 7799TIP3    H244813   1.644   1.856   3.173 -1.1641 -0.0151  0.3739
 7800TIP3   OH244814   4.847   1.825  12.991  1.2035  0.4635 -0.3092
 7800TIP3    H144815   4.798   1.772  12.927  2.9690  1.2785 -2.4133
 7800TIP3    H244816   4.786   1.895  13.015  0.0271 -0.6255 -0.0433
 7801TIP3   OH244817   1.659   6.723   6.180 -0.1972  0.1711 -0.0227
 7801TIP3    H144818   1.567   6.696   6.178 -0.5121  1.1475  0.9552
 7801TIP3    H244819   1.707   6.646   6.148 -1.4241  0.0490 -1.6601
 7802TIP3   OH244820   0.784   3.542  11.115 -0.3650 -0.0723  0.2032
 7802TIP3    H144821   0.762   3.559  11.206 -0.9977  1.2004 -0.1701
 7802TIP3    H244822   0.728   3.602  11.065 -0.3687 -1.0815 -1.0393
 7803TIP3   OH244823   0.297   1.460   0.501  0.3389  0.4196  0.3544
 7803TIP3    H144824   0.311   1.555   0.496 -1.6538  0.6969 -0.5473
 7803TIP3    H244825   0.356   1.424   0.434  1.2859  0.9858  0.8665
 7804TIP3   OH244826   2.761   3.333   4.225  0.4195  0.1417  0.3112
 7804TIP3    H144827   2.784   3.262   4.285 -1.1289 -0.8392 -0.2385
 7804TIP3    H244828   2.690   3.379   4.268  0.1941  0.2365 -0.1602
 7805TIP3   OH244829   1.552   1.933  15.020  0.3420 -0.0357  0.1031
 7805TIP3    H144830   1.552   1.930  15.116  0.8244 -3.7219  0.0898
 7805TIP3    H244831   1.642   1.912  14.996  0.0072 -0.0601 -1.1424
 7806TIP3   OH244832   2.926   5.021  15.423 -0.4426 -0.0135  0.1202
 7806TIP3    H144833   2.987   4.950  15.444 -0.6915 -0.5361 -0.9317
 7806TIP3    H244834   2.851   5.006  15.481 -0.1407 -0.1193  0.4887
 7807TIP3   OH244835   3.485   1.645   0.758  0.9993 -0.4874 -0.0345
 7807TIP3    H144836   3.424   1.589   0.709  1.5274 -0.7495 -0.3915
 7807TIP3    H244837   3.431   1.685   0.826  0.4008 -0.6412 -0.4139
 7808TIP3   OH244838   3.073   0.515   0.839 -1.0004 -0.1517  0.0943
 7808TIP3    H144839   3.049   0.491   0.928  1.2670 -1.3924  0.3995
 7808TIP3    H244840   3.100   0.433   0.798 -0.0797  0.7248 -1.1020
 7809TIP3   OH244841   5.407   6.061   6.348 -0.1891 -0.2068  0.0593
 7809TIP3    H144842   5.464   5.997   6.390 -0.4489 -1.6025 -1.6464
 7809TIP3    H244843   5.324   6.014   6.336  0.1898 -0.2066 -2.8973
 7810TIP3   OH244844   2.061   3.970   2.727  0.1363  0.3394 -0.5953
 7810TIP3    H144845   2.028   4.012   2.648  0.2335 -0.5573 -1.1073
 7810TIP3    H244846   2.154   3.994   2.730  0.4123 -0.6015 -1.3888
 7811TIP3   OH244847   1.354   2.018   0.196 -0.2030  0.1313  0.4197
 7811TIP3    H144848   1.303   2.096   0.217  0.1805  0.0527  1.6793
 7811TIP3    H244849   1.302   1.945   0.228 -0.2788 -0.0951 -0.2111
 7812TIP3   OH244850   6.359   2.065  12.453  0.3384 -0.2518  0.5981
 7812TIP3    H144851   6.323   2.137  12.401  0.8300 -0.1201  0.4282
 7812TIP3    H244852   6.444   2.047  12.411 -0.3562 -1.8133 -0.1731
 7813TIP3   OH244853   6.500   0.212   4.243  0.3553  0.4474 -0.2013
 7813TIP3    H144854   6.413   0.216   4.204  0.6179  1.2105 -0.7383
 7813TIP3    H244855   6.522   0.303   4.263  0.9079  0.2324  0.1958
 7814TIP3   OH244856   0.601   6.423  12.761  0.9381 -0.3720  0.1441
 7814TIP3    H144857   0.576   6.514  12.742  0.0043 -0.1338  2.2381
 7814TIP3    H244858   0.631   6.426  12.852  0.9267 -2.1621  0.2211
 7815TIP3   OH244859   2.508   4.361   2.883  0.0977 -0.3739 -0.8449
 7815TIP3    H144860   2.422   4.323   2.862  0.6967 -3.3956  1.7265
 7815TIP3    H244861   2.492   4.415   2.960  0.7333 -2.3884  0.7632
 7816TIP3   OH244862   4.856   4.619   0.775  0.4539  0.0808 -0.0005
 7816TIP3    H144863   4.804   4.699   0.761  0.3765  0.2262  1.0733
 7816TIP3    H244864   4.887   4.595   0.688  0.1271  1.0493 -0.3911
 7817TIP3   OH244865   1.619   4.566  12.850  0.5616  0.4990  0.6397
 7817TIP3    H144866   1.567   4.563  12.770  2.3028 -0.2740 -0.4769
 7817TIP3    H244867   1.636   4.474  12.871  2.4013  0.7671  0.3864
 7818TIP3   OH244868   3.225   6.274   5.906 -0.0254 -0.0202  0.0162
 7818TIP3    H144869   3.261   6.358   5.936 -0.6743  0.5499 -0.7798
 7818TIP3    H244870   3.278   6.250   5.831  0.5095 -0.6023  0.5745
 7819TIP3   OH244871   1.132   6.696  11.673 -0.1356  0.5295  0.1781
 7819TIP3    H144872   1.114   6.604  11.688 -0.8599  0.9113  1.7358
 7819TIP3    H244873   1.227   6.705  11.686  0.0483 -0.0955 -0.6539
 7820TIP3   OH244874   1.667   1.003  15.585  0.2241 -0.2333  0.9444
 7820TIP3    H144875   1.613   1.041  15.516  1.2590 -0.8851 -0.2456
 7820TIP3    H244876   1.655   0.909  15.575  3.7027 -0.5489 -1.1689
 7821TIP3   OH244877   0.412   5.793   1.314  0.7181 -0.8519  0.6629
 7821TIP3    H144878   0.434   5.885   1.332 -1.4273 -0.4984  1.6325
 7821TIP3    H244879   0.447   5.777   1.227 -1.2261  1.7307 -0.6628
 7822TIP3   OH244880   5.915   0.524   4.394 -0.2353  0.1715  0.1604
 7822TIP3    H144881   5.932   0.490   4.482  0.0094  0.5577  0.2659
 7822TIP3    H244882   5.860   0.458   4.353  1.1395 -0.8941 -0.0092
 7823TIP3   OH244883   5.490   6.306  13.073  0.1424  0.2611  0.2709
 7823TIP3    H144884   5.416   6.259  13.036 -0.4430  0.3721  1.2893
 7823TIP3    H244885   5.473   6.398  13.052  0.9248  0.1145 -1.0894
 7824TIP3   OH244886   1.059   5.346   5.460 -0.1903  0.9420 -0.3626
 7824TIP3    H144887   0.966   5.340   5.439  0.2541  0.2885 -2.2329
 7824TIP3    H244888   1.091   5.418   5.405  0.3847  1.2070  0.3213
 7825TIP3   OH244889   2.843   6.700   1.489 -0.3237  0.2465 -0.4511
 7825TIP3    H144890   2.761   6.654   1.507  0.2742  0.0371  1.9153
 7825TIP3    H244891   2.905   6.631   1.465  0.0858 -0.0096  1.2850
 7826TIP3   OH244892   4.186   2.251  16.323  0.7230  0.0695 -0.7078
 7826TIP3    H144893   4.241   2.276  16.249  1.1048  0.2636 -0.3576
 7826TIP3    H244894   4.123   2.189  16.286 -0.6408  2.0040 -1.7176
 7827TIP3   OH244895   3.448   2.012   5.641  0.1863  0.1049 -0.0824
 7827TIP3    H144896   3.380   1.956   5.678  0.5104  0.7841  1.5522
 7827TIP3    H244897   3.498   1.953   5.584  0.6790 -1.3580  1.8048
 7828TIP3   OH244898   0.276   6.133   4.426  0.4379 -0.3110  0.3393
 7828TIP3    H144899   0.241   6.091   4.505  0.1016 -0.9713 -0.1560
 7828TIP3    H244900   0.226   6.215   4.419  1.5162  0.5025  1.6448
 7829TIP3   OH244901   0.789   4.868  11.228 -0.2203 -0.0059  0.0139
 7829TIP3    H144902   0.876   4.861  11.267  0.2500  1.8597 -0.6209
 7829TIP3    H244903   0.744   4.935  11.281 -1.8119 -2.0191  1.2726
 7830TIP3   OH244904   0.413   2.184   4.063 -0.0724  0.4704  1.2427
 7830TIP3    H144905   0.461   2.103   4.043 -0.0352  0.5696  0.9261
 7830TIP3    H244906   0.321   2.160   4.052  0.0108  0.9411 -0.6205
 7831TIP3   OH244907   0.896   3.584   0.665 -0.0260 -0.4972  0.2998
 7831TIP3    H144908   0.864   3.586   0.755 -1.1678 -2.5992 -0.0471
 7831TIP3    H244909   0.979   3.537   0.670  0.3805  0.2084  0.3690
 7832TIP3   OH244910   3.719   6.758   3.306 -0.6764 -0.0253  0.0619
 7832TIP3    H144911   3.686   6.709   3.382 -0.3545 -1.8646 -0.9492
 7832TIP3    H244912   3.644   6.761   3.246 -0.0057 -1.3515 -0.8627
 7833TIP3   OH244913   3.175   6.610   4.888 -0.3598 -0.3487 -0.1679
 7833TIP3    H144914   3.232   6.554   4.941 -3.4666 -3.6088 -0.1422
 7833TIP3    H244915   3.116   6.651   4.951  1.0488  2.0351 -0.3342
 7834TIP3   OH244916   3.824   1.498  16.719 -0.3883  0.4541  0.1304
 7834TIP3    H144917   3.843   1.534  16.805  1.6551 -0.0304 -0.0754
 7834TIP3    H244918   3.826   1.403  16.732 -3.2170  0.3588  0.1598
 7835TIP3   OH244919   1.273   1.365  10.908  0.2424 -0.6192 -0.5940
 7835TIP3    H144920   1.289   1.446  10.860 -0.2504 -0.0728  0.1469
 7835TIP3    H244921   1.359   1.341  10.945  0.0502  0.4934  0.5978
 7836TIP3   OH244922   4.658   5.843   5.238 -0.1291 -0.3107 -0.7876
 7836TIP3    H144923   4.711   5.889   5.174 -0.1110  0.6449 -0.1025
 7836TIP3    H244924   4.711   5.767   5.265  0.9871  0.7541  0.0606
 7837TIP3   OH244925   6.222   2.065  14.140  0.1358  0.0569 -0.0030
 7837TIP3    H144926   6.270   1.982  14.135  0.7449  0.3004  1.4778
 7837TIP3    H244927   6.130   2.040  14.149 -0.0348 -0.4217 -2.6254
 7838TIP3   OH244928   0.360   1.027   4.471 -0.2768 -0.1233  0.0361
 7838TIP3    H144929   0.327   0.950   4.518  1.8837 -1.9194 -1.2310
 7838TIP3    H244930   0.443   1.047   4.515  0.5287 -0.2785 -1.3822
 7839TIP3   OH244931   3.862   3.966  11.034  1.0034 -0.0343  0.8047
 7839TIP3    H144932   3.864   3.912  10.954  0.6911  1.5047 -0.2673
 7839TIP3    H244933   3.919   4.040  11.014  1.2990  0.1230  2.2046
 7840TIP3   OH244934   2.097   1.278   2.884 -0.7230  0.0295  0.3949
 7840TIP3    H144935   2.006   1.302   2.872 -0.8873 -0.6452  0.2402
 7840TIP3    H244936   2.114   1.212   2.816  0.3654  1.3984 -0.6818
 7841TIP3   OH244937   1.496   6.762  17.144  0.2399  0.1706 -0.1169
 7841TIP3    H144938   1.520   6.809  17.064 -1.4867  0.9413 -0.1994
 7841TIP3    H244939   1.550   6.683  17.142  0.4926  0.3651 -1.8425
 7842TIP3   OH244940   2.575   0.919   3.721 -0.0118  0.4074 -0.2967
 7842TIP3    H144941   2.522   0.957   3.790 -0.4142  0.3570 -0.5753
 7842TIP3    H244942   2.645   0.872   3.767 -0.6967 -0.2312  0.0907
 7843TIP3   OH244943   3.629   6.410   6.331  0.2518  0.0160  0.5247
 7843TIP3    H144944   3.606   6.484   6.276  2.4171 -1.2533 -2.1895
 7843TIP3    H244945   3.545   6.378   6.364 -0.9473  1.7589 -0.7591
 7844TIP3   OH244946   1.292   0.378   4.769  0.2408 -0.0597  0.2010
 7844TIP3    H144947   1.346   0.324   4.828 -0.3929  0.3449  1.1632
 7844TIP3    H244948   1.331   0.465   4.775 -1.6909  0.7039  2.4523
 7845TIP3   OH244949   6.321   6.187   5.900  0.0822  0.3868 -0.1790
 7845TIP3    H144950   6.378   6.262   5.884  1.5420 -0.6234  0.1747
 7845TIP3    H244951   6.248   6.222   5.952  0.9052  1.4885  0.2381
 7846TIP3   OH244952   4.623   3.633  11.818 -0.2649  0.1614  0.3928
 7846TIP3    H144953   4.544   3.686  11.828 -0.1563  0.0236  2.0125
 7846TIP3    H244954   4.686   3.672  11.878  1.2069  0.8048 -1.5109
 7847TIP3   OH244955   3.559   6.300   2.219 -0.2334 -0.0489 -0.0402
 7847TIP3    H144956   3.634   6.267   2.169 -1.2336 -2.3417 -0.0799
 7847TIP3    H244957   3.573   6.269   2.308 -0.1976  1.1247  0.3756
 7848TIP3   OH244958   3.097   1.286   3.462 -0.0859 -0.2462 -0.2037
 7848TIP3    H144959   3.061   1.243   3.384  0.7708  1.4778 -1.6015
 7848TIP3    H244960   3.173   1.334   3.429 -0.7458  1.9454  1.3538
 7849TIP3   OH244961   2.656   6.294  13.366 -0.0056 -0.0007 -0.2398
 7849TIP3    H144962   2.601   6.338  13.431 -0.2140  1.5526 -1.4251
 7849TIP3    H244963   2.623   6.205  13.362 -1.0662  0.3451  0.5894
 7850TIP3   OH244964   5.236   0.479   1.358  0.4823  0.0014  0.0723
 7850TIP3    H144965   5.224   0.534   1.436 -0.1054  0.1092 -0.0851
 7850TIP3    H244966   5.151   0.434   1.347  0.3286  0.4994 -0.8900
 7851TIP3   OH244967   2.964   6.696  15.365  0.0819  0.0448 -0.5288
 7851TIP3    H144968   2.912   6.763  15.409  0.3683  0.1738 -0.3816
 7851TIP3    H244969   3.049   6.700  15.409  0.9075  1.3045 -2.1749
 7852TIP3   OH244970   1.090   4.984   4.144 -0.0332  0.2245 -0.0695
 7852TIP3    H144971   1.123   4.894   4.146  1.3860  0.7204 -0.5091
 7852TIP3    H244972   1.147   5.031   4.206 -0.7912  0.8128  0.1825
 7853TIP3   OH244973   1.870   2.975   6.239  0.0719  0.0947  0.0696
 7853TIP3    H144974   1.798   3.029   6.207 -0.2862  0.6632  1.7731
 7853TIP3    H244975   1.832   2.922   6.309  1.2739  0.3113  0.9081
 7854TIP3   OH244976   6.720   3.202  15.037 -0.6233  0.2036  0.4683
 7854TIP3    H144977   6.774   3.246  15.103  1.0352  0.2481 -0.8941
 7854TIP3    H244978   6.729   3.256  14.959 -3.2467  0.6148  0.4039
 7855TIP3   OH244979   6.781   5.447   2.830 -0.1778 -0.6954 -0.2755
 7855TIP3    H144980   6.688   5.450   2.808 -0.2612  0.3602  0.1994
 7855TIP3    H244981   6.795   5.357   2.862 -0.9791 -0.9244 -0.5609
 7856TIP3   OH244982   0.740   5.063  16.446  0.1538  0.1437 -0.0342
 7856TIP3    H144983   0.762   5.126  16.377 -0.5098 -0.0111 -0.3932
 7856TIP3    H244984   0.647   5.045  16.432  0.2925 -0.7519  0.2044
 7857TIP3   OH244985   1.093   3.188  11.840  0.5628  0.0570 -0.0812
 7857TIP3    H144986   1.019   3.230  11.885  0.9323 -0.4959  1.0491
 7857TIP3    H244987   1.121   3.253  11.775 -0.8971  0.2831 -0.5077
 7858TIP3   OH244988   0.922   3.014   5.347  0.6279 -0.5622  0.1682
 7858TIP3    H144989   1.009   2.983   5.373 -0.0477 -2.2437  0.4626
 7858TIP3    H244990   0.882   3.046   5.428  0.6047 -0.7080  0.2148
 7859TIP3   OH244991   2.090   4.732   0.992  0.3981 -0.4936 -0.5917
 7859TIP3    H144992   2.135   4.815   1.010  0.1064 -0.0149 -2.0396
 7859TIP3    H244993   2.158   4.666   1.005  0.4250 -0.1181  1.3902
 7860TIP3   OH244994   1.444   0.287  11.710 -0.3845  0.1518 -0.2661
 7860TIP3    H144995   1.481   0.367  11.673  2.6864 -0.9819  0.1765
 7860TIP3    H244996   1.383   0.318  11.777  0.3216  2.1416 -0.5008
 7861TIP3   OH244997   1.815   1.240   3.382 -0.1226  0.3380  0.1089
 7861TIP3    H144998   1.908   1.216   3.387 -0.2582 -0.4397 -0.9306
 7861TIP3    H244999   1.813   1.333   3.405  0.9714  0.4628 -0.2538
 7862TIP3   OH245000   3.297   3.956   6.119  0.0106  0.7111  0.3118
 7862TIP3    H145001   3.220   3.899   6.123 -0.4068  1.2418 -0.1582
 7862TIP3    H245002   3.345   3.926   6.042 -0.0375  0.7768  0.2564
 7863TIP3   OH245003   4.885   3.520   0.909  0.2896  0.0002 -0.2843
 7863TIP3    H145004   4.896   3.459   0.982  0.0317 -0.7893 -0.8990
 7863TIP3    H245005   4.791   3.532   0.902  0.2534 -0.8121 -1.2121
 7864TIP3   OH245006   3.244   0.256   3.769 -0.1217  0.1375 -0.9342
 7864TIP3    H145007   3.336   0.230   3.761 -0.1120 -0.5774  1.1594
 7864TIP3    H245008   3.243   0.349   3.745  1.2706  0.3448 -0.2307
 7865TIP3   OH245009   4.401   0.117  12.080 -0.6294  0.3137 -0.0904
 7865TIP3    H145010   4.408   0.148  11.990  0.6187  0.5641  0.0889
 7865TIP3    H245011   4.481   0.067  12.095 -0.5784  0.7255  1.0657
 7866TIP3   OH245012   3.488   0.161  11.902  0.0639 -0.0072 -0.1885
 7866TIP3    H145013   3.512   0.160  11.994  1.7849 -2.0353 -0.6195
 7866TIP3    H245014   3.564   0.125  11.857 -1.0341  0.2610 -2.3398
 7867TIP3   OH245015   4.007   2.232  12.399 -0.0974 -0.1650  1.0515
 7867TIP3    H145016   4.027   2.282  12.478 -1.6307 -1.0002  2.0016
 7867TIP3    H245017   4.092   2.201  12.368  0.8044  2.4346  0.8273
 7868TIP3   OH245018   6.387   2.842   1.888 -0.1900 -0.0933  0.0731
 7868TIP3    H145019   6.343   2.812   1.968 -0.0168 -0.8000 -0.0939
 7868TIP3    H245020   6.326   2.819   1.818 -0.7758  1.3863  0.0729
 7869TIP3   OH245021   4.683   4.916   1.695 -0.8154 -0.4839  0.6632
 7869TIP3    H145022   4.763   4.969   1.688 -0.8320 -0.5349 -0.0269
 7869TIP3    H245023   4.682   4.866   1.613 -1.7818 -0.1680  0.4833
 7870TIP3   OH245024   1.002   5.583  15.608  0.0423  0.6015  0.3863
 7870TIP3    H145025   1.036   5.651  15.550 -0.1671  0.4185  0.0433
 7870TIP3    H245026   1.067   5.513  15.603 -2.3335 -1.4955 -3.5224
 7871TIP3   OH245027   3.601   1.873  13.784 -0.4857 -0.3047  0.4536
 7871TIP3    H145028   3.663   1.933  13.826 -1.2859  0.2199  0.8776
 7871TIP3    H245029   3.642   1.787  13.794 -0.4012 -0.1141  1.8106
 7872TIP3   OH245030   6.465   2.547   5.549 -0.1820 -0.1901 -0.5697
 7872TIP3    H145031   6.507   2.621   5.505  3.4052 -1.6948  0.1264
 7872TIP3    H245032   6.473   2.567   5.643 -0.7719 -0.6722 -0.4107
 7873TIP3   OH245033   6.371   0.342  12.892 -0.7716  0.0412 -0.3404
 7873TIP3    H145034   6.406   0.399  12.960  1.3052 -1.7931  0.2047
 7873TIP3    H245035   6.299   0.295  12.934  0.3642 -0.9214  0.5600
 7874TIP3   OH245036   1.116   0.237   4.364  0.5088 -0.1476  0.5183
 7874TIP3    H145037   1.195   0.183   4.371  1.3399  1.2872  2.5509
 7874TIP3    H245038   1.084   0.246   4.453 -2.4817 -1.3949 -0.3614
 7875TIP3   OH245039   5.863   1.595  12.840 -0.2217  0.6168  0.3215
 7875TIP3    H145040   5.898   1.660  12.901  0.9439  0.8919 -0.6144
 7875TIP3    H245041   5.770   1.617  12.832 -0.2610  0.9194  1.5547
 7876TIP3   OH245042   0.298   2.938   3.323 -0.4506 -0.6140  0.0613
 7876TIP3    H145043   0.322   2.961   3.234  0.2170 -0.5220  0.2584
 7876TIP3    H245044   0.235   2.867   3.314 -2.0417  0.8354 -0.5418
 7877TIP3   OH245045   3.807   4.114  16.662  0.0379 -0.4398 -0.4007
 7877TIP3    H145046   3.863   4.047  16.622  0.4830 -0.4093  0.1678
 7877TIP3    H245047   3.724   4.108  16.614  0.3084 -0.9289 -0.8110
 7878TIP3   OH245048   0.481   5.419   4.791 -0.0154 -0.1461  0.0522
 7878TIP3    H145049   0.463   5.427   4.698 -1.8801  0.5656  0.4361
 7878TIP3    H245050   0.473   5.326   4.810 -0.8998 -0.1519 -0.2895
 7879TIP3   OH245051   4.393   6.093  14.899 -0.5432  0.1235 -0.1501
 7879TIP3    H145052   4.421   6.185  14.894 -0.8429  0.2566  0.5336
 7879TIP3    H245053   4.367   6.081  14.990  0.7899 -1.0245  0.0930
 7880TIP3   OH245054   0.372   1.365  15.026 -0.0054  0.1387  0.3325
 7880TIP3    H145055   0.288   1.411  15.025 -1.2946 -2.1775 -0.7323
 7880TIP3    H245056   0.392   1.354  15.119 -1.2334  0.0914  0.6043
 7881TIP3   OH245057   6.717   0.151  15.253 -1.3047  0.4694 -0.0273
 7881TIP3    H145058   6.695   0.096  15.329 -1.6307  1.0035  0.2733
 7881TIP3    H245059   6.705   0.240  15.285  2.7285  0.8716  0.5854
 7882TIP3   OH245060   6.643   0.097   0.777  0.0534  0.0694  0.3771
 7882TIP3    H145061   6.664   0.049   0.696  2.7047  1.6910  0.0180
 7882TIP3    H245062   6.662   0.035   0.847  1.0985 -0.2244 -0.1544
 7883TIP3   OH245063   3.644   1.904  15.393  0.3614 -0.0065  0.2015
 7883TIP3    H145064   3.737   1.900  15.416  0.3548  2.2475  0.7722
 7883TIP3    H245065   3.608   1.820  15.421  1.9494 -0.3613  1.2519
 7884TIP3   OH245066   6.438   3.567   3.346  0.0932 -0.7793 -0.4925
 7884TIP3    H145067   6.445   3.578   3.251 -1.3071 -0.3239 -0.5540
 7884TIP3    H245068   6.451   3.655   3.381 -0.6885 -0.7096 -0.3546
 7885TIP3   OH245069   6.675   4.527  17.213  0.5135  0.2488 -0.1741
 7885TIP3    H145070   6.766   4.555  17.196 -0.0068  1.8815 -0.4065
 7885TIP3    H245071   6.622   4.593  17.168 -0.7918 -0.6185  0.0915
 7886TIP3   OH245072   0.750   0.710  12.227 -0.1359  0.0786 -0.3630
 7886TIP3    H145073   0.827   0.695  12.281 -0.1714 -0.2120 -0.3934
 7886TIP3    H245074   0.757   0.646  12.157 -0.8569 -0.5396  0.1169
 7887TIP3   OH245075   4.789   1.125  14.259  0.0214 -0.6467  0.1692
 7887TIP3    H145076   4.767   1.042  14.217 -2.5019 -0.0637  0.2323
 7887TIP3    H245077   4.727   1.132  14.331 -0.4489  1.7241 -0.4214
 7888TIP3   OH245078   1.113   3.215  12.970 -0.0610 -0.1676 -0.0082
 7888TIP3    H145079   1.189   3.177  13.015  0.1740  0.2595 -0.0422
 7888TIP3    H245080   1.149   3.290  12.922 -0.4501 -0.1527 -0.2774
 7889TIP3   OH245081   4.637   3.672  10.891 -0.6263  0.2309  0.1511
 7889TIP3    H145082   4.676   3.632  10.814 -2.1475 -1.5112  0.2587
 7889TIP3    H245083   4.698   3.654  10.962 -0.0749  0.3327 -0.2937
 7890TIP3   OH245084   6.473   6.272  14.518 -0.3953 -0.1731  0.2980
 7890TIP3    H145085   6.523   6.277  14.600  0.1421  2.8517 -0.1673
 7890TIP3    H245086   6.389   6.311  14.538  0.0088  1.2865 -0.7637
 7891TIP3   OH245087   6.497   4.312   1.197 -0.0478  0.0609  0.3565
 7891TIP3    H145088   6.566   4.274   1.252 -0.1196 -0.3313  0.1834
 7891TIP3    H245089   6.543   4.375   1.141  0.2924 -0.6863 -0.2262
 7892TIP3   OH245090   1.240   4.167   3.627  0.2519 -0.0539 -0.1636
 7892TIP3    H145091   1.265   4.075   3.640  0.8246  0.0910 -0.2223
 7892TIP3    H245092   1.203   4.170   3.539  1.2965 -0.0072 -0.6044
 7893TIP3   OH245093   0.873   5.973  12.564  0.4187 -0.4084 -0.1485
 7893TIP3    H145094   0.894   5.997  12.654  0.2329 -1.9911  0.3332
 7893TIP3    H245095   0.885   6.053  12.514  2.6942 -0.0347  0.9420
 7894TIP3   OH245096   0.583   3.977  16.599 -0.0137 -0.3392  0.6791
 7894TIP3    H145097   0.541   3.985  16.685 -2.6374 -0.1891 -0.5619
 7894TIP3    H245098   0.586   4.067  16.566  0.5051 -0.4596  0.3973
 7895TIP3   OH245099   5.533   4.513   3.309 -0.2650 -0.6960  0.3693
 7895TIP3    H145100   5.488   4.543   3.230 -1.6317 -1.9542  0.6594
 7895TIP3    H245101   5.614   4.473   3.277 -0.2521 -0.1683 -0.2863
 7896TIP3   OH245102   3.698   5.913   6.007  0.1447  0.1047 -0.0541
 7896TIP3    H145103   3.782   5.872   6.028 -1.4605 -3.0160  0.6652
 7896TIP3    H245104   3.676   5.879   5.920 -1.2353 -0.6893  0.5720
 7897TIP3   OH245105   0.054   5.932   5.107 -0.1687 -0.1648 -0.4548
 7897TIP3    H145106   0.024   5.996   5.171  0.5701  0.7953 -1.0506
 7897TIP3    H245107  -0.002   5.945   5.031 -1.6823 -1.9535  0.3020
 7898TIP3   OH245108   4.654   6.709   0.512  0.8960  0.5338 -0.1424
 7898TIP3    H145109   4.612   6.722   0.427  1.0457  1.0266 -0.1375
 7898TIP3    H245110   4.683   6.618   0.510 -0.0734  0.2155 -0.1904
 7899TIP3   OH245111   2.630   6.030  13.345  0.5098 -0.1334  0.3130
 7899TIP3    H145112   2.552   6.010  13.397  0.0035  0.0135 -0.3899
 7899TIP3    H245113   2.650   5.949  13.299 -0.1966  0.3127 -0.7775
 7900TIP3   OH245114   4.159   5.861  11.742  0.5837  0.4809  0.3207
 7900TIP3    H145115   4.174   5.780  11.694  0.9236  1.0964 -0.6281
 7900TIP3    H245116   4.138   5.833  11.832 -0.6258 -0.6929 -0.3130
 7901TIP3   OH245117   0.041   3.270   0.436 -0.4667 -0.1752  0.5752
 7901TIP3    H145118  -0.016   3.194   0.448  0.9809 -1.6659 -1.5942
 7901TIP3    H245119  -0.015   3.336   0.395 -0.6515 -1.6713 -1.6783
 7902TIP3   OH245120   4.576   3.844  15.842 -0.2604 -0.1083  0.3600
 7902TIP3    H145121   4.541   3.757  15.860 -0.6951  0.1338  0.6980
 7902TIP3    H245122   4.526   3.903  15.899 -1.1222  0.5731 -1.0614
 7903TIP3   OH245123   3.051   0.195  16.649  0.7334 -0.1330  0.3374
 7903TIP3    H145124   2.976   0.171  16.595  1.1660 -0.2002 -0.2387
 7903TIP3    H245125   3.019   0.189  16.739 -0.0190  0.0755  0.0859
 7904TIP3   OH245126   1.639   2.111   2.427 -0.3711 -0.4277  0.5511
 7904TIP3    H145127   1.583   2.070   2.493  1.3085 -0.2737  2.0926
 7904TIP3    H245128   1.608   2.202   2.422 -1.1831 -0.7102  0.3485
 7905TIP3   OH245129   2.592   5.296  12.790  0.0818 -0.2670  0.3913
 7905TIP3    H145130   2.615   5.339  12.708 -0.1766  2.5724  1.7483
 7905TIP3    H245131   2.501   5.270  12.779  0.0663  0.0412 -0.2263
 7906TIP3   OH245132   5.327   4.663   4.411  0.5395  0.4285  0.0879
 7906TIP3    H145133   5.379   4.710   4.347  1.3940  0.6822  0.9682
 7906TIP3    H245134   5.236   4.683   4.388  0.8433  0.3713 -1.1469
 7907TIP3   OH245135   0.885   1.188   5.753  0.4242  0.2430  0.2685
 7907TIP3    H145136   0.942   1.247   5.704  0.5842 -0.4507 -0.3759
 7907TIP3    H245137   0.811   1.172   5.695  0.5884 -0.5400  0.2794
 7908TIP3   OH245138   4.988   1.025   4.455  0.1956 -0.6614  0.1135
 7908TIP3    H145139   5.074   0.993   4.482  0.9372  0.7988 -0.4564
 7908TIP3    H245140   4.957   0.960   4.392  2.1018  0.1878 -1.7546
 7909TIP3   OH245141   5.055   0.631  14.955  0.3808  0.0513 -0.5132
 7909TIP3    H145142   5.062   0.708  14.899 -0.1207 -0.3518 -1.1300
 7909TIP3    H245143   4.963   0.605  14.949  0.4268 -0.2789  0.1221
 7910TIP3   OH245144   0.533   0.439  15.516  0.1899 -0.5384 -0.0665
 7910TIP3    H145145   0.455   0.490  15.533  1.0060  1.2398 -1.4709
 7910TIP3    H245146   0.570   0.421  15.603 -2.0380 -1.8863  0.6323
 7911TIP3   OH245147   6.317   5.926   2.824 -0.1568  0.0225  0.6999
 7911TIP3    H145148   6.346   5.892   2.739  1.9469 -0.7792  1.6949
 7911TIP3    H245149   6.395   5.968   2.861 -1.3188  1.2689  1.7956
 7912TIP3   OH245150   1.406   0.830  12.957 -0.6501  1.1026  0.5581
 7912TIP3    H145151   1.433   0.882  13.034 -1.2078 -0.1040  1.5883
 7912TIP3    H245152   1.324   0.870  12.928 -1.0055  0.8976  1.2638
 7913TIP3   OH245153   4.778   5.497  14.233  0.6030 -0.1448 -0.1585
 7913TIP3    H145154   4.821   5.582  14.241  0.3092  0.0568 -0.7199
 7913TIP3    H245155   4.827   5.451  14.165 -0.1322  0.1256 -0.8762
 7914TIP3   OH245156   4.785   0.987  12.222  0.4650  0.4348 -0.2417
 7914TIP3    H145157   4.851   0.919  12.235 -0.6223 -0.7138 -0.7035
 7914TIP3    H245158   4.796   1.015  12.132  0.2573  0.1730 -0.3484
 7915TIP3   OH245159   2.673   5.949   6.290  0.2070 -0.4215 -0.7581
 7915TIP3    H145160   2.757   5.911   6.317  0.0388 -0.7637 -0.7076
 7915TIP3    H245161   2.615   5.873   6.278 -0.2657 -0.1552 -0.2097
 7916TIP3   OH245162   4.234   3.009  14.856 -0.6914  0.5870 -0.3912
 7916TIP3    H145163   4.181   3.087  14.874  1.2114  1.7470  0.2806
 7916TIP3    H245164   4.293   3.002  14.930 -0.5395 -1.2729 -0.6510
 7917TIP3   OH245165   0.756   2.434   5.208 -0.4222  0.2889 -0.1371
 7917TIP3    H145166   0.747   2.440   5.303 -0.3469 -1.1160 -0.0272
 7917TIP3    H245167   0.687   2.374   5.181 -0.2206  0.4062 -0.9350
 7918TIP3   OH245168   6.001   1.395  14.648 -0.0678 -0.3212  0.0404
 7918TIP3    H145169   6.080   1.446  14.670  0.8633 -1.4911 -0.5184
 7918TIP3    H245170   6.021   1.306  14.678 -1.7253 -0.3492  1.1112
 7919TIP3   OH245171   1.622   6.328  14.142  0.4361 -0.4347 -0.2970
 7919TIP3    H145172   1.539   6.376  14.132  0.5932 -0.0659  0.1933
 7919TIP3    H245173   1.612   6.278  14.223  1.3379  0.8995  0.6385
 7920TIP3   OH245174   0.565   1.000   2.414 -0.5053  0.3770 -0.2690
 7920TIP3    H145175   0.501   1.049   2.466  0.0132  0.5744  0.1821
 7920TIP3    H245176   0.579   1.053   2.336 -1.2782  0.0869 -0.6066
 7921TIP3   OH245177   5.973   0.555  10.915 -0.8477  0.4420  0.4258
 7921TIP3    H145178   5.898   0.506  10.948 -0.4682 -0.8884 -0.6768
 7921TIP3    H245179   5.938   0.608  10.843 -0.6344 -0.5537 -0.4156
 7922TIP3   OH245180   6.186   3.443   4.667 -0.5287  0.5991  0.0244
 7922TIP3    H145181   6.104   3.441   4.619 -1.0523 -0.4041  0.9404
 7922TIP3    H245182   6.232   3.363   4.640 -0.1914  0.7629  0.1061
 7923TIP3   OH245183   4.243   1.014  13.970  0.2918 -0.4400  0.7839
 7923TIP3    H145184   4.283   0.949  13.912 -1.4365 -1.2627  0.4956
 7923TIP3    H245185   4.312   1.079  13.985  0.8412 -0.3392 -1.9927
 7924TIP3   OH245186   3.472   1.299  17.040 -0.3137 -0.0468 -0.2957
 7924TIP3    H145187   3.422   1.366  16.993  0.9130 -0.1412 -1.7850
 7924TIP3    H245188   3.409   1.230  17.059 -1.2762  0.9028 -0.0102
 7925TIP3   OH245189   0.828   4.200  13.377  0.0209 -0.0195  0.3437
 7925TIP3    H145190   0.846   4.160  13.292  0.5955  0.8298  0.0633
 7925TIP3    H245191   0.912   4.233  13.407  0.4319 -2.9311  2.6332
 7926TIP3   OH245192   4.647   1.495   1.244 -0.0286 -0.2854 -0.3373
 7926TIP3    H145193   4.572   1.439   1.224 -0.5464  0.4460 -0.4712
 7926TIP3    H245194   4.662   1.545   1.164 -0.2912  0.5811  0.1388
 7927TIP3   OH245195   6.419   2.848  16.091 -0.5835 -0.1748 -0.0335
 7927TIP3    H145196   6.504   2.869  16.051 -0.0701 -1.6511  0.2532
 7927TIP3    H245197   6.430   2.759  16.124 -1.1717  0.8104  2.9496
 7928TIP3   OH245198   2.096   1.308  14.631  0.6929  0.4979  0.4617
 7928TIP3    H145199   2.127   1.224  14.666 -0.7061  0.7145  2.3543
 7928TIP3    H245200   2.144   1.374  14.682 -0.7006  0.8174  1.4093
 7929TIP3   OH245201   3.207   1.417   1.255  0.6426 -0.6017 -0.0582
 7929TIP3    H145202   3.231   1.327   1.277  0.0319 -0.5947  0.6847
 7929TIP3    H245203   3.115   1.423   1.279  1.0622  0.6455  1.3372
 7930TIP3   OH245204   1.650   1.047  13.577 -0.4069  0.5533  0.4279
 7930TIP3    H145205   1.615   0.982  13.637 -0.6168 -0.0403 -0.3260
 7930TIP3    H245206   1.588   1.120  13.582 -1.1753 -0.0488 -0.0857
 7931TIP3   OH245207   0.740   4.412   4.374  0.7702  0.5928 -0.1125
 7931TIP3    H145208   0.765   4.379   4.288  0.5636 -0.8415  0.3673
 7931TIP3    H245209   0.647   4.434   4.365  0.2647 -1.2768  0.2257
 7932TIP3   OH245210   3.857   2.923  15.702  0.2070  0.2302  0.2233
 7932TIP3    H145211   3.863   2.923  15.606  0.0088 -2.0807  0.1752
 7932TIP3    H245212   3.763   2.921  15.720  0.2413 -1.6258  0.3891
 7933TIP3   OH245213   5.465   6.371  14.199 -0.2428  0.8520  0.9367
 7933TIP3    H145214   5.426   6.372  14.287  0.4811 -1.1445  1.3077
 7933TIP3    H245215   5.558   6.387  14.214  0.1951 -1.2864  0.7566
 7934TIP3   OH245216   4.462   5.167  17.230  0.0965 -0.3634 -0.1875
 7934TIP3    H145217   4.394   5.229  17.257  0.3837 -0.5485  0.9587
 7934TIP3    H245218   4.435   5.084  17.268 -0.1221 -0.8870 -1.4713
 7935TIP3   OH245219   4.223   6.052   3.141  0.1392 -0.1886  0.2848
 7935TIP3    H145220   4.291   6.021   3.082  0.0977 -0.0427  0.1612
 7935TIP3    H245221   4.161   6.098   3.084  0.5998  0.8020  0.5759
 7936TIP3   OH245222   3.038   5.754   3.685  0.3959 -0.0619  0.1612
 7936TIP3    H145223   2.976   5.798   3.627 -0.4079  0.4977  1.4454
 7936TIP3    H245224   2.997   5.670   3.705  2.0424 -1.5743 -2.4959
 7937TIP3   OH245225   4.339   1.144  15.769  0.3531 -0.0252  0.5879
 7937TIP3    H145226   4.388   1.085  15.826  0.5082 -0.5784 -0.1191
 7937TIP3    H245227   4.364   1.119  15.680  1.4452  1.9756  0.3087
 7938TIP3   OH245228   2.538   5.875   1.794  0.2869 -0.0709 -0.0593
 7938TIP3    H145229   2.567   5.793   1.755 -0.8751 -0.4724 -0.1077
 7938TIP3    H245230   2.474   5.910   1.731 -0.3731  0.0925  0.6932
 7939TIP3   OH245231   4.783   4.596   2.655 -0.1413 -0.3721  0.1855
 7939TIP3    H145232   4.712   4.567   2.598 -0.3007  0.2909  0.0477
 7939TIP3    H245233   4.816   4.515   2.695  0.7022 -0.9866 -1.6702
 7940TIP3   OH245234   5.587   2.749   2.501 -0.0229 -0.1624  0.0481
 7940TIP3    H145235   5.529   2.812   2.458  0.2012 -0.2406 -0.3723
 7940TIP3    H245236   5.560   2.750   2.592 -1.3293 -0.9220 -0.3183
 7941TIP3   OH245237   1.057   1.414  14.114  0.1807  0.0225  0.1597
 7941TIP3    H145238   1.049   1.350  14.043 -0.6656 -0.3627  0.5967
 7941TIP3    H245239   1.015   1.493  14.079  0.7487  0.1776 -0.1798
 7942TIP3   OH245240   1.700   1.611   0.870 -0.1338  0.3197 -0.7412
 7942TIP3    H145241   1.694   1.707   0.866 -0.4494  0.3310 -0.0584
 7942TIP3    H245242   1.790   1.592   0.843  0.2161  0.8672  0.0209
 7943TIP3   OH245243   0.536   3.251   4.880  0.0731  0.3707 -0.0199
 7943TIP3    H145244   0.601   3.269   4.812  0.3154  0.3100  0.1946
 7943TIP3    H245245   0.507   3.338   4.909 -0.8283  0.3808 -0.9652
 7944TIP3   OH245246   1.550   0.727  16.851 -0.1915 -0.0352 -0.0109
 7944TIP3    H145247   1.576   0.751  16.762  0.6366  1.1530  0.5278
 7944TIP3    H245248   1.490   0.797  16.878  0.2992  0.1365  0.6848
 7945TIP3   OH245249   3.639   4.593   2.500 -0.0105  0.1444 -0.2611
 7945TIP3    H145250   3.706   4.619   2.437  1.3558  1.5440  1.7338
 7945TIP3    H245251   3.686   4.543   2.567 -1.3585 -0.9078 -0.0786
 7946TIP3   OH245252   5.946   3.125   0.065  0.2012 -0.1549  0.0715
 7946TIP3    H145253   5.918   3.042   0.025 -0.5295 -0.9128  2.1075
 7946TIP3    H245254   6.010   3.161   0.003 -0.1409 -1.7983 -1.2716
 7947TIP3   OH245255   4.294   6.143   3.606 -0.5943 -0.5762 -0.3252
 7947TIP3    H145256   4.364   6.083   3.631  1.4757  1.0728 -2.0297
 7947TIP3    H245257   4.285   6.201   3.682  0.1431 -0.5511 -0.2551
 7948TIP3   OH245258   0.954   3.939   3.723  0.7457  0.0051  0.1951
 7948TIP3    H145259   0.945   3.859   3.773  1.0914  0.6111  1.2339
 7948TIP3    H245260   1.022   3.920   3.659  1.8558 -0.0652  1.3829
 7949TIP3   OH245261   0.872   2.012   4.912  0.2745  0.5992  0.0517
 7949TIP3    H145262   0.828   2.073   4.853 -2.7025  0.0712  1.6784
 7949TIP3    H245263   0.872   2.056   4.997  3.1042  0.6618  0.0744
 7950TIP3   OH245264   2.504   3.220  16.109  0.0006  0.0484  0.0260
 7950TIP3    H145265   2.596   3.196  16.122  0.2276  1.6561  1.5318
 7950TIP3    H245266   2.500   3.252  16.018  0.3690 -2.4371 -0.8978
 7951TIP3   OH245267   4.398   0.889   3.985 -0.2320 -0.3457 -0.7763
 7951TIP3    H145268   4.309   0.920   3.970 -0.7272 -1.3534  0.0004
 7951TIP3    H245269   4.439   0.890   3.899 -0.8351  0.5937 -1.0620
 7952TIP3   OH245270   4.114   0.148   0.789 -0.0404 -0.2375  0.1467
 7952TIP3    H145271   4.132   0.242   0.784 -2.5765  0.5640  3.8974
 7952TIP3    H245272   4.021   0.141   0.767  0.2899 -2.0150 -0.7978
 7953TIP3   OH245273   0.732   6.599   1.018  0.2749 -0.1229  0.2630
 7953TIP3    H145274   0.819   6.585   0.979  0.6627 -0.5682  1.2891
 7953TIP3    H245275   0.726   6.694   1.029 -0.6719  0.2384 -2.7796
 7954TIP3   OH245276   4.122   1.826  15.768 -0.1487 -0.0374 -0.3361
 7954TIP3    H145277   4.032   1.858  15.763  0.1813  0.9249 -0.3228
 7954TIP3    H245278   4.149   1.817  15.676 -0.0317  0.3507 -0.3419
 7955TIP3   OH245279   6.159   3.492  14.117 -0.0199  0.0026  0.2600
 7955TIP3    H145280   6.215   3.467  14.191  0.3273 -0.6943 -0.2310
 7955TIP3    H245281   6.219   3.500  14.043 -0.5864 -0.9485 -0.3173
 7956TIP3   OH245282   5.406   0.435  12.083  0.5529 -0.2878 -0.3004
 7956TIP3    H145283   5.460   0.478  12.016 -0.7128  0.0286 -1.1481
 7956TIP3    H245284   5.334   0.497  12.098 -0.5913 -1.5249 -0.5906
 7957TIP3   OH245285   0.816   6.392  13.384 -0.9048  0.0197  0.0646
 7957TIP3    H145286   0.756   6.457  13.346 -1.5291 -0.0382  0.9447
 7957TIP3    H245287   0.895   6.399  13.330 -1.1700  1.1134 -0.2034
 7958TIP3   OH245288   3.701   5.315  13.118 -0.2926 -0.0075 -0.1713
 7958TIP3    H145289   3.693   5.264  13.199 -1.3994 -0.1878 -0.3907
 7958TIP3    H245290   3.784   5.362  13.128  0.2509 -1.0758  0.4665
 7959TIP3   OH245291   3.451   4.877  10.740 -0.4585 -0.3046  0.1412
 7959TIP3    H145292   3.387   4.817  10.777 -0.0804 -1.0517 -0.4075
 7959TIP3    H245293   3.432   4.961  10.781 -0.9829 -0.8005  0.9181
 7960TIP3   OH245294   0.627   3.080   1.131 -0.2800 -0.3900  0.7158
 7960TIP3    H145295   0.649   3.167   1.098 -1.8662 -0.5554 -0.8362
 7960TIP3    H245296   0.544   3.093   1.178  0.0184 -0.8766  1.3847
 7961TIP3   OH245297   2.692   0.886  12.172 -0.1678  0.0976 -0.2473
 7961TIP3    H145298   2.732   0.811  12.129  0.2962  1.1585 -1.7014
 7961TIP3    H245299   2.675   0.856  12.261  2.2748 -0.9386 -0.0979
 7962TIP3   OH245300   3.343   4.058   2.677  0.1044 -0.2476  0.9794
 7962TIP3    H145301   3.286   4.001   2.626  0.0918  0.9624 -0.3892
 7962TIP3    H245302   3.334   4.026   2.767  1.3866 -3.4596  0.0431
 7963TIP3   OH245303   5.527   2.954  11.918 -0.2887  0.2306  0.1260
 7963TIP3    H145304   5.496   2.923  11.833 -1.2486  0.6160  0.3325
 7963TIP3    H245305   5.619   2.974  11.904 -1.1724  3.3473 -1.6834
 7964TIP3   OH245306   5.037   2.492   1.870  0.7767  1.1331 -0.1375
 7964TIP3    H145307   5.035   2.472   1.777  1.6911  0.1257  0.0581
 7964TIP3    H245308   4.952   2.534   1.887  0.5010  1.0817 -1.3601
 7965TIP3   OH245309   3.452   4.951  16.831  0.7949 -0.7060 -0.3030
 7965TIP3    H145310   3.396   4.890  16.879  2.3915 -3.7049 -2.0693
 7965TIP3    H245311   3.537   4.943  16.874  0.6282  1.5723  0.4929
 7966TIP3   OH245312   6.642   2.453  13.324  0.0962  0.3438  0.7543
 7966TIP3    H145313   6.728   2.420  13.297 -0.5467 -0.2213 -0.6598
 7966TIP3    H245314   6.658   2.543  13.352  0.5512  1.6434 -3.2997
 7967TIP3   OH245315   4.234   4.252  17.161  0.4805 -0.6412 -0.7182
 7967TIP3    H145316   4.149   4.293  17.145  0.7797  0.2724 -0.0323
 7967TIP3    H245317   4.298   4.317  17.131  0.9522 -0.8538 -0.1949
 7968TIP3   OH245318   0.309   5.575  12.992 -0.4585 -1.1767 -0.2469
 7968TIP3    H145319   0.365   5.567  12.915 -0.8922  0.7142 -0.7883
 7968TIP3    H245320   0.330   5.498  13.045  0.7930 -1.8157 -1.6269
 7969TIP3   OH245321   0.539   6.155  16.581 -0.0214  0.1169 -0.2844
 7969TIP3    H145322   0.564   6.090  16.515  1.2324  2.2163 -1.9297
 7969TIP3    H245323   0.619   6.206  16.595 -1.0061  1.3663  0.9206
 7970TIP3   OH245324   4.751   2.193  17.142  0.3508 -0.2523  0.1306
 7970TIP3    H145325   4.840   2.202  17.108  0.5812  0.4976  0.9017
 7970TIP3    H245326   4.763   2.164  17.233 -0.2273 -1.2822 -0.1121
 7971TIP3   OH245327   4.230   2.309   3.972 -0.4915 -0.3353  0.3562
 7971TIP3    H145328   4.310   2.360   3.965  0.2280 -1.6070 -0.8133
 7971TIP3    H245329   4.249   2.227   3.927 -2.0545 -1.1317  1.0908
 7972TIP3   OH245330   1.811   4.619  13.254  0.1120 -0.2056  0.2290
 7972TIP3    H145331   1.816   4.635  13.160 -0.3624 -2.6065 -0.2180
 7972TIP3    H245332   1.817   4.524  13.264 -0.4406 -0.0435  2.5881
 7973TIP3   OH245333   0.063   5.902  12.969  0.3122  0.2112 -0.5590
 7973TIP3    H145334  -0.011   5.884  13.028 -0.0993 -0.3833 -1.2605
 7973TIP3    H245335   0.033   5.976  12.916 -0.8209 -1.6989 -2.6513
 7974TIP3   OH245336   0.889   6.331   5.426  0.1653  0.3851 -0.3833
 7974TIP3    H145337   0.806   6.378   5.419  0.2229  0.2480 -2.4690
 7974TIP3    H245338   0.930   6.343   5.340  0.2429 -3.2957 -0.9597
 7975TIP3   OH245339   2.081   5.638  12.355 -0.0732  0.7176 -0.0729
 7975TIP3    H145340   2.080   5.590  12.438 -0.5134  1.2066  0.2100
 7975TIP3    H245341   1.998   5.685  12.354  0.4619  1.6796 -0.2240
 7976TIP3   OH245342   2.988   2.623   2.527 -0.0111 -0.2954  0.8812
 7976TIP3    H145343   2.921   2.689   2.508 -0.0175 -0.9119 -1.4353
 7976TIP3    H245344   2.942   2.557   2.579 -1.0187 -0.3600 -0.0799
 7977TIP3   OH245345   2.767   2.097  13.631 -0.2674  0.1740  0.3288
 7977TIP3    H145346   2.689   2.079  13.579 -0.1881  0.3241  0.1567
 7977TIP3    H245347   2.840   2.062  13.580 -0.0708  1.3101 -0.1985
 7978TIP3   OH245348   3.600   0.592  13.710 -0.0540  0.6085  0.1026
 7978TIP3    H145349   3.537   0.541  13.761 -0.6584  0.6065 -0.6498
 7978TIP3    H245350   3.626   0.535  13.638  1.4799  0.2777  0.8796
 7979TIP3   OH245351   2.544   6.657  14.740 -0.4898  0.5410 -0.5632
 7979TIP3    H145352   2.531   6.676  14.648  0.0534 -0.0807 -0.7725
 7979TIP3    H245353   2.459   6.626  14.771 -0.3979 -0.2863 -1.1177
 7980TIP3   OH245354   5.201   4.116  13.436  0.0621  0.1667  0.0264
 7980TIP3    H145355   5.257   4.060  13.489 -1.0106  0.1715  1.1884
 7980TIP3    H245356   5.258   4.149  13.367  1.3065 -0.3700  0.7885
 7981TIP3   OH245357   1.724   3.262   2.709 -0.9221 -0.3788 -0.2282
 7981TIP3    H145358   1.794   3.269   2.774 -0.6257  0.7990 -0.6642
 7981TIP3    H245359   1.704   3.352   2.685 -2.0015 -0.7445 -0.7431
 7982TIP3   OH245360   1.531   3.144   0.027  0.4712 -0.0801  0.1936
 7982TIP3    H145361   1.612   3.190   0.048  1.4032 -0.9524 -1.3809
 7982TIP3    H245362   1.552   3.051   0.038 -0.0911 -0.3494 -0.8838
 7983TIP3   OH245363   3.203   0.737  13.362 -0.3612 -0.2171  0.1603
 7983TIP3    H145364   3.120   0.778  13.386  0.1571  0.5084  0.7660
 7983TIP3    H245365   3.267   0.808  13.368  0.6078 -1.1831  1.5669
 7984TIP3   OH245366   6.700   2.870  12.176  0.0147 -0.7562  0.4227
 7984TIP3    H145367   6.660   2.809  12.238  0.4148 -1.0679  0.3825
 7984TIP3    H245368   6.642   2.946  12.175 -1.8594 -2.1413 -1.4053
 7985TIP3   OH245369   2.627   0.694  11.880  0.6344 -0.0523 -0.2637
 7985TIP3    H145370   2.598   0.784  11.890 -0.0729 -0.0975 -1.8522
 7985TIP3    H245371   2.673   0.675  11.962  1.1975  1.8847 -0.1068
 7986TIP3   OH245372   0.924   4.858  12.990 -0.2112 -0.5432 -0.0254
 7986TIP3    H145373   0.899   4.850  13.082 -3.5473 -1.6057 -0.9475
 7986TIP3    H245374   0.942   4.951  12.979 -0.6904 -0.2438  1.5030
 7987TIP3   OH245375   2.827   1.787  16.763  0.4413 -0.2211  0.2211
 7987TIP3    H145376   2.916   1.825  16.762  1.2782 -1.9333  3.5695
 7987TIP3    H245377   2.774   1.853  16.808  0.4811 -0.1924  0.2268
 7988TIP3   OH245378   1.234   6.197  11.691 -0.0965  0.0533 -0.4908
 7988TIP3    H145379   1.274   6.150  11.764  1.5915 -0.8814 -1.9612
 7988TIP3    H245380   1.150   6.154  11.677  0.8364 -1.6617 -0.9418
 7989TIP3   OH245381   1.623   3.970   2.971  0.4482  0.1660 -0.0253
 7989TIP3    H145382   1.698   3.943   2.918 -0.0706  0.5356 -0.9605
 7989TIP3    H245383   1.594   3.889   3.013  2.3016  0.2991  1.5592
 7990TIP3   OH245384   1.458   1.664   1.787  0.1490 -0.3375  0.5232
 7990TIP3    H145385   1.479   1.708   1.705 -1.0823 -0.0236  0.3702
 7990TIP3    H245386   1.455   1.734   1.852 -0.5548 -0.3616  0.5177
 7991TIP3   OH245387   0.871   1.073  13.792 -0.3396 -0.3995 -0.5097
 7991TIP3    H145388   0.819   1.116  13.859  3.3499 -0.4720  2.5673
 7991TIP3    H245389   0.862   0.979  13.811  1.4189 -0.3836  0.4909
 7992TIP3   OH245390   2.163   1.971  14.570 -0.0849 -0.6543 -0.1024
 7992TIP3    H145391   2.097   1.902  14.562 -0.8070 -0.1645  1.4466
 7992TIP3    H245392   2.218   1.960  14.493 -2.6379 -0.3815 -2.0309
 7993TIP3   OH245393   0.096   6.327   1.937 -0.0875  0.3625  0.3388
 7993TIP3    H145394   0.141   6.340   1.854 -0.2389  0.7141  0.3070
 7993TIP3    H245395   0.068   6.236   1.936 -0.6034  0.5245 -0.2556
 7994TIP3   OH245396   4.714   2.597  12.893  0.4663 -0.0880  0.3738
 7994TIP3    H145397   4.751   2.509  12.884 -0.2315 -0.2406 -1.1861
 7994TIP3    H245398   4.654   2.590  12.968 -0.5913 -1.3005 -0.5654
 7995TIP3   OH245399   2.285   0.331  15.751 -0.2130  0.4282  0.1898
 7995TIP3    H145400   2.264   0.335  15.845  1.0211 -0.4828  0.5217
 7995TIP3    H245401   2.284   0.237  15.731 -1.0277  0.6541 -0.8469
 7996TIP3   OH245402   3.883   6.353  11.217  0.5836  0.4639  0.8302
 7996TIP3    H145403   3.964   6.308  11.241  0.6667  0.1920  0.0444
 7996TIP3    H245404   3.902   6.394  11.133  0.0272  0.7206  0.8275
 7997TIP3   OH245405   1.441   6.629   0.768  0.7966 -0.2893  0.2060
 7997TIP3    H145406   1.491   6.710   0.766 -1.9599  1.4864  0.7626
 7997TIP3    H245407   1.377   6.638   0.698 -0.9906 -0.9840  1.7041
 7998TIP3   OH245408   3.485   0.537  10.972  0.1137 -0.7310 -0.4957
 7998TIP3    H145409   3.474   0.619  11.021  2.2170  0.4099 -1.8331
 7998TIP3    H245410   3.543   0.484  11.027  0.3269 -0.5200 -0.5147
 7999TIP3   OH245411   5.649   3.887  10.921 -0.2383 -0.3249  0.0460
 7999TIP3    H145412   5.554   3.896  10.907 -0.2105  0.9397  0.5922
 7999TIP3    H245413   5.686   3.883  10.833 -0.7812 -0.6484 -0.1717
 8000TIP3   OH245414   6.061   2.192  16.824 -0.0187 -0.2547  0.1579
 8000TIP3    H145415   6.130   2.234  16.772  1.2493 -0.1228  1.9109
 8000TIP3    H245416   6.069   2.099  16.802  0.1319 -0.1352 -0.3174
 8001TIP3   OH245417   1.396   0.227   3.935 -0.0373 -0.1895  0.2482
 8001TIP3    H145418   1.473   0.178   3.963  0.2355  0.0421 -0.0940
 8001TIP3    H245419   1.322   0.180   3.974  0.2180 -0.8754 -0.0914
 8002TIP3   OH245420   6.266   4.529   6.044 -0.0332 -0.4836  0.4678
 8002TIP3    H145421   6.343   4.556   6.095  0.4638  2.6542 -1.7987
 8002TIP3    H245422   6.302   4.477   5.973 -0.3562 -1.6847  1.1710
 8003TIP3   OH245423   3.765   3.436   0.301  0.1005 -0.5379 -0.3152
 8003TIP3    H145424   3.766   3.419   0.206 -0.9665 -0.2899 -0.3703
 8003TIP3    H245425   3.835   3.501   0.314 -0.8836  0.7327 -1.1924
 8004TIP3   OH245426   3.124   2.615  14.995 -0.4434  0.1434  0.1486
 8004TIP3    H145427   3.068   2.538  14.980 -0.4182 -0.1189  1.3742
 8004TIP3    H245428   3.065   2.690  14.988 -0.8446 -0.1023  0.8795
 8005TIP3   OH245429   5.885   2.054   3.182  0.1746  0.3213  0.2697
 8005TIP3    H145430   5.956   2.018   3.128 -0.3987  0.8631 -0.8471
 8005TIP3    H245431   5.876   2.144   3.152 -0.6180  0.4175  0.8018
 8006TIP3   OH245432   3.118   4.559   2.466 -0.0378  0.0374  0.0398
 8006TIP3    H145433   3.049   4.591   2.523 -2.7938 -1.7991 -2.1621
 8006TIP3    H245434   3.121   4.465   2.482  1.1748 -0.0790 -0.7697
 8007TIP3   OH245435   3.234   5.275   2.273 -0.1240 -0.0762 -0.0770
 8007TIP3    H145436   3.277   5.301   2.191  0.3685  1.3544  0.6081
 8007TIP3    H245437   3.230   5.180   2.269  2.3460 -0.1848 -0.5377
 8008TIP3   OH245438   1.341   0.192  12.178  0.3480  0.1250 -0.1282
 8008TIP3    H145439   1.307   0.148  12.100 -0.3848 -0.9747  0.7866
 8008TIP3    H245440   1.419   0.142  12.203  1.9161  1.8411 -1.4455
 8009TIP3   OH245441   2.452   0.542   5.517  0.5472 -0.1111  0.1209
 8009TIP3    H145442   2.441   0.449   5.496  0.0204  0.1211 -0.6656
 8009TIP3    H245443   2.391   0.558   5.589 -0.7256  0.0384 -0.9679
 8010TIP3   OH245444   1.096   4.796  14.810  0.7671  0.1624  0.7126
 8010TIP3    H145445   1.103   4.776  14.904 -1.9785 -0.1983  0.8751
 8010TIP3    H245446   1.087   4.891  14.807  2.7328  0.3859  0.6390
 8011TIP3   OH245447   1.075   2.940  16.730 -0.7828  0.1706 -0.4143
 8011TIP3    H145448   1.104   3.014  16.677 -1.1558 -0.5595 -1.6316
 8011TIP3    H245449   0.981   2.932  16.712 -0.7742 -0.5187 -0.1745
 8012TIP3   OH245450   4.440   2.319   4.181 -0.4298  0.4746 -0.0299
 8012TIP3    H145451   4.423   2.406   4.145 -1.4834  0.4592  0.4245
 8012TIP3    H245452   4.473   2.335   4.270 -0.6734  0.4067  0.0724
 8013TIP3   OH245453   1.287   0.365   0.403 -0.2682 -0.2249 -0.0934
 8013TIP3    H145454   1.292   0.378   0.498  1.1792 -1.1827 -0.0111
 8013TIP3    H245455   1.193   0.365   0.384 -0.6283 -1.3102  1.5377
 8014TIP3   OH245456   1.392   0.933   0.589 -0.0928  0.4593  0.0908
 8014TIP3    H145457   1.399   1.024   0.562  0.7048 -0.1537 -1.9329
 8014TIP3    H245458   1.481   0.909   0.615 -0.2081  0.1427  0.1993
 8015TIP3   OH245459   1.597   0.296   1.380  0.1089  0.1491  0.5729
 8015TIP3    H145460   1.657   0.366   1.354  0.0177 -0.4495 -1.3665
 8015TIP3    H245461   1.517   0.341   1.408  0.1380  0.8388 -0.4354
 8016TIP3   OH245462   5.453   4.336   4.174 -0.0300 -0.1940  0.1559
 8016TIP3    H145463   5.368   4.347   4.132 -1.5109 -2.5119  2.4183
 8016TIP3    H245464   5.435   4.343   4.268  2.1123 -1.6562  0.7102
 8017TIP3   OH245465   4.951   2.201  14.963  0.6362 -0.2415 -0.5422
 8017TIP3    H145466   4.889   2.259  15.008  2.5803 -0.8883  3.1928
 8017TIP3    H245467   4.897   2.151  14.902 -1.8419  2.0469 -0.3384
 8018TIP3   OH245468   2.296   3.274  16.757  0.7693 -0.0829 -0.2175
 8018TIP3    H145469   2.303   3.185  16.789  0.5288  0.1287  0.4310
 8018TIP3    H245470   2.386   3.302  16.743  0.8584 -0.3146 -0.1096
 8019TIP3   OH245471   0.395   0.408  16.524 -0.7110 -0.0272 -0.1912
 8019TIP3    H145472   0.349   0.371  16.600  1.5268  2.6008  2.5272
 8019TIP3    H245473   0.482   0.368  16.527 -0.4223  0.5246 -1.0669
 8020TIP3   OH245474   6.395   3.447   1.311  0.3169  0.1464 -0.3497
 8020TIP3    H145475   6.427   3.474   1.397  2.2683  0.1079 -1.0364
 8020TIP3    H245476   6.395   3.528   1.259 -0.7055  0.1414 -0.3753
 8021TIP3   OH245477   2.211   2.586   4.667 -0.1192  0.1097  0.2352
 8021TIP3    H145478   2.267   2.510   4.684 -0.9802 -0.8376 -1.0110
 8021TIP3    H245479   2.135   2.572   4.725  0.1657  0.5247  0.7094
 8022TIP3   OH245480   3.842   4.974   5.669 -0.1053 -0.1522 -0.9232
 8022TIP3    H145481   3.780   4.923   5.721  0.7161  1.2414  1.4900
 8022TIP3    H245482   3.914   4.914   5.651  0.5932 -0.0484  1.4149
 8023TIP3   OH245483   2.367   5.206  12.007  0.2481 -0.0252 -0.0442
 8023TIP3    H145484   2.419   5.236  12.082 -1.7165  1.1644  0.8705
 8023TIP3    H245485   2.376   5.275  11.942  0.3634 -0.1452 -0.1550
 8024TIP3   OH245486   4.754   5.661  11.079  0.1291  0.4698 -1.0335
 8024TIP3    H145487   4.713   5.707  11.005  2.2549 -0.2327 -2.6897
 8024TIP3    H245488   4.698   5.584  11.093 -1.1607  1.4166 -0.8685
 8025TIP3   OH245489   2.230   0.984   2.874  0.1604  0.2596 -0.4389
 8025TIP3    H145490   2.312   0.935   2.862  0.8372  0.8592  1.5937
 8025TIP3    H245491   2.251   1.050   2.940 -1.9957  0.3886  0.1510
 8026TIP3   OH245492   2.316   6.556  11.401 -0.1245  0.5527  0.0416
 8026TIP3    H145493   2.305   6.651  11.396  0.5897  0.7681  1.9930
 8026TIP3    H245494   2.407   6.544  11.426 -0.5587 -0.5871  1.1490
 8027TIP3   OH245495   5.398   5.675   0.562 -0.4720 -0.0833  0.0721
 8027TIP3    H145496   5.432   5.652   0.476  1.4967 -1.3606  1.1449
 8027TIP3    H245497   5.365   5.593   0.598 -2.7943  0.7508 -0.0922
 8028TIP3   OH245498   4.143   2.676  10.999  0.1400  0.4797 -0.3736
 8028TIP3    H145499   4.199   2.619  11.050  1.1023  1.1431 -0.6813
 8028TIP3    H245500   4.203   2.732  10.950 -0.7758  0.1689 -1.8802
 8029TIP3   OH245501   4.697   5.511   3.176  0.4133 -0.2660 -0.2524
 8029TIP3    H145502   4.751   5.574   3.225  0.0355  0.2811 -0.5451
 8029TIP3    H245503   4.607   5.530   3.203  0.3289 -0.9434 -0.0398
 8030TIP3   OH245504   4.624   5.443  13.861 -0.1071  0.1498  0.2548
 8030TIP3    H145505   4.603   5.407  13.775 -0.3158 -0.8703  0.7318
 8030TIP3    H245506   4.694   5.506  13.844  0.4027 -0.6319 -0.5478
 8031TIP3   OH245507   5.343   2.667   1.013  0.1507  0.7246 -0.5461
 8031TIP3    H145508   5.331   2.761   1.019 -3.9519  0.2419  0.2222
 8031TIP3    H245509   5.327   2.646   0.921 -0.5408  0.5712 -0.3886
 8032TIP3   OH245510   4.888   3.932  16.960 -0.3505  0.0184  0.4426
 8032TIP3    H145511   4.809   3.951  17.010  0.1738 -1.4830  1.8929
 8032TIP3    H245512   4.940   4.013  16.965 -0.6152  0.1156  1.7658
 8033TIP3   OH245513   3.288   3.911   3.176 -0.3734 -0.4207  0.2124
 8033TIP3    H145514   3.251   3.829   3.142 -2.7316  0.4776  0.5332
 8033TIP3    H245515   3.346   3.883   3.247 -0.8373 -1.8627  0.0442
 8034TIP3   OH245516   1.965   2.175  12.074 -0.3164 -0.4032  0.3331
 8034TIP3    H145517   1.984   2.083  12.055 -0.5552 -0.4935  0.5237
 8034TIP3    H245518   2.051   2.217  12.075 -0.2329 -0.5625 -0.0812
 8035TIP3   OH245519   4.955   0.044   4.253 -0.1212  0.1100 -0.2351
 8035TIP3    H145520   4.895   0.088   4.193 -1.4555 -0.7660  0.4371
 8035TIP3    H245521   4.900   0.014   4.325  1.4904  1.4071  1.6009
 8036TIP3   OH245522   5.321   0.324   0.091  0.6156  0.4391 -0.1169
 8036TIP3    H145523   5.245   0.267   0.078 -0.1746  1.1924  1.1852
 8036TIP3    H245524   5.360   0.295   0.173  0.8078  1.1298  0.0356
 8037TIP3   OH245525   2.276   1.967   0.210 -0.3493 -0.3691 -0.2280
 8037TIP3    H145526   2.186   1.987   0.234  0.9109  2.5394  2.6477
 8037TIP3    H245527   2.296   2.028   0.139 -0.3623 -0.2834 -0.1591
 8038TIP3   OH245528   2.711   1.487  11.511  0.2305  0.0136 -0.3542
 8038TIP3    H145529   2.731   1.566  11.461 -0.4194 -0.1995 -0.9669
 8038TIP3    H245530   2.748   1.416  11.460  0.0635 -0.1558 -0.2416
 8039TIP3   OH245531   6.057   4.461   5.824 -0.5298 -0.2531  0.5501
 8039TIP3    H145532   6.100   4.435   5.742 -4.2990  2.1246 -2.3544
 8039TIP3    H245533   6.056   4.557   5.820 -4.6635 -0.1810  1.1636
 8040TIP3   OH245534   5.302   3.108  12.509 -0.9468 -0.0827 -0.7207
 8040TIP3    H145535   5.328   3.170  12.578 -2.3919 -0.3233  0.0582
 8040TIP3    H245536   5.212   3.085  12.530 -0.5620 -2.1825 -1.1999
 8041TIP3   OH245537   5.025   0.644   5.422 -0.1973  0.1234  0.3320
 8041TIP3    H145538   4.933   0.628   5.443  0.1145  0.5275  2.0792
 8041TIP3    H245539   5.070   0.564   5.448 -0.0689 -0.1445 -0.6918
 8042TIP3   OH245540   6.116   5.669   5.393  0.9880  0.7023 -0.5910
 8042TIP3    H145541   6.106   5.584   5.351 -0.7552  1.4741 -1.7941
 8042TIP3    H245542   6.074   5.659   5.479  2.0651 -0.0385 -0.1264
 8043TIP3   OH245543   2.036   4.091  14.756 -0.1111 -0.1297  0.4774
 8043TIP3    H145544   2.070   4.052  14.675  0.2440 -0.2381  0.6737
 8043TIP3    H245545   1.941   4.086  14.747 -0.0683 -1.3312  0.6280
 8044TIP3   OH245546   2.853   0.564   6.291 -0.0876 -0.0756 -0.5496
 8044TIP3    H145547   2.827   0.590   6.202 -0.0802 -2.0087 -1.1269
 8044TIP3    H245548   2.797   0.489   6.312  1.1633 -0.7639  0.3701
 8045TIP3   OH245549   5.062   5.156  14.571  0.0703 -0.2227 -0.1488
 8045TIP3    H145550   5.004   5.190  14.504  0.2377  1.8380  0.7293
 8045TIP3    H245551   5.004   5.128  14.641 -0.0238 -1.1085 -0.5720
 8046TIP3   OH245552   2.495   2.785   1.330 -0.7649  0.1370 -0.7231
 8046TIP3    H145553   2.474   2.698   1.364  0.9941 -0.5225 -1.2517
 8046TIP3    H245554   2.517   2.769   1.238  3.3307  0.5063  0.0753
 8047TIP3   OH245555   2.980   4.851  10.675  0.1449  0.4119 -0.3405
 8047TIP3    H145556   3.062   4.872  10.630  0.2173  0.9538  0.0362
 8047TIP3    H245557   2.981   4.908  10.753  0.0166 -0.4927  0.3252
 8048TIP3   OH245558   0.213   5.602  13.882 -0.4728 -0.3288  0.2187
 8048TIP3    H145559   0.306   5.617  13.903  0.2655 -0.9316 -2.4312
 8048TIP3    H245560   0.195   5.662  13.810 -1.9154 -0.8335  0.1526
 8049TIP3   OH245561   4.842   0.508   3.705  0.3324 -0.1990  0.3505
 8049TIP3    H145562   4.906   0.564   3.661  0.2631  0.6909  1.3648
 8049TIP3    H245563   4.861   0.420   3.673  2.4588 -0.0307  1.0710
 8050TIP3   OH245564   1.457   4.276   2.657 -0.0077  0.2784  0.6567
 8050TIP3    H145565   1.462   4.200   2.715  0.6686  0.4036  0.7688
 8050TIP3    H245566   1.462   4.239   2.569 -0.5607  0.1279  0.6835
 8051TIP3   OH245567   0.545   5.167  15.900 -0.0300  0.4563 -0.3634
 8051TIP3    H145568   0.540   5.085  15.851  0.9283  0.5137 -0.5733
 8051TIP3    H245569   0.455   5.198  15.904 -0.5017 -0.9748  0.3499
 8052TIP3   OH245570   2.536   6.078   5.094 -0.2304  0.5231 -0.3477
 8052TIP3    H145571   2.539   6.007   5.029 -0.7105  1.6761 -1.6718
 8052TIP3    H245572   2.601   6.054   5.159  0.4349 -0.5655 -1.3809
 8053TIP3   OH245573   1.662   1.020   3.239  0.3582  0.1224 -0.5958
 8053TIP3    H145574   1.736   1.067   3.277 -1.0761  0.9289  1.2946
 8053TIP3    H245575   1.652   0.942   3.293 -0.7324  0.4997 -0.2216
 8054TIP3   OH245576   6.333   6.504   4.510 -0.6500  0.3723 -0.8356
 8054TIP3    H145577   6.356   6.565   4.580 -0.0731 -0.9298  0.1137
 8054TIP3    H245578   6.262   6.451   4.546  0.1979 -0.8423 -0.9374
 8055TIP3   OH245579   0.733   1.122   5.536 -0.0235 -0.0957 -0.3018
 8055TIP3    H145580   0.718   1.030   5.558 -1.8829 -0.0201 -1.1735
 8055TIP3    H245581   0.821   1.124   5.500  0.5417 -1.3134  0.9686
 8056TIP3   OH245582   0.380   0.061   0.026 -0.0089 -0.1356 -0.0492
 8056TIP3    H145583   0.361  -0.003   0.095 -0.5476 -1.2062 -1.1805
 8056TIP3    H245584   0.460   0.105   0.056  0.8313 -1.8796  0.3755
 8057TIP3   OH245585   0.445   1.860  13.031 -0.0007  0.0981  0.0994
 8057TIP3    H145586   0.511   1.856  12.961  0.1492 -0.6042  0.2719
 8057TIP3    H245587   0.489   1.906  13.103  0.8079 -1.6227  0.7365
 8058TIP3   OH245588   5.522   3.779  10.653 -0.2881 -0.2153  0.5926
 8058TIP3    H145589   5.577   3.820  10.586  0.2097  1.7892  2.1660
 8058TIP3    H245590   5.565   3.696  10.673 -0.9930 -1.2957 -2.2554
 8059TIP3   OH245591   5.331   3.756   3.461 -1.1673 -0.7151 -0.3839
 8059TIP3    H145592   5.276   3.820   3.507 -0.8807 -0.0150 -0.9994
 8059TIP3    H245593   5.366   3.701   3.530  0.5234  1.3022  0.4271
 8060TIP3   OH245594   3.481   2.356  15.709  0.2808  0.3427  0.4660
 8060TIP3    H145595   3.416   2.427  15.713  1.0205  1.0319  0.3343
 8060TIP3    H245596   3.452   2.302  15.636 -0.8127 -0.0103  1.1511
 8061TIP3   OH245597   3.497   0.254  14.417  0.1830  0.7120 -0.0646
 8061TIP3    H145598   3.416   0.304  14.425  0.3781  0.9780  0.3010
 8061TIP3    H245599   3.488   0.183  14.480  0.8690  1.6325  1.1183
 8062TIP3   OH245600   4.024   3.655   4.413  0.3039 -0.2277  0.0195
 8062TIP3    H145601   4.018   3.749   4.399 -0.1941 -0.3228 -0.4396
 8062TIP3    H245602   3.954   3.635   4.475  0.7351 -0.2194  0.5075
 8063TIP3   OH245603   4.206   1.642   3.420 -0.0559  0.2745  0.1132
 8063TIP3    H145604   4.153   1.584   3.364 -0.4238  0.2337  0.5026
 8063TIP3    H245605   4.286   1.657   3.369  0.2876 -1.0207  0.2475
 8064TIP3   OH245606   0.310   0.247  14.489 -0.0696 -0.2166  0.2020
 8064TIP3    H145607   0.220   0.247  14.521 -0.4502 -1.7541 -0.7837
 8064TIP3    H245608   0.350   0.169  14.528  1.2743  1.2049  1.7447
 8065TIP3   OH245609   0.751   1.922   5.344  0.0660  0.3376  0.3287
 8065TIP3    H145610   0.662   1.956   5.341  0.0242  0.4139  2.2440
 8065TIP3    H245611   0.786   1.952   5.428  2.8647  2.7374 -1.5953
 8066TIP3   OH245612   5.240   4.680   2.047 -0.2495  0.6300 -0.2867
 8066TIP3    H145613   5.222   4.740   2.119  0.4728  1.3874 -0.7338
 8066TIP3    H245614   5.154   4.645   2.023 -0.4573  0.1603  1.1205
 8067TIP3   OH245615   2.302   2.676  11.679  0.2818  0.3587 -0.0133
 8067TIP3    H145616   2.321   2.769  11.673 -0.9788  0.6350  0.0195
 8067TIP3    H245617   2.351   2.646  11.756 -0.2124  1.2396  0.6505
 8068TIP3   OH245618   3.264   1.066  16.468 -0.3947  0.4885  0.2929
 8068TIP3    H145619   3.308   1.142  16.430  0.0136  0.9446  1.6342
 8068TIP3    H245620   3.314   0.991  16.437  0.1754  0.8805  0.2547
 8069TIP3   OH245621   0.614   3.525   3.777  0.9590 -0.2757  0.4982
 8069TIP3    H145622   0.644   3.573   3.854  0.2903 -1.7762  1.7417
 8069TIP3    H245623   0.607   3.590   3.708 -0.1979  1.4542  2.2035
 8070TIP3   OH245624   4.704   5.532  12.474  0.2397 -0.2882 -0.5178
 8070TIP3    H145625   4.612   5.540  12.450 -0.3014 -3.1143  0.4362
 8070TIP3    H245626   4.751   5.542  12.391 -0.9262  0.4716 -1.1167
 8071TIP3   OH245627   6.238   0.534   0.791 -0.3023 -0.2745 -0.9025
 8071TIP3    H145628   6.281   0.511   0.709 -0.3530 -2.5201 -0.3087
 8071TIP3    H245629   6.202   0.452   0.824  0.2705  0.4879  1.7131
 8072TIP3   OH245630   6.335   3.686  15.620  0.2218 -0.3236  0.0064
 8072TIP3    H145631   6.347   3.592  15.606  0.5541 -0.0596 -1.5967
 8072TIP3    H245632   6.419   3.716  15.655 -0.1115 -0.7330  1.1749
 8073TIP3   OH245633   5.989   3.681  14.249  0.5947 -0.2065  0.6208
 8073TIP3    H145634   6.017   3.602  14.203 -1.4888 -0.6694  0.1289
 8073TIP3    H245635   5.894   3.672  14.257  0.3736  2.1112  0.8106
 8074TIP3   OH245636   1.731   2.837  13.460  0.4778 -0.0118  0.0107
 8074TIP3    H145637   1.635   2.839  13.456  0.3980  1.4762  1.8908
 8074TIP3    H245638   1.750   2.781  13.535  1.0418  0.7945  0.4702
 8075TIP3   OH245639   5.544   0.173  13.814  0.2519 -0.3168 -0.0067
 8075TIP3    H145640   5.534   0.213  13.728  2.3448 -1.5937 -0.8829
 8075TIP3    H245641   5.472   0.209  13.866 -0.8843  0.6696 -2.2080
 8076TIP3   OH245642   1.261   2.901  14.075  0.0340 -0.4946 -0.5913
 8076TIP3    H145643   1.356   2.904  14.084 -0.1770  1.2380  1.5321
 8076TIP3    H245644   1.237   2.814  14.108  0.5521  0.6174  2.8667
 8077TIP3   OH245645   0.525   1.372   6.068  0.2632 -0.2903  0.0121
 8077TIP3    H145646   0.497   1.316   6.141  0.8990 -0.7161 -0.0655
 8077TIP3    H245647   0.606   1.332   6.037  0.5498  0.4846 -0.2584
 8078TIP3   OH245648   2.646   0.576   0.873 -0.1299  0.1934  0.0973
 8078TIP3    H145649   2.606   0.526   0.944 -0.2685 -0.4641 -0.4452
 8078TIP3    H245650   2.612   0.536   0.793  1.8614 -0.6019 -0.3835
 8079TIP3   OH245651   0.782   1.695   4.641 -0.6773 -0.0150 -1.2299
 8079TIP3    H145652   0.864   1.743   4.629 -1.0897  0.2504 -3.1590
 8079TIP3    H245653   0.784   1.627   4.574  0.3726 -3.4436  2.1068
 8080TIP3   OH245654   0.712   4.571   4.762 -0.0701 -0.8293 -0.0730
 8080TIP3    H145655   0.710   4.592   4.669  0.1867  1.8402  0.4780
 8080TIP3    H245656   0.771   4.496   4.768 -1.1897 -1.9119 -2.2006
 8081TIP3   OH245657   4.334   6.148  13.502  0.2737  0.4665  0.0594
 8081TIP3    H145658   4.429   6.149  13.490  0.2449 -1.3077 -0.4782
 8081TIP3    H245659   4.311   6.055  13.506 -1.6360  0.8317 -1.3814
 8082TIP3   OH245660   4.682   2.851   3.170 -0.2844  0.3091 -0.3863
 8082TIP3    H145661   4.612   2.876   3.231  1.2639 -0.5049  1.7895
 8082TIP3    H245662   4.750   2.918   3.182  1.3267 -1.5213  1.0771
 8083TIP3   OH245663   4.125   6.589  10.852 -0.0544 -0.2916 -0.1959
 8083TIP3    H145664   4.178   6.587  10.772 -0.9254  0.3600 -0.7949
 8083TIP3    H245665   4.081   6.674  10.849  0.3432 -0.0174  1.2683
 8084TIP3   OH245666   3.734   3.108   1.183 -0.0153 -0.1814  0.6298
 8084TIP3    H145667   3.744   3.115   1.278 -0.7809  0.2836  0.6749
 8084TIP3    H245668   3.782   3.028   1.160 -0.9676 -1.0309  1.5833
 8085TIP3   OH245669   6.327   5.103  17.038 -0.0743 -0.1396 -0.4186
 8085TIP3    H145670   6.289   5.153  17.110  0.2529 -0.1084 -0.2686
 8085TIP3    H245671   6.299   5.149  16.959  0.1004  0.1917 -0.2867
 8086TIP3   OH245672   2.399   6.708   4.158  0.2197  0.0442  0.4684
 8086TIP3    H145673   2.425   6.635   4.214  1.0206 -0.5708 -0.6959
 8086TIP3    H245674   2.480   6.756   4.142 -0.1543  0.7007  0.5118
 8087TIP3   OH245675   4.699   3.410  11.084 -0.3505  0.0827  0.0026
 8087TIP3    H145676   4.652   3.349  11.027  0.9009 -0.1259 -0.8362
 8087TIP3    H245677   4.789   3.407  11.052 -0.0689  1.5898  0.6210
 8088TIP3   OH245678   1.963   4.845   1.384 -0.4646  0.4576  0.5530
 8088TIP3    H145679   1.973   4.900   1.461  0.3962  2.2522 -0.7907
 8088TIP3    H245680   1.916   4.899   1.321  0.4935 -0.2723 -0.8358
 8089TIP3   OH245681   1.503   6.265   4.211  0.4860 -1.0891 -0.3237
 8089TIP3    H145682   1.584   6.292   4.167 -0.5528  0.2229 -1.4788
 8089TIP3    H245683   1.519   6.283   4.304  1.2733 -0.1723 -0.6233
 8090TIP3   OH245684   5.632   3.004  15.187 -0.3681  0.2062 -0.4085
 8090TIP3    H145685   5.568   3.007  15.258  0.2024 -1.0607  0.1881
 8090TIP3    H245686   5.588   3.045  15.113 -2.3803 -1.8108 -0.3906
 8091TIP3   OH245687   6.086   6.242   4.814 -0.6912 -0.3272 -0.2379
 8091TIP3    H145688   6.094   6.154   4.851 -0.8997 -0.1528  0.2397
 8091TIP3    H245689   5.998   6.245   4.777  0.3883 -1.3225 -2.9929
 8092TIP3   OH245690   6.342   1.103  13.178 -0.6336 -0.1565  0.6337
 8092TIP3    H145691   6.389   1.151  13.110 -0.7820  0.5227  1.0054
 8092TIP3    H245692   6.393   1.118  13.258 -0.6278 -0.6967  0.7327
 8093TIP3   OH245693   3.868   0.500  16.899  0.1258 -0.2979 -0.0706
 8093TIP3    H145694   3.773   0.514  16.906  0.3170  0.8921  0.4088
 8093TIP3    H245695   3.890   0.447  16.976 -0.1291 -0.4629 -0.1111
 8094TIP3   OH245696   4.435   1.790   1.640 -0.6626  0.2736 -0.1002
 8094TIP3    H145697   4.350   1.834   1.638 -0.7766  0.0989  0.6975
 8094TIP3    H245698   4.417   1.702   1.607 -0.5579  0.6274 -1.0901
 8095TIP3   OH245699   3.282   3.637  12.495 -0.5470 -0.0827  0.4004
 8095TIP3    H145700   3.220   3.705  12.469 -1.2548 -1.4258 -1.5572
 8095TIP3    H245701   3.350   3.683  12.543 -2.0486  1.7072  0.8528
 8096TIP3   OH245702   4.004   3.145  17.019 -0.0680 -0.1904  0.1725
 8096TIP3    H145703   3.912   3.161  16.996 -0.5607 -0.1995  2.0549
 8096TIP3    H245704   4.011   3.050  17.022  0.1819 -0.2044 -0.5736
 8097TIP3   OH245705   1.645   1.829  10.591  0.1273 -0.1189  0.1347
 8097TIP3    H145706   1.636   1.736  10.570 -0.3641 -0.0953  0.2577
 8097TIP3    H245707   1.688   1.830  10.676  2.3788 -0.2161 -0.9562
 8098TIP3   OH245708   4.976   2.303   3.547 -0.1583 -0.0351  0.1260
 8098TIP3    H145709   4.957   2.212   3.527  0.6807 -0.0121 -0.8622
 8098TIP3    H245710   4.891   2.347   3.546 -0.4149 -0.5499 -0.8027
 8099TIP3   OH245711   4.581   2.108   6.186 -0.2173 -0.2307 -0.2616
 8099TIP3    H145712   4.644   2.119   6.257 -0.5683  0.9753 -0.1306
 8099TIP3    H245713   4.635   2.095   6.108  0.2381  2.5627 -0.4498
 8100TIP3   OH245714   4.675   1.480  17.048  0.4021 -0.6139  0.4441
 8100TIP3    H145715   4.636   1.460  16.962  0.4167  1.4036 -0.0653
 8100TIP3    H245716   4.746   1.417  17.057 -0.1580 -1.4257 -0.6337
 8101TIP3   OH245717   6.026   5.599  16.406 -0.4567 -0.6948 -0.2407
 8101TIP3    H145718   6.077   5.519  16.396  0.2053 -0.3354  0.2465
 8101TIP3    H245719   6.061   5.640  16.485 -0.8012  0.0679 -0.4827
 8102TIP3   OH245720   4.844   1.027   0.372 -0.4830  0.4883  0.0142
 8102TIP3    H145721   4.776   0.961   0.387 -0.3548  0.0088 -1.4366
 8102TIP3    H245722   4.840   1.083   0.449 -1.5915 -0.3508  0.5837
 8103TIP3   OH245723   5.243   2.673  16.038  0.2738  0.1659 -0.3102
 8103TIP3    H145724   5.311   2.606  16.038 -0.1396 -0.2501  0.2363
 8103TIP3    H245725   5.288   2.753  16.066  0.4717 -0.1743  0.3510
 8104TIP3   OH245726   0.170   5.374  12.562  0.2314  0.0023 -0.5604
 8104TIP3    H145727   0.169   5.328  12.646  0.8891  0.7891 -0.1124
 8104TIP3    H245728   0.261   5.371  12.534 -0.1427 -1.0642 -1.7043
 8105TIP3   OH245729   1.072   6.311  12.739  0.0519 -0.2150  1.1525
 8105TIP3    H145730   1.018   6.238  12.770  0.4741 -0.8778  0.3482
 8105TIP3    H245731   1.030   6.340  12.659  2.3820 -2.5395 -1.0124
 8106TIP3   OH245732   1.048   2.243  15.958 -0.0461 -0.4759 -0.2026
 8106TIP3    H145733   0.991   2.170  15.984  1.3012 -0.3258  3.3294
 8106TIP3    H245734   0.997   2.321  15.977 -0.4162 -0.4159 -1.3974
 8107TIP3   OH245735   4.660   3.437  16.167  0.0853  0.5233 -0.0887
 8107TIP3    H145736   4.722   3.450  16.239  0.0175 -0.6892  0.1962
 8107TIP3    H245737   4.592   3.502  16.183 -0.1287  0.0221  1.1738
 8108TIP3   OH245738   5.198   0.182   5.954 -0.5068 -0.7937  0.3053
 8108TIP3    H145739   5.134   0.242   5.993 -2.8751 -1.7005 -2.0761
 8108TIP3    H245740   5.169   0.095   5.981  0.2311 -1.1625 -0.0882
 8109TIP3   OH245741   0.214   0.236  10.731 -0.4835 -0.0594  0.7633
 8109TIP3    H145742   0.221   0.287  10.812  0.2512 -0.1472  0.7588
 8109TIP3    H245743   0.122   0.244  10.706 -0.2163  1.9333  0.3224
 8110TIP3   OH245744   1.105   1.863  14.219 -0.3721 -0.2054 -0.4833
 8110TIP3    H145745   1.083   1.800  14.288 -0.2859 -0.9488 -1.1323
 8110TIP3    H245746   1.046   1.841  14.146 -0.2937  0.4202 -0.7434
 8111TIP3   OH245747   5.088   3.175  13.286  0.0268 -0.1784  0.1536
 8111TIP3    H145748   5.044   3.259  13.294  1.7341  0.6963  0.3476
 8111TIP3    H245749   5.060   3.142  13.200 -1.7493 -0.0829  0.6735
 8112TIP3   OH245750   0.184   5.645  12.415 -0.0303 -0.2930 -0.3304
 8112TIP3    H145751   0.111   5.617  12.360  0.4854 -1.8261 -0.2402
 8112TIP3    H245752   0.166   5.738  12.432 -2.1451 -0.7306 -0.0091
 8113TIP3   OH245753   4.463   3.760  14.177 -0.2972 -0.4834  0.7019
 8113TIP3    H145754   4.470   3.760  14.082 -2.6970  2.6251  0.4375
 8113TIP3    H245755   4.542   3.805  14.207  0.4500 -1.4503  0.2101
 8114TIP3   OH245756   4.810   1.861   3.044  0.2248 -0.0437 -0.2583
 8114TIP3    H145757   4.730   1.848   2.993  0.1657  1.3495 -0.5323
 8114TIP3    H245758   4.780   1.860   3.135 -0.1007  0.4091 -0.3588
 8115TIP3   OH245759   0.644   6.754   3.511 -0.0485  0.7559  0.0035
 8115TIP3    H145760   0.562   6.718   3.547  0.9427  0.1312  1.7174
 8115TIP3    H245761   0.711   6.728   3.575  1.2886  2.3624 -0.7174
 8116TIP3   OH245762   3.017   4.927   2.679 -0.2603 -0.0701  0.6253
 8116TIP3    H145763   3.028   4.846   2.729  2.1106 -0.3806 -0.3315
 8116TIP3    H245764   2.933   4.917   2.634  0.1969 -2.1740  0.2079
 8117TIP3   OH245765   2.887   4.789   5.611 -0.0918  0.2357 -0.2785
 8117TIP3    H145766   2.897   4.779   5.705 -0.3434 -0.5186 -0.3299
 8117TIP3    H245767   2.923   4.876   5.592 -1.1180  0.8707  0.6610
 8118TIP3   OH245768   4.808   3.957   3.524 -0.0749 -0.0991  0.4785
 8118TIP3    H145769   4.767   3.890   3.580  0.1680 -0.8136 -0.1924
 8118TIP3    H245770   4.850   4.017   3.586 -0.1850 -0.6345  1.0808
 8119TIP3   OH245771   2.535   4.489  12.682  0.8704  0.5809  0.9417
 8119TIP3    H145772   2.620   4.492  12.639  0.7222 -0.8054  0.5274
 8119TIP3    H245773   2.499   4.404  12.658 -1.2634  1.7270 -0.0898
 8120TIP3   OH245774   3.280   6.128   2.827 -0.4284 -0.0153  0.0492
 8120TIP3    H145775   3.323   6.149   2.911  0.4811 -1.3711 -0.0650
 8120TIP3    H245776   3.226   6.051   2.846 -0.5692 -0.0529 -0.5024
 8121TIP3   OH245777   5.121   0.615  17.103 -1.1078  0.3754  0.4295
 8121TIP3    H145778   5.046   0.657  17.061 -2.6869 -0.7057  2.0828
 8121TIP3    H245779   5.093   0.524  17.116  1.2234 -0.5281 -0.6272
 8122TIP3   OH245780   6.466   6.122  11.787 -0.2549  0.4697 -0.4425
 8122TIP3    H145781   6.535   6.096  11.849 -0.9776  0.3944  0.3458
 8122TIP3    H245782   6.482   6.215  11.771 -0.6180  0.7281  0.6087
 8123TIP3   OH245783   1.661   5.379   4.504 -0.2386  0.5327  0.1145
 8123TIP3    H145784   1.716   5.301   4.511  0.5680  0.9679 -1.1776
 8123TIP3    H245785   1.654   5.395   4.410 -1.2461  1.4303  0.3327
 8124TIP3   OH245786   6.130   0.319   0.933 -0.3564 -0.7107 -1.2758
 8124TIP3    H145787   6.130   0.288   1.024  1.0911  0.2560 -0.9186
 8124TIP3    H245788   6.181   0.253   0.886 -0.1317 -0.6246 -1.1561
 8125TIP3   OH245789   4.385   5.273  16.997  0.1178 -0.0669  0.0272
 8125TIP3    H145790   4.303   5.237  17.032 -0.7288  0.9129 -0.9230
 8125TIP3    H245791   4.444   5.275  17.073 -1.0118  0.0531  0.9246
 8126TIP3   OH245792   2.829   3.003  13.088 -0.3992  0.2039 -0.8242
 8126TIP3    H145793   2.755   3.057  13.062 -1.2697 -0.3473  0.4343
 8126TIP3    H245794   2.799   2.913  13.075 -0.1507 -0.0369  0.1707
 8127TIP3   OH245795   0.499   1.944   4.823  0.4164 -0.3721 -0.1718
 8127TIP3    H145796   0.505   1.856   4.858 -0.5938 -1.0709 -1.6757
 8127TIP3    H245797   0.405   1.961   4.817  0.5933  0.4514 -0.7080
 8128TIP3   OH245798   6.342   3.959  12.007 -0.1254  0.1418 -0.2459
 8128TIP3    H145799   6.425   3.911  12.009 -0.0188  0.3371  2.3607
 8128TIP3    H245800   6.289   3.916  12.075 -0.6936  2.5164  0.8449
 8129TIP3   OH245801   6.368   4.807  13.206 -0.0530  0.1213 -0.0617
 8129TIP3    H145802   6.291   4.764  13.244 -0.4670  0.0369 -0.9788
 8129TIP3    H245803   6.351   4.900  13.216 -0.4982  0.1094 -0.6976
 8130TIP3   OH245804   4.422   5.524   0.847 -0.0514  0.1022 -0.8434
 8130TIP3    H145805   4.499   5.475   0.878 -0.0710 -0.7724 -2.1273
 8130TIP3    H245806   4.413   5.597   0.909 -0.2900 -1.7524  1.3906
 8131TIP3   OH245807   5.233   0.931   4.307 -0.2081  0.0751  0.0409
 8131TIP3    H145808   5.237   0.876   4.229  1.0552  0.8385 -0.4570
 8131TIP3    H245809   5.220   0.869   4.380 -0.8661 -0.6835 -0.7134
 8132TIP3   OH245810   5.161   1.884  11.780 -0.3488 -0.0495 -0.7836
 8132TIP3    H145811   5.203   1.885  11.866  1.7774  2.2064 -1.8004
 8132TIP3    H245812   5.105   1.961  11.780  0.1782  0.3422 -1.6421
 8133TIP3   OH245813   4.499   1.044  12.793  0.7374  0.0255  0.3747
 8133TIP3    H145814   4.554   0.967  12.780 -0.2491 -0.4268 -1.3519
 8133TIP3    H245815   4.416   1.009  12.824 -0.3551  0.1710 -2.2650
 8134TIP3   OH245816   0.496   4.092   2.734  1.0032 -0.5481 -0.5483
 8134TIP3    H145817   0.493   3.997   2.719  0.8012 -0.1733 -3.1777
 8134TIP3    H245818   0.412   4.124   2.700  0.7830  0.5152  0.9464
 8135TIP3   OH245819   5.687   6.395   5.171 -0.3578  0.4023  0.1649
 8135TIP3    H145820   5.655   6.446   5.097 -0.4079 -0.1268 -0.1733
 8135TIP3    H245821   5.717   6.461   5.234 -0.4596  0.8510 -0.2573
 8136TIP3   OH245822   3.653   3.167  14.087 -0.0315 -0.0876  0.3496
 8136TIP3    H145823   3.595   3.145  14.160  0.6871 -3.0880  0.1048
 8136TIP3    H245824   3.738   3.129  14.111  0.5529  0.0225 -1.4323
 8137TIP3   OH245825   1.637   4.915  11.826  0.2995  0.1546 -0.3970
 8137TIP3    H145826   1.675   4.974  11.761  1.1694  0.0913  0.0510
 8137TIP3    H245827   1.613   4.972  11.899  2.1934 -0.1774  0.5131
 8138TIP3   OH245828   3.591   0.597   3.660  0.4803 -0.0055 -0.3278
 8138TIP3    H145829   3.587   0.681   3.614  2.3912  0.6617  0.6795
 8138TIP3    H245830   3.669   0.554   3.625  0.3276 -0.7422  0.2198
 8139TIP3   OH245831   4.177   1.054   3.840 -0.7773 -0.2384 -0.5181
 8139TIP3    H145832   4.263   1.068   3.799 -0.1353  0.3303  0.9718
 8139TIP3    H245833   4.138   1.141   3.842 -0.6578 -0.1978  0.3625
 8140TIP3   OH245834   4.944   2.133   2.462  0.4737  0.1138 -0.2424
 8140TIP3    H145835   4.928   2.186   2.541 -1.2808  0.3873 -0.7635
 8140TIP3    H245836   5.015   2.075   2.487  0.8689  1.1351  1.1041
 8141TIP3   OH245837   1.478   3.233   1.341 -0.0265 -0.5369  0.3312
 8141TIP3    H145838   1.503   3.149   1.380  0.3865 -0.5116  0.1220
 8141TIP3    H245839   1.526   3.236   1.258 -0.3598 -0.2786  0.1488
 8142TIP3   OH245840   6.234   0.021   3.878  0.1507 -0.0697  0.6196
 8142TIP3    H145841   6.264  -0.021   3.958 -0.8726 -2.2135 -0.0870
 8142TIP3    H245842   6.138   0.016   3.883  0.0710  0.1417 -0.5428
 8143TIP3   OH245843   6.210   1.950   4.087  0.1804 -0.1374  0.2222
 8143TIP3    H145844   6.235   2.017   4.023 -1.9960 -0.7489 -1.3616
 8143TIP3    H245845   6.144   1.993   4.141  0.7432 -0.1714  0.9381
 8144TIP3   OH245846   2.946   5.419   3.649 -0.2152  0.1299 -0.4747
 8144TIP3    H145847   2.886   5.348   3.622 -0.1520 -0.0853 -0.0584
 8144TIP3    H245848   2.906   5.455   3.728 -1.1000  1.6375 -1.5847
 8145TIP3   OH245849   1.559   4.243   2.931 -0.4109 -0.4973  0.0526
 8145TIP3    H145850   1.532   4.190   3.006 -1.2113  0.2274  0.2901
 8145TIP3    H245851   1.527   4.331   2.951  0.8409  0.0554 -0.3723
 8146TIP3   OH245852   5.318   4.416  16.144 -0.5312  0.2882 -0.1048
 8146TIP3    H145853   5.301   4.484  16.209  0.2869  1.2993 -0.9306
 8146TIP3    H245854   5.412   4.420  16.128 -0.7441  0.1845 -1.4794
 8147TIP3   OH245855   4.098   4.853  16.148  0.4770  0.1622 -0.1154
 8147TIP3    H145856   4.166   4.788  16.127 -0.7823 -2.3808  3.2391
 8147TIP3    H245857   4.147   4.931  16.174  2.1364 -1.0761  0.6112
 8148TIP3   OH245858   0.080   5.853   0.440 -0.4352 -0.0413  0.1287
 8148TIP3    H145859   0.053   5.761   0.442  2.1470 -0.8765 -0.8178
 8148TIP3    H245860   0.021   5.894   0.378 -1.5777 -1.0759  0.5083
 8149TIP3   OH245861   1.598   4.396  11.776 -0.5724 -0.3486 -0.2253
 8149TIP3    H145862   1.634   4.483  11.759 -0.0693 -0.7494 -1.2750
 8149TIP3    H245863   1.575   4.362  11.689  0.8355 -1.9394 -0.0145
 8150TIP3   OH245864   4.596   4.420   3.293 -0.7536  0.3001 -0.1317
 8150TIP3    H145865   4.590   4.510   3.325  1.8407  0.7612 -0.7973
 8150TIP3    H245866   4.593   4.367   3.373 -0.0011  1.1185  0.4631
 8151TIP3   OH245867   0.714   5.343   4.426 -0.0623  0.2370 -0.2060
 8151TIP3    H145868   0.688   5.253   4.408 -1.7987  0.8246 -0.6999
 8151TIP3    H245869   0.746   5.376   4.342 -2.1769  0.9832 -0.7376
 8152TIP3   OH245870   1.214   6.185  16.652  0.0516  0.3935 -0.4195
 8152TIP3    H145871   1.243   6.272  16.680  0.8518 -0.1985  0.6574
 8152TIP3    H245872   1.132   6.171  16.699  0.5326  0.0867  0.3357
 8153TIP3   OH245873   1.757   2.801   3.328 -0.2092 -0.0754 -0.0651
 8153TIP3    H145874   1.773   2.771   3.239 -1.6830 -0.5079 -0.1934
 8153TIP3    H245875   1.766   2.723   3.382  1.3164  0.3059  0.2538
 8154TIP3   OH245876   5.537   5.171   0.942 -0.2850 -0.4809 -0.5568
 8154TIP3    H145877   5.563   5.130   1.025  0.5845 -0.0756 -0.6243
 8154TIP3    H245878   5.586   5.253   0.939 -0.2831 -0.5089 -1.4856
 8155TIP3   OH245879   0.233   4.655  15.773  0.2228 -0.1380 -0.1469
 8155TIP3    H145880   0.187   4.631  15.853  1.2379  1.7068  1.0169
 8155TIP3    H245881   0.303   4.591  15.766 -1.2237 -1.6916 -0.8106
 8156TIP3   OH245882   3.746   6.329  16.129 -0.2217 -0.1012  0.3775
 8156TIP3    H145883   3.760   6.422  16.146  1.7024 -0.0131 -1.4529
 8156TIP3    H245884   3.669   6.326  16.071 -1.1134  0.2160  1.5149
 8157TIP3   OH245885   0.755   1.240  14.384  0.5509 -0.3609 -0.0183
 8157TIP3    H145886   0.730   1.325  14.419  0.4810 -0.4207  0.0763
 8157TIP3    H245887   0.846   1.251  14.356  0.6333 -0.3385  0.2595
 8158TIP3   OH245888   5.110   2.011   0.143  0.4395  0.1318  0.1767
 8158TIP3    H145889   5.023   1.987   0.108  0.5852  1.4162 -1.1133
 8158TIP3    H245890   5.143   1.930   0.182 -0.9750 -0.5990 -0.1064
 8159TIP3   OH245891   0.503   4.101  12.185  0.2716  0.3135 -0.0760
 8159TIP3    H145892   0.482   4.194  12.192  0.1130  0.1198  2.4231
 8159TIP3    H245893   0.595   4.095  12.210 -0.0801 -0.3477  1.1102
 8160TIP3   OH245894   3.184   2.041   1.094 -0.4444 -0.2298  0.1472
 8160TIP3    H145895   3.108   2.083   1.133 -1.3579 -0.2717 -1.5347
 8160TIP3    H245896   3.255   2.105   1.106 -1.5657  1.3714 -1.4099
 8161TIP3   OH245897   1.254   6.138   3.946  0.6474 -0.2017  0.1882
 8161TIP3    H145898   1.236   6.222   3.988  0.4388 -0.2505  0.1977
 8161TIP3    H245899   1.321   6.097   4.001  3.7417  1.6896 -2.0370
 8162TIP3   OH245900   1.158   4.942   1.397  0.0689 -0.1338 -0.2941
 8162TIP3    H145901   1.181   4.902   1.313 -0.5309 -0.3742 -0.3468
 8162TIP3    H245902   1.094   5.009   1.374  0.5305  0.3657 -0.1217
 8163TIP3   OH245903   4.466   3.637   4.364  0.0915  0.1763  0.4863
 8163TIP3    H145904   4.552   3.617   4.327 -0.3135 -0.8932  0.1213
 8163TIP3    H245905   4.448   3.565   4.425 -1.2515 -0.4776 -0.6405
 8164TIP3   OH245906   2.870   4.368  11.563  1.0733 -0.4880 -0.5206
 8164TIP3    H145907   2.829   4.432  11.621  1.7830 -0.5435  0.0608
 8164TIP3    H245908   2.964   4.382  11.576  1.2293 -1.5805 -0.4645
 8165TIP3   OH245909   2.413   5.426  14.869  0.5242  0.0983  0.3677
 8165TIP3    H145910   2.432   5.475  14.948  2.7539  1.4023 -0.9242
 8165TIP3    H245911   2.483   5.362  14.862 -0.0786 -0.5198 -0.1671
 8166TIP3   OH245912   4.888   6.566   4.177  0.5045 -0.3325 -0.1093
 8166TIP3    H145913   4.967   6.536   4.132  1.1854 -1.1683  1.6205
 8166TIP3    H245914   4.904   6.660   4.192  0.3888 -0.1028 -1.3284
 8167TIP3   OH245915   1.847   0.573   0.182 -0.3269 -0.0241  0.0654
 8167TIP3    H145916   1.832   0.568   0.276  1.5727 -1.3369  0.3427
 8167TIP3    H245917   1.809   0.492   0.147  0.3554 -0.2986 -0.0638
 8168TIP3   OH245918   5.323   1.378   2.878 -0.2429 -0.2921 -0.3232
 8168TIP3    H145919   5.284   1.314   2.939 -2.4114 -0.6116 -1.9746
 8168TIP3    H245920   5.394   1.331   2.836  0.5973 -0.4035  1.1840
 8169TIP3   OH245921   1.114   2.739   6.743  0.1713 -0.0012 -0.1848
 8169TIP3    H145922   1.186   2.777   6.692  0.6112 -0.8784 -0.2278
 8169TIP3    H245923   1.063   2.689   6.680 -0.3589  0.4426 -0.1126
 8170TIP3   OH245924   2.604   1.626  13.894  0.0963 -0.2953 -0.3743
 8170TIP3    H145925   2.566   1.592  13.974 -0.1679  0.8932  0.0104
 8170TIP3    H245926   2.605   1.552  13.834 -0.4690 -0.9721  0.4585
 8171TIP3   OH245927   6.538   6.719   3.950  0.4427 -0.5441  0.4555
 8171TIP3    H145928   6.554   6.629   3.920  0.5488  0.0724 -1.3645
 8171TIP3    H245929   6.610   6.770   3.913 -1.3302  0.8387 -1.1934
 8172TIP3   OH245930   6.044   5.513  13.036  0.1275  0.1087  0.1011
 8172TIP3    H145931   5.960   5.490  13.076 -0.4563 -1.7226 -2.0768
 8172TIP3    H245932   6.087   5.429  13.018  1.4550  0.9510 -0.8065
 8173TIP3   OH245933   1.302   0.336   3.323 -0.1957  0.2811  0.4802
 8173TIP3    H145934   1.365   0.391   3.369  0.4481 -0.5572  0.6037
 8173TIP3    H245935   1.217   0.367   3.354  0.2427 -0.5424  2.5761
 8174TIP3   OH245936   1.578   4.357  13.544  0.0263 -0.3289 -0.3052
 8174TIP3    H145937   1.613   4.310  13.620 -0.3867 -0.7524 -0.3731
 8174TIP3    H245938   1.648   4.352  13.478  0.0771 -0.6409 -0.2288
 8175TIP3   OH245939   4.094   0.491  16.693 -0.0891 -0.0114  0.1235
 8175TIP3    H145940   4.050   0.527  16.769 -0.6423 -1.1447  0.3489
 8175TIP3    H245941   4.024   0.471  16.631  0.5977  4.5970 -2.3525
 8176TIP3   OH245942   5.400   2.958   5.150  0.7020 -0.2312 -0.0177
 8176TIP3    H145943   5.438   2.892   5.207  3.4233 -0.4090 -1.9166
 8176TIP3    H245944   5.460   3.033   5.157 -0.2860  0.6400 -0.7158
 8177TIP3   OH245945   5.837   0.155  12.745  0.4374 -0.4891 -0.6268
 8177TIP3    H145946   5.873   0.093  12.681  1.4254  0.4476 -0.9927
 8177TIP3    H245947   5.796   0.223  12.691 -0.7963 -0.9076 -0.2232
 8178TIP3   OH245948   5.440   6.008   2.391  0.2288  0.4648  0.0324
 8178TIP3    H145949   5.466   5.974   2.476 -0.8391  2.0253  1.0089
 8178TIP3    H245950   5.403   6.095   2.410 -0.9532  0.4094 -1.8845
 8179TIP3   OH245951   3.108   0.168   5.008 -0.3800  0.0282  0.8967
 8179TIP3    H145952   3.088   0.140   4.919  0.1393  0.0931  0.7553
 8179TIP3    H245953   3.031   0.217   5.036  0.4359  2.1634 -0.4317
 8180TIP3   OH245954   2.302   1.014  16.275  0.1792 -0.0154 -0.4730
 8180TIP3    H145955   2.218   0.968  16.274  0.7413 -1.0496 -2.2049
 8180TIP3    H245956   2.335   1.002  16.364 -1.5679  0.5576  0.2847
 8181TIP3   OH245957   1.644   1.961  16.313 -0.3235 -0.3467  0.0627
 8181TIP3    H145958   1.728   2.007  16.314 -0.1531 -0.6721  2.0299
 8181TIP3    H245959   1.590   2.011  16.252  1.7329 -0.9578 -2.3562
 8182TIP3   OH245960   3.652   2.522  16.147  0.2010 -0.0122 -0.3778
 8182TIP3    H145961   3.612   2.463  16.212  0.9945  0.9074  0.9639
 8182TIP3    H245962   3.739   2.541  16.183  1.0428 -0.2998 -2.2228
 8183TIP3   OH245963   5.001   1.148   5.398  0.2100 -0.3290 -0.1778
 8183TIP3    H145964   4.908   1.144   5.376  0.4209 -0.6234 -1.0446
 8183TIP3    H245965   5.017   1.071   5.452 -0.1714  0.0321  0.4498
 8184TIP3   OH245966   6.122   3.745   2.195  0.3169 -0.6570 -0.2337
 8184TIP3    H145967   6.187   3.773   2.130 -0.4879  0.1133 -0.7224
 8184TIP3    H245968   6.045   3.798   2.175 -0.5956 -1.8414  0.0951
 8185TIP3   OH245969   4.323   1.533  12.349  0.1470  0.0090  0.7125
 8185TIP3    H145970   4.269   1.459  12.320 -0.6711 -0.0887  2.4313
 8185TIP3    H245971   4.385   1.546  12.278 -0.4735 -1.5665 -0.1492
 8186TIP3   OH245972   3.290   0.077  15.934  0.5158 -0.2218 -0.4187
 8186TIP3    H145973   3.327   0.141  15.995  2.1125 -1.2939 -0.2127
 8186TIP3    H245974   3.199   0.068  15.960  0.6050  1.0097  0.3631
 8187TIP3   OH245975   4.739   3.824   0.065 -0.1071  0.2298  0.2540
 8187TIP3    H145976   4.719   3.891   0.000  2.0471  2.8335  2.1588
 8187TIP3    H245977   4.789   3.757   0.017  0.3581  1.4920 -1.0424
 8188TIP3   OH245978   1.552   5.770   5.817 -0.1447 -0.4119  0.3101
 8188TIP3    H145979   1.566   5.691   5.868 -1.8590  0.5178  2.3283
 8188TIP3    H245980   1.501   5.827   5.875 -0.4162  1.4881 -1.7149
 8189TIP3   OH245981   0.932   4.574   2.420  0.4200  0.2321 -0.1734
 8189TIP3    H145982   0.970   4.593   2.506 -2.6593  2.0684  0.8629
 8189TIP3    H245983   0.867   4.506   2.436  1.4876 -1.1607 -1.5221
 8190TIP3   OH245984   3.187   6.494  16.758 -0.1724  0.8702  0.4304
 8190TIP3    H145985   3.175   6.409  16.715  2.6159  0.6648  0.0023
 8190TIP3    H245986   3.122   6.551  16.716  0.8847  0.0701 -2.4631
 8191TIP3   OH245987   1.113   4.459   1.483 -0.3065 -0.1437  1.1750
 8191TIP3    H145988   1.204   4.480   1.466 -0.8722  0.3312 -1.4476
 8191TIP3    H245989   1.109   4.363   1.483 -0.3958 -0.1987 -2.3535
 8192TIP3   OH245990   5.481   2.500  12.278 -0.0322  0.4028  0.3948
 8192TIP3    H145991   5.408   2.473  12.223 -0.4080  2.0735  0.0431
 8192TIP3    H245992   5.532   2.559  12.222 -0.0099  1.5276  1.5891
 8193TIP3   OH245993   5.183   4.907   0.086 -0.0050  0.2107  0.0053
 8193TIP3    H145994   5.095   4.914   0.049 -0.2477  0.4577  0.6133
 8193TIP3    H245995   5.238   4.878   0.014 -0.2947  1.6159 -0.7898
 8194TIP3   OH245996   0.830   2.338   1.812 -0.4064  0.2796  0.0932
 8194TIP3    H145997   0.901   2.376   1.760 -0.6055  1.6423  0.7815
 8194TIP3    H245998   0.833   2.244   1.793  1.5940  0.3176  0.1374
 8195TIP3   OH245999   2.289   5.280  15.146 -0.0603 -0.9614 -0.4180
 8195TIP3    H146000   2.216   5.243  15.195 -0.1157  0.4772  0.6314
 8195TIP3    H246001   2.258   5.365  15.115  0.8005 -0.7998 -0.8692
 8196TIP3   OH246002   3.210   6.773   0.010 -0.1254  0.0653 -0.1149
 8196TIP3    H146003   3.269   6.760   0.084 -0.2118  2.5836  0.4447
 8196TIP3    H246004   3.243   6.714  -0.058  3.5752  2.0247 -0.1379
 8197TIP3   OH246005   2.761   0.644   1.644  0.2292  0.2837  0.5305
 8197TIP3    H146006   2.733   0.671   1.732 -0.8802 -2.9943  1.2421
 8197TIP3    H246007   2.829   0.579   1.659  0.5190  0.1983 -1.0735
 8198TIP3   OH246008   5.299   2.901   6.134  0.0347 -0.4974  0.1216
 8198TIP3    H146009   5.338   2.876   6.218  1.0797 -2.1584 -0.8250
 8198TIP3    H246010   5.352   2.855   6.069 -1.2926  0.0990 -1.3969
 8199TIP3   OH246011   4.796   0.665   1.894 -0.1821 -0.4439 -0.3774
 8199TIP3    H146012   4.765   0.588   1.943 -0.2860 -0.2832 -0.1857
 8199TIP3    H246013   4.739   0.736   1.925 -0.2590 -0.3447 -0.7482
 8200TIP3   OH246014   5.112   0.755  15.664 -0.0594 -0.1506  0.2479
 8200TIP3    H146015   5.163   0.690  15.616  0.0238  0.1598 -0.0908
 8200TIP3    H246016   5.022   0.723  15.660 -0.2317  0.4689 -1.1321
 8201TIP3   OH246017   0.552   2.018   1.444  0.1134 -0.2988 -0.1010
 8201TIP3    H146018   0.591   2.051   1.525  2.1790 -0.2498 -1.1010
 8201TIP3    H246019   0.597   1.935   1.428 -2.3066 -1.7531  0.3046
 8202TIP3   OH246020   6.166   0.526   2.726  0.1471  0.4814  0.5214
 8202TIP3    H146021   6.234   0.591   2.707 -0.4675  0.4812 -1.8920
 8202TIP3    H246022   6.089   0.558   2.678 -0.4587 -1.5120  0.1259
 8203TIP3   OH246023   2.165   0.689  12.730  0.5494 -0.4581  0.3785
 8203TIP3    H146024   2.199   0.654  12.812 -1.3564  1.4744  2.0353
 8203TIP3    H246025   2.071   0.674  12.734  0.1855  1.4109 -0.5748
 8204TIP3   OH246026   1.261   3.226  15.144 -0.1554 -0.2333  0.0149
 8204TIP3    H146027   1.247   3.138  15.109  0.0993 -0.7938  1.3158
 8204TIP3    H246028   1.173   3.259  15.162 -0.2416 -0.2822 -0.3095
 8205TIP3   OH246029   4.820   6.755  11.084  0.3332 -0.6011 -0.4573
 8205TIP3    H146030   4.893   6.792  11.133 -1.4591  1.9810  0.3341
 8205TIP3    H246031   4.759   6.724  11.150 -0.3605 -0.5740 -1.0701
 8206TIP3   OH246032   2.920   6.125  14.525  0.1308 -0.4144  0.0073
 8206TIP3    H146033   3.002   6.152  14.567 -0.3447 -0.5897  1.0519
 8206TIP3    H246034   2.868   6.089  14.596  0.1335 -2.6615 -1.1137
 8207TIP3   OH246035   0.668   1.271  13.031  0.1558 -0.1478 -0.0134
 8207TIP3    H146036   0.730   1.343  13.015 -0.2259 -0.3147 -2.4376
 8207TIP3    H246037   0.722   1.201  13.067  1.4854 -0.4226 -2.4482
 8208TIP3   OH246038   3.626   4.868   4.474 -0.0146  0.6457  0.0655
 8208TIP3    H146039   3.673   4.789   4.449 -0.7062  0.3965 -0.4745
 8208TIP3    H246040   3.614   4.917   4.393  0.8939  1.5806  0.4832
 8209TIP3   OH246041   5.430   3.333   2.321  0.0398  0.2777  0.0855
 8209TIP3    H146042   5.500   3.283   2.363  0.1018  0.3651  0.0888
 8209TIP3    H246043   5.411   3.403   2.384 -1.0133 -0.5533  0.7081
 8210TIP3   OH246044   5.086   0.174  12.723 -0.2070  0.2378  0.0188
 8210TIP3    H146045   5.153   0.220  12.672 -0.4595  0.9899  0.3560
 8210TIP3    H246046   5.047   0.242  12.778 -0.4556 -0.4216  0.6619
 8211TIP3   OH246047   4.885   0.263   3.513 -0.6397 -0.0881 -0.0566
 8211TIP3    H146048   4.841   0.191   3.469  1.4643 -2.0204  0.8807
 8211TIP3    H246049   4.926   0.222   3.590  0.3114  2.1762  0.6787
 8212TIP3   OH246050   0.105   0.641   1.354  0.2419 -0.0731 -0.2833
 8212TIP3    H146051   0.045   0.622   1.426  0.1270 -0.2712 -0.4286
 8212TIP3    H246052   0.166   0.567   1.353  0.4780  0.1220 -0.1444
 8213TIP3   OH246053   4.371   5.423   1.501  0.1890  0.6611  0.7247
 8213TIP3    H146054   4.322   5.462   1.573  0.6552 -0.8145  1.8578
 8213TIP3    H246055   4.378   5.330   1.524  0.5718  0.2177 -1.0884
 8214TIP3   OH246056   2.849   2.065  15.194  0.0199 -0.4860 -0.4782
 8214TIP3    H146057   2.818   2.029  15.277  1.3391  0.7428  0.5505
 8214TIP3    H246058   2.936   2.100  15.213 -0.2751  1.1387 -2.0329
 8215TIP3   OH246059   2.160   3.029  13.049 -0.2536 -0.3263 -0.7164
 8215TIP3    H146060   2.109   3.105  13.023 -2.2543 -1.5415 -0.4807
 8215TIP3    H246061   2.102   2.954  13.033  0.2958 -1.5121  2.3947
 8216TIP3   OH246062   2.188   5.123  14.415  0.4563  0.1673  0.2386
 8216TIP3    H146063   2.222   5.186  14.352  1.5507 -0.5362  0.1130
 8216TIP3    H246064   2.233   5.041  14.394  0.7871 -0.0857  1.8797
 8217TIP3   OH246065   5.501   2.129   3.052 -0.4379  0.3839 -0.0114
 8217TIP3    H146066   5.541   2.054   3.098  0.7628  1.6296  1.0052
 8217TIP3    H246067   5.554   2.140   2.974 -0.6359  0.1644 -0.1788
 8218TIP3   OH246068   2.954   4.890  14.550  0.5560 -0.0736  0.0148
 8218TIP3    H146069   3.035   4.855  14.588  1.4355  0.7695 -1.0400
 8218TIP3    H246070   2.937   4.833  14.474  1.6061  1.2994 -1.2916
 8219TIP3   OH246071   2.693   1.383   0.192 -0.5258 -0.0056 -0.5644
 8219TIP3    H146072   2.732   1.318   0.133 -0.0643  0.8223 -1.1817
 8219TIP3    H246073   2.663   1.453   0.134  0.3281  1.0182  0.2069
 8220TIP3   OH246074   6.299   6.111   2.108  0.4605 -0.2320 -0.6908
 8220TIP3    H146075   6.347   6.179   2.157  1.7165 -1.5708 -0.0327
 8220TIP3    H246076   6.212   6.111   2.148  1.0188 -0.2773  0.5512
 8221TIP3   OH246077   1.880   2.588  16.965 -0.2393 -0.3042 -0.3665
 8221TIP3    H146078   1.932   2.668  16.962 -0.5110 -0.0994  0.2318
 8221TIP3    H246079   1.930   2.524  16.915 -0.0527  0.2585 -0.9037
 8222TIP3   OH246080   3.622   0.528   1.542  0.0925  0.1674  0.4555
 8222TIP3    H146081   3.562   0.484   1.483 -0.2424 -0.1339  1.0189
 8222TIP3    H246082   3.657   0.459   1.598 -1.0762  0.7139  1.9045
 8223TIP3   OH246083   0.584   5.861  11.802  0.1495  0.0454 -0.6243
 8223TIP3    H146084   0.535   5.792  11.758  0.3747 -0.2242 -0.4566
 8223TIP3    H246085   0.517   5.920  11.838 -0.0521 -0.4641 -0.1681
 8224TIP3   OH246086   6.292   0.428   2.986  0.0399  0.6293 -0.2637
 8224TIP3    H146087   6.347   0.504   2.966 -1.0111  1.1391 -1.2744
 8224TIP3    H246088   6.286   0.427   3.082  2.2760  0.2191 -0.1101
 8225TIP3   OH246089   5.730   6.334   6.014  0.2463  0.1383  0.2875
 8225TIP3    H146090   5.648   6.315   6.061 -0.4281  0.5914 -0.6808
 8225TIP3    H246091   5.740   6.260   5.954 -0.4946  1.0512 -0.9736
 8226TIP3   OH246092   3.916   3.420  16.500  0.2549 -0.7860  0.4172
 8226TIP3    H146093   3.886   3.331  16.482  1.3369 -0.8438 -1.2108
 8226TIP3    H246094   3.996   3.430  16.448 -1.2946  2.0346 -1.5780
 8227TIP3   OH246095   4.466   0.896   4.441  0.4212 -0.1659 -0.0727
 8227TIP3    H146096   4.452   0.803   4.459 -0.5246  0.1467  0.8665
 8227TIP3    H246097   4.402   0.917   4.373 -0.2688  0.1018  0.6558
 8228TIP3   OH246098   5.085   3.487  16.724 -0.2339 -0.0611 -0.0513
 8228TIP3    H146099   5.080   3.441  16.808  4.4430 -1.9393 -0.6947
 8228TIP3    H246100   5.015   3.448  16.672 -1.1383 -1.1240  1.9050
 8229TIP3   OH246101   1.303   5.406   0.374 -0.9022  0.3896  0.3277
 8229TIP3    H146102   1.274   5.340   0.310  1.5240 -0.3915 -0.0064
 8229TIP3    H246103   1.288   5.365   0.459  2.3080 -1.4422  0.1041
 8230TIP3   OH246104   1.762   6.732   3.287 -0.0564 -0.3420  0.6051
 8230TIP3    H146105   1.855   6.737   3.263  0.2848  0.7441  2.0699
 8230TIP3    H246106   1.735   6.644   3.260  1.6578 -1.0112  0.9888
 8231TIP3   OH246107   0.996   3.934  14.268  0.2522 -0.3708 -0.3260
 8231TIP3    H146108   1.040   4.015  14.293  1.0862 -1.2118  1.0121
 8231TIP3    H246109   1.031   3.913  14.182 -0.2522  0.8781 -0.8452
 8232TIP3   OH246110   1.686   0.940  11.684 -0.4137  0.0991  0.0661
 8232TIP3    H146111   1.730   0.984  11.756  1.3649 -1.7659  0.1870
 8232TIP3    H246112   1.593   0.943  11.706  0.1165 -0.5669  2.5343
 8233TIP3   OH246113   1.024   5.318  12.473 -0.3405  0.3154  0.1742
 8233TIP3    H146114   0.933   5.289  12.479  0.3384 -1.7639  0.6489
 8233TIP3    H246115   1.053   5.289  12.387  0.3574 -0.4433  0.6661
 8234TIP3   OH246116   5.415   1.530  14.310 -0.2217 -0.0398 -0.5035
 8234TIP3    H146117   5.352   1.533  14.238 -0.2680 -0.4331 -0.4821
 8234TIP3    H246118   5.470   1.608  14.298 -1.3607  0.8656  0.0761
 8235TIP3   OH246119   2.953   2.261  13.784  0.1026 -0.2543  0.5374
 8235TIP3    H146120   2.877   2.207  13.761 -1.6940  0.8296  3.6424
 8235TIP3    H246121   2.962   2.252  13.879  2.7277  1.1308  0.4739
 8236TIP3   OH246122   1.937   4.322  12.211 -0.7530 -0.0020  0.0531
 8236TIP3    H146123   1.981   4.246  12.248  0.0280  1.1344  1.4978
 8236TIP3    H246124   1.855   4.329  12.261 -1.6439 -0.9088 -1.2551
 8237TIP3   OH246125   4.241   6.766  12.947  0.1118 -0.2132  0.6559
 8237TIP3    H146126   4.191   6.827  13.001  0.1409  0.8666 -0.4936
 8237TIP3    H246127   4.313   6.737  13.003  0.7804  1.7489  0.8513
 8238TIP3   OH246128   2.930   6.555   5.705  0.0844 -0.0526 -0.3065
 8238TIP3    H146129   3.018   6.552   5.743 -0.4486  0.6157  1.0059
 8238TIP3    H246130   2.879   6.492   5.756 -0.4571  0.3220 -0.3766
 8239TIP3   OH246131   0.769   0.252   1.814  0.0483  0.1904 -0.0101
 8239TIP3    H146132   0.716   0.226   1.738 -1.2802 -0.4571  1.1162
 8239TIP3    H246133   0.756   0.181   1.878  0.1741  1.3239  1.2877
 8240TIP3   OH246134   5.884   4.717   0.974 -0.0871 -0.1724 -0.0783
 8240TIP3    H146135   5.853   4.803   0.945 -2.3438  0.2993  3.4215
 8240TIP3    H246136   5.974   4.732   1.002 -0.3360  0.9802  0.1366
 8241TIP3   OH246137   1.405   0.932   1.868 -0.1866 -0.1748  0.5033
 8241TIP3    H146138   1.365   0.875   1.802 -0.3394  1.7006 -1.0640
 8241TIP3    H246139   1.331   0.969   1.915 -0.1190 -0.6026  0.9440
 8242TIP3   OH246140   6.444   0.353   0.627  0.2717 -0.5783  0.4162
 8242TIP3    H146141   6.420   0.392   0.543 -0.5441 -1.1223  0.3915
 8242TIP3    H246142   6.530   0.389   0.646 -0.6366  1.5552  0.6054
 8243TIP3   OH246143   6.160   3.938  13.437  0.0832  0.2236  0.4226
 8243TIP3    H146144   6.134   3.906  13.524  1.8740  0.0437  0.9000
 8243TIP3    H246145   6.196   3.862  13.393 -1.6675  0.0953 -0.8562
 8244TIP3   OH246146   3.497   2.862   0.136 -0.4791  0.0798 -0.5898
 8244TIP3    H146147   3.507   2.796   0.068  0.2950 -0.7988  0.3526
 8244TIP3    H246148   3.511   2.814   0.218  2.0571  1.7698  0.0341
 8245TIP3   OH246149   0.068   3.049  10.871 -0.0930 -0.5612  0.4788
 8245TIP3    H146150   0.095   2.970  10.822 -1.3981 -0.9647  0.4028
 8245TIP3    H246151  -0.021   3.066  10.841 -0.7667 -0.5751  2.4456
 8246TIP3   OH246152   5.354   5.459   0.723 -0.6281 -0.1892 -0.4904
 8246TIP3    H146153   5.314   5.490   0.804  1.5656 -1.1290  0.9850
 8246TIP3    H246154   5.362   5.364   0.735  0.1648 -0.2726 -1.6138
 8247TIP3   OH246155   3.088   4.304  14.812 -0.0830  0.0699 -0.7349
 8247TIP3    H146156   3.065   4.211  14.811  0.9570 -0.1906 -1.6874
 8247TIP3    H246157   3.100   4.327  14.720  1.4855  0.6635 -0.4073
 8248TIP3   OH246158   6.359   5.336  12.356 -0.1252 -0.0209  0.4298
 8248TIP3    H146159   6.396   5.340  12.268 -3.0314  0.6369 -0.8158
 8248TIP3    H246160   6.355   5.242  12.375 -1.0127 -0.2585 -0.8421
 8249TIP3   OH246161   4.409   2.617  14.657 -0.9641  0.2729 -0.1494
 8249TIP3    H146162   4.417   2.712  14.657 -0.9465  0.2723 -0.2938
 8249TIP3    H246163   4.346   2.599  14.587 -0.4552  0.1349 -0.5699
 8250TIP3   OH246164   2.378   2.172   3.725 -0.6136  0.1276  0.0904
 8250TIP3    H146165   2.470   2.181   3.698 -0.6840 -0.1303 -0.2445
 8250TIP3    H246166   2.355   2.257   3.761  0.1551 -0.1997  1.3979
 8251TIP3   OH246167   0.889   0.799  12.880 -0.0407  0.0499 -0.0420
 8251TIP3    H146168   0.904   0.707  12.858  2.1063  0.6787 -1.4189
 8251TIP3    H246169   0.856   0.798  12.969 -0.0387 -2.0605 -0.0454
 8252TIP3   OH246170   2.337   0.398  13.963  0.5095 -0.2603 -0.3765
 8252TIP3    H146171   2.409   0.434  14.015  1.4442 -1.0292 -1.1158
 8252TIP3    H246172   2.283   0.350  14.026  0.6023  0.3869  0.1939
 8253TIP3   OH246173   0.586   3.640   2.938 -0.2610  0.3154  0.0427
 8253TIP3    H146174   0.572   3.724   2.982 -0.8264  0.5345 -0.5416
 8253TIP3    H246175   0.632   3.586   3.003 -0.4694  0.8624  0.6508
 8254TIP3   OH246176   5.833   3.372  15.466 -0.0995 -0.1715  0.0236
 8254TIP3    H146177   5.874   3.293  15.500 -0.1917  0.3055  1.2963
 8254TIP3    H246178   5.857   3.375  15.373 -0.2761 -1.7902 -0.0801
 8255TIP3   OH246179   1.497   3.922  15.407  0.0918  0.2703 -0.2281
 8255TIP3    H146180   1.427   3.966  15.455  0.7532  2.0061 -0.7870
 8255TIP3    H246181   1.463   3.912  15.319 -0.2538 -0.8099  0.0316
 8256TIP3   OH246182   0.960   1.418  14.638  0.2363 -0.6005 -0.1546
 8256TIP3    H146183   1.014   1.497  14.633  0.6567 -0.9724 -1.6178
 8256TIP3    H246184   0.960   1.382  14.549 -2.5186 -0.5539 -0.2189
 8257TIP3   OH246185   3.669   4.859   0.694  0.5941 -0.1862  0.0001
 8257TIP3    H146186   3.578   4.833   0.675  0.0120  0.7309  1.5132
 8257TIP3    H246187   3.705   4.785   0.743  0.1015  0.2432  1.0063
 8258TIP3   OH246188   5.936   3.920   3.355  0.4414 -0.1375 -0.2758
 8258TIP3    H146189   5.909   4.011   3.368  0.5356  0.1510 -1.9818
 8258TIP3    H246190   5.953   3.887   3.443  1.2915  1.7662  0.2903
 8259TIP3   OH246191   3.277   0.077   6.290 -0.1281  0.1490 -0.2398
 8259TIP3    H146192   3.359   0.046   6.329 -0.1206 -0.4557 -0.7346
 8259TIP3    H246193   3.233  -0.002   6.261 -0.2263  0.5815 -1.2805
 8260TIP3   OH246194   3.160   6.579  11.514 -0.7529  0.0382 -0.1532
 8260TIP3    H146195   3.133   6.496  11.474  1.0113 -0.6189 -0.0516
 8260TIP3    H246196   3.238   6.605  11.464 -0.0823  0.5780  1.1442
 8261TIP3   OH246197   6.183   5.284  17.222 -0.2741 -0.1134  0.0797
 8261TIP3    H146198   6.231   5.359  17.254 -1.3361 -0.4090  2.4287
 8261TIP3    H246199   6.137   5.316  17.144  0.6807  1.1578  0.0316
 8262TIP3   OH246200   1.216   0.083   4.065 -0.1097  0.0534  0.0800
 8262TIP3    H146201   1.147   0.095   4.000  0.4220  0.2771 -0.4524
 8262TIP3    H246202   1.194   0.001   4.109 -0.9051  0.3056  0.1556
 8263TIP3   OH246203   1.547   2.860  12.275 -0.1779 -0.2756 -0.2787
 8263TIP3    H146204   1.572   2.768  12.276 -0.3770 -0.3266  0.0433
 8263TIP3    H246205   1.566   2.891  12.364  0.9523  0.2769 -0.6991
 8264TIP3   OH246206   0.315   5.689  15.561 -0.5331  0.3451 -0.2620
 8264TIP3    H146207   0.247   5.720  15.621 -0.6452  1.8927 -1.1718
 8264TIP3    H246208   0.373   5.636  15.616 -3.0078 -1.8441  0.3170
 8265TIP3   OH246209   4.964   5.265  12.269 -0.2855 -0.1800  0.2557
 8265TIP3    H146210   5.003   5.182  12.243 -0.3968  0.4613 -2.0692
 8265TIP3    H246211   5.038   5.325  12.279 -0.3047 -0.2265  0.7013
 8266TIP3   OH246212   2.576   5.560  15.551 -0.2119  0.0823  0.1946
 8266TIP3    H146213   2.548   5.501  15.622 -0.5614 -0.2334 -0.2003
 8266TIP3    H246214   2.575   5.504  15.473 -0.7884  0.6756 -0.2259
 8267TIP3   OH246215   5.766   0.372  16.983 -0.4520 -0.0709 -0.5861
 8267TIP3    H146216   5.768   0.465  17.004  1.2951 -0.3900  0.8247
 8267TIP3    H246217   5.809   0.365  16.898  0.6274  0.2916 -0.0809
 8268TIP3   OH246218   6.749   4.068  14.074 -0.2916 -0.0199  0.2984
 8268TIP3    H146219   6.694   4.039  14.147  0.2555 -1.5205  0.1389
 8268TIP3    H246220   6.838   4.062  14.107 -0.1322  0.8885  0.0415
 8269TIP3   OH246221   6.107   4.339  14.725  0.4533  0.1255  0.5762
 8269TIP3    H146222   6.176   4.274  14.728  1.4807  1.1839  0.4359
 8269TIP3    H246223   6.048   4.309  14.656  1.0364 -0.5305  0.3619
 8270TIP3   OH246224   2.985   6.569   3.464 -0.2855 -0.5822  0.3120
 8270TIP3    H146225   3.030   6.521   3.395  3.5317  1.5715  1.1640
 8270TIP3    H246226   3.014   6.528   3.545 -0.1583  0.5861  0.8689
 8271TIP3   OH246227   4.891   0.699  15.924 -0.2912 -0.6103  0.5415
 8271TIP3    H146228   4.902   0.662  15.837  0.8843  2.4557 -0.6960
 8271TIP3    H246229   4.977   0.691  15.965  0.1123  1.0316  0.0858
 8272TIP3   OH246230   3.767   5.659   5.356  0.0274  0.0969 -0.6086
 8272TIP3    H146231   3.685   5.685   5.314  0.3416  1.3255 -0.5009
 8272TIP3    H246232   3.740   5.599   5.425 -0.9824  1.8581  0.5792
 8273TIP3   OH246233   1.694   1.138   2.828  0.5071 -0.3976 -0.2168
 8273TIP3    H146234   1.700   1.201   2.900  0.6271  0.9003 -1.3284
 8273TIP3    H246235   1.766   1.077   2.842  1.0809  0.3906  0.2624
 8274TIP3   OH246236   3.480   4.465  13.782  0.3811 -0.2723 -0.0043
 8274TIP3    H146237   3.522   4.499  13.861 -1.3089  0.9259  0.4129
 8274TIP3    H246238   3.551   4.424  13.732  1.8157  0.7283  1.1846
 8275TIP3   OH246239   6.385   0.199   0.089  0.2118 -0.0440  0.7820
 8275TIP3    H146240   6.382   0.175   0.181 -0.7939  2.4751  1.4522
 8275TIP3    H246241   6.298   0.177   0.055  0.5861 -0.9861  0.4041
 8276TIP3   OH246242   6.680   1.709   4.624 -1.0052  0.0442  0.1655
 8276TIP3    H146243   6.696   1.625   4.582 -1.1280 -0.4160  1.0104
 8276TIP3    H246244   6.615   1.690   4.692 -1.0573  0.8283  0.3478
 8277TIP3   OH246245   0.924   0.782   0.957 -0.2691 -0.4785  0.7147
 8277TIP3    H146246   0.980   0.844   0.909  2.2503 -3.3351 -0.1961
 8277TIP3    H246247   0.907   0.825   1.041  1.7894  1.2567  0.2893
 8278TIP3   OH246248   4.582   0.502   1.439  0.2090 -0.4784 -0.0870
 8278TIP3    H146249   4.653   0.509   1.503  0.5557  2.2376 -0.6762
 8278TIP3    H246250   4.626   0.513   1.354 -0.5064 -2.0056 -0.6646
 8279TIP3   OH246251   0.934   1.606  12.792  0.0162 -0.4158 -0.3259
 8279TIP3    H146252   0.957   1.656  12.871  1.1170 -0.4820 -0.5945
 8279TIP3    H246253   0.941   1.669  12.720 -3.0167  0.1930 -0.1798
 8280TIP3   OH246254   4.990   0.058  12.101  0.0190  0.4174  0.1308
 8280TIP3    H146255   5.025  -0.012  12.156 -4.0689 -0.1417  2.1537
 8280TIP3    H246256   5.068   0.096  12.060  2.5542 -3.8420  0.6311
 8281TIP3   OH246257   0.473   1.394  14.102  0.7100 -0.2790  0.4268
 8281TIP3    H146258   0.447   1.477  14.142 -1.0619 -0.8741  0.5837
 8281TIP3    H246259   0.499   1.417  14.013 -1.5356  0.2409 -0.1357
 8282TIP3   OH246260   4.650   4.649  14.942  0.4066 -0.4426 -0.0689
 8282TIP3    H146261   4.565   4.691  14.951 -0.1555 -1.5453 -0.1751
 8282TIP3    H246262   4.657   4.628  14.848  2.2807  2.7062 -0.7219
 8283TIP3   OH246263   5.728   4.634  10.603 -0.2978  0.2614 -0.0861
 8283TIP3    H146264   5.636   4.647  10.625 -0.2053 -0.7525  0.9608
 8283TIP3    H246265   5.748   4.704  10.540 -1.1169  1.9746  1.5206
 8284TIP3   OH246266   1.277   0.479  14.901  0.4632  0.2988 -0.6053
 8284TIP3    H146267   1.338   0.405  14.900 -0.6950 -0.8545  3.0475
 8284TIP3    H246268   1.284   0.515  14.989 -1.7452  2.1926 -1.1393
 8285TIP3   OH246269   1.797   1.829   4.896 -0.1141 -0.4512 -0.0194
 8285TIP3    H146270   1.881   1.875   4.900 -0.2624  0.0074 -1.6482
 8285TIP3    H246271   1.817   1.745   4.855 -0.1799 -1.0559  1.1590
 8286TIP3   OH246272   0.526   4.453   2.035  0.0376 -0.4395  0.2565
 8286TIP3    H146273   0.539   4.495   1.949  1.7838 -0.6802  0.3905
 8286TIP3    H246274   0.604   4.399   2.047 -0.4849 -0.8668  1.7409
 8287TIP3   OH246275   3.961   3.950   0.560 -0.1954  0.1268 -0.0020
 8287TIP3    H146276   3.942   4.042   0.541  0.2983 -0.1234 -1.7967
 8287TIP3    H246277   4.037   3.929   0.506 -0.2109 -1.2931  0.5017
 8288TIP3   OH246278   3.951   5.276  16.082 -0.4246 -0.5860 -0.0468
 8288TIP3    H146279   3.868   5.325  16.078  1.2619  2.4210  0.1203
 8288TIP3    H246280   4.004   5.325  16.145  1.3178 -2.7867  0.2609
 8289TIP3   OH246281   3.981   6.167   5.123 -0.3671 -0.4396 -0.0665
 8289TIP3    H146282   3.971   6.182   5.029  0.5849 -1.1457 -0.2823
 8289TIP3    H246283   3.970   6.253   5.162  1.7359  0.2746 -1.0197
 8290TIP3   OH246284   6.649   2.814  11.882 -0.0356 -0.8021  0.0844
 8290TIP3    H146285   6.603   2.867  11.947 -2.9665 -0.5131 -2.1512
 8290TIP3    H246286   6.676   2.735  11.930 -0.0516  0.4471  2.2000
 8291TIP3   OH246287   3.793   2.685   5.773  0.2482 -0.6709 -0.1223
 8291TIP3    H146288   3.828   2.704   5.860  0.6104 -2.9615  0.2761
 8291TIP3    H246289   3.747   2.601   5.784  1.0312 -1.4309 -2.3054
 8292TIP3   OH246290   1.610   1.720   3.956 -0.4125  0.0889  0.0992
 8292TIP3    H146291   1.635   1.649   4.015 -0.1004  1.3436  1.5328
 8292TIP3    H246292   1.515   1.729   3.969 -0.7343 -1.1365 -1.3188
 8293TIP3   OH246293   3.537   1.785  12.990  0.0751  0.1411  0.4317
 8293TIP3    H146294   3.562   1.782  12.898  0.4584  0.2291  0.5327
 8293TIP3    H246295   3.537   1.878  13.011  0.2167  0.1055  0.5835
 8294TIP3   OH246296   4.931   5.225   2.160  0.4793 -0.5345 -0.4053
 8294TIP3    H146297   4.901   5.160   2.223 -4.6094  0.4761 -1.5747
 8294TIP3    H246298   4.944   5.304   2.213 -0.3703 -0.6015 -0.0914
 8295TIP3   OH246299   2.449   4.295  11.238 -0.0255 -0.1338 -0.0355
 8295TIP3    H146300   2.483   4.371  11.284  0.9543 -2.5114  3.3939
 8295TIP3    H246301   2.363   4.322  11.206 -0.0931  2.0875  1.9612
 8296TIP3   OH246302   3.757   4.476   2.718 -0.5715  0.5165  0.1611
 8296TIP3    H146303   3.802   4.391   2.717 -1.8545 -0.1672 -1.3458
 8296TIP3    H246304   3.760   4.503   2.810  2.2616  0.1672  0.2349
 8297TIP3   OH246305   4.192   2.281  15.447 -0.1628 -0.0686  0.2067
 8297TIP3    H146306   4.200   2.188  15.426 -0.2963 -0.2324  0.8473
 8297TIP3    H246307   4.127   2.315  15.386  1.5166  0.0990 -1.5151
 8298TIP3   OH246308   5.120   0.393   4.799 -0.0087 -0.5581  0.0167
 8298TIP3    H146309   5.090   0.380   4.889  1.1152  0.6860  0.5821
 8298TIP3    H246310   5.142   0.305   4.768  1.2864 -0.8178  1.5796
 8299TIP3   OH246311   1.926   6.769   5.190 -0.0539  0.2749  0.0048
 8299TIP3    H146312   1.880   6.845   5.156  1.2477  0.9303 -0.3184
 8299TIP3    H246313   1.900   6.764   5.282 -0.7233  0.6658 -0.1651
 8300TIP3   OH246314   5.680   0.740  14.365  0.0153  0.0076 -0.9979
 8300TIP3    H146315   5.762   0.710  14.404 -0.2427 -0.2848 -0.6827
 8300TIP3    H246316   5.632   0.780  14.438  0.5688  1.6343 -1.5088
 8301TIP3   OH246317   4.707   2.482   2.834 -0.2150 -0.4106 -0.0936
 8301TIP3    H146318   4.768   2.409   2.823 -0.6358 -0.7230 -0.3496
 8301TIP3    H246319   4.705   2.496   2.929 -0.7766 -1.2827  0.0325
 8302TIP3   OH246320   2.609   0.105   3.727 -0.0216  0.7378 -0.3164
 8302TIP3    H146321   2.524   0.065   3.705  0.9096 -0.7466 -1.2775
 8302TIP3    H246322   2.595   0.144   3.814 -1.1977 -0.9992  0.3000
 8303TIP3   OH246323   2.471   3.362   3.771  0.5397  0.8625  0.3436
 8303TIP3    H146324   2.446   3.381   3.862 -1.7669  2.3688 -0.5742
 8303TIP3    H246325   2.461   3.268   3.762  0.2721  0.7756  1.4889
 8304TIP3   OH246326   6.513   5.596   3.461  0.1448 -0.2161 -0.3271
 8304TIP3    H146327   6.602   5.584   3.428  0.2265  0.6894 -0.4637
 8304TIP3    H246328   6.525   5.639   3.546 -0.1442 -0.5758 -0.1016
 8305TIP3   OH246329   0.359   0.278  16.041  0.1082  0.2228 -0.1578
 8305TIP3    H146330   0.357   0.348  16.107  1.1001  0.2075 -0.1130
 8305TIP3    H246331   0.277   0.230  16.056  0.4051  0.1016  1.1927
 8306TIP3   OH246332   5.185   6.015  15.864  0.2788  0.2336 -0.0724
 8306TIP3    H146333   5.152   6.104  15.869 -1.5781 -0.2502 -2.5358
 8306TIP3    H246334   5.109   5.960  15.884  1.9453 -0.8357  3.8230
 8307TIP3   OH246335   0.317   3.675   0.114  0.0003  0.7631  0.0898
 8307TIP3    H146336   0.388   3.712   0.167  0.3981  1.5033 -0.9518
 8307TIP3    H246337   0.239   3.720   0.144  0.1729  0.9372  0.2823
 8308TIP3   OH246338   3.518   6.781   4.027  0.3195  0.1705 -0.5362
 8308TIP3    H146339   3.597   6.737   3.996  0.8652  0.1462  0.8550
 8308TIP3    H246340   3.538   6.875   4.017  1.7780  0.2680  2.7067
 8309TIP3   OH246341   5.418   2.744   6.317 -0.6200  0.0743 -0.8382
 8309TIP3    H146342   5.502   2.781   6.289  0.0120 -0.0399  0.8575
 8309TIP3    H246343   5.435   2.650   6.325 -0.0629  0.3902  2.3058
 8310TIP3   OH246344   5.857   5.345  16.418  0.1339 -0.4238  0.1035
 8310TIP3    H146345   5.866   5.436  16.389 -0.2965 -0.0911  0.9855
 8310TIP3    H246346   5.947   5.312  16.421  0.1919 -0.4355 -1.4692
 8311TIP3   OH246347   0.676   6.585   5.618  0.0454  0.2080 -0.4461
 8311TIP3    H146348   0.614   6.654   5.642 -0.3999  0.1693 -1.4577
 8311TIP3    H246349   0.736   6.580   5.692 -0.8082  0.6557  0.2933
 8312TIP3   OH246350   6.759   3.832  13.742 -0.1791  0.1312  0.0092
 8312TIP3    H146351   6.710   3.783  13.809 -1.7010 -0.2957 -1.3955
 8312TIP3    H246352   6.843   3.850  13.784 -1.3504  0.4811  2.3090
 8313TIP3   OH246353   0.905   3.028   4.024 -0.6194  0.2464 -0.0764
 8313TIP3    H146354   0.869   2.972   3.955 -1.6553  0.4916  0.2554
 8313TIP3    H246355   0.831   3.044   4.083 -0.1337  1.3013  0.2564
 8314TIP3   OH246356   0.275   5.242   6.422  0.5245 -0.0270  0.3287
 8314TIP3    H146357   0.274   5.338   6.415  1.3072 -0.1525 -2.0209
 8314TIP3    H246358   0.204   5.213   6.365  0.1079 -0.8262  1.2605
 8315TIP3   OH246359   6.403   0.432   5.878  0.1346 -0.2537  0.7918
 8315TIP3    H146360   6.457   0.408   5.953  1.2742 -1.8076 -0.4913
 8315TIP3    H246361   6.397   0.528   5.883  2.2165 -0.1270  1.5113
 8316TIP3   OH246362   6.030   5.669   1.034  0.1973  0.6470 -0.1220
 8316TIP3    H146363   5.941   5.688   1.006 -0.0272 -0.2573 -0.0503
 8316TIP3    H246364   6.024   5.661   1.129  0.5627  1.6434 -0.0072
 8317TIP3   OH246365   3.825   5.897   5.047 -0.1673  0.2035 -0.0690
 8317TIP3    H146366   3.887   5.825   5.061  0.3128  0.2950 -1.6434
 8317TIP3    H246367   3.859   5.968   5.102 -1.1128 -1.0154  2.1309
 8318TIP3   OH246368   4.764   5.477   4.650 -0.4712 -0.4152  0.1609
 8318TIP3    H146369   4.711   5.443   4.577 -2.2923  0.8616  0.8523
 8318TIP3    H246370   4.701   5.490   4.721  1.1977 -1.1630  1.8235
 8319TIP3   OH246371   4.165   5.280   1.613 -0.3679  0.6070  0.5454
 8319TIP3    H146372   4.107   5.271   1.537 -0.4426 -1.7459  0.8424
 8319TIP3    H246373   4.209   5.195   1.620  0.0431  0.9705  2.8155
 8320TIP3   OH246374   6.130   5.278  14.973  0.3707 -0.0932 -0.5893
 8320TIP3    H146375   6.153   5.238  14.889 -1.6561 -2.2216 -0.1849
 8320TIP3    H246376   6.035   5.285  14.971  0.4831  2.0612  0.5818
 8321TIP3   OH246377   3.751   2.783  13.717  0.4395  0.4047  0.0871
 8321TIP3    H146378   3.674   2.768  13.661 -0.3785  2.5070  0.6186
 8321TIP3    H246379   3.803   2.703  13.707  0.2164  0.6144 -3.5211
 8322TIP3   OH246380   3.798   0.547  12.256 -0.0842  0.3835 -0.2695
 8322TIP3    H146381   3.817   0.634  12.221  0.0589  0.2832 -0.4423
 8322TIP3    H246382   3.800   0.489  12.179  2.0991 -0.1448  0.1505
 8323TIP3   OH246383   0.010   4.395   0.578  0.3160  0.1269 -0.0580
 8323TIP3    H146384  -0.054   4.464   0.589 -0.5878 -0.1482 -3.2051
 8323TIP3    H246385  -0.036   4.315   0.603  0.1220  0.1962 -0.1966
 8324TIP3   OH246386   3.216   3.310   0.625 -0.1981 -0.0426 -0.0168
 8324TIP3    H146387   3.133   3.282   0.665  0.0052 -0.7381 -0.0723
 8324TIP3    H246388   3.237   3.392   0.668  0.6121 -1.3353  2.1618
 8325TIP3   OH246389   4.079   1.696  11.838 -0.4498  0.3040 -0.2843
 8325TIP3    H146390   3.996   1.694  11.885 -0.6976  1.0155 -0.6877
 8325TIP3    H246391   4.138   1.643  11.892 -0.9934  0.3047  0.3187
 8326TIP3   OH246392   2.930   5.484   1.154  0.0119 -0.7547 -0.0212
 8326TIP3    H146393   2.895   5.418   1.214 -1.8415 -0.0343 -0.2803
 8326TIP3    H246394   3.006   5.442   1.114  0.9948 -1.4252  2.4552
 8327TIP3   OH246395   0.485   6.714   3.234  0.1618  0.3085  0.5818
 8327TIP3    H146396   0.422   6.735   3.165  0.3527 -0.6160  0.1165
 8327TIP3    H246397   0.432   6.681   3.306  0.1046 -0.5877  0.1445
 8328TIP3   OH246398   2.101   4.917   5.813 -0.0199  0.5684 -0.2504
 8328TIP3    H146399   2.129   5.008   5.812 -0.7147  0.7969  0.6245
 8328TIP3    H246400   2.135   4.882   5.895  0.5410 -0.0607 -0.7425
 8329TIP3   OH246401   2.539   1.136  12.646 -0.1750 -0.0856  0.3757
 8329TIP3    H146402   2.443   1.132  12.647 -0.1440 -1.0195  0.6974
 8329TIP3    H246403   2.561   1.165  12.557 -0.7697  0.5077  0.4239
 8330TIP3   OH246404   0.164   0.914  14.028 -0.1875  0.2869 -0.4992
 8330TIP3    H146405   0.216   0.983  13.988 -0.4369  0.6595 -0.1798
 8330TIP3    H246406   0.131   0.952  14.109  1.3419 -0.8485  0.6941
 8331TIP3   OH246407   6.207   1.293   2.400  0.2817  0.2238  0.1980
 8331TIP3    H146408   6.172   1.349   2.469  1.0086  0.1838  0.6024
 8331TIP3    H246409   6.275   1.241   2.443  0.5996  0.0570 -0.4972
 8332TIP3   OH246410   3.677   0.144  16.550  0.4504 -0.5779  0.5466
 8332TIP3    H146411   3.605   0.174  16.604 -1.9961 -0.7297 -2.4772
 8332TIP3    H246412   3.676   0.048  16.558  0.3055 -0.5772  0.5350
 8333TIP3   OH246413   2.724   5.037   6.352  0.5196 -0.1043  0.5673
 8333TIP3    H146414   2.645   5.069   6.395  0.8605  0.5639  0.7003
 8333TIP3    H246415   2.761   4.974   6.415  1.1657  1.0779  1.3830
 8334TIP3   OH246416   3.509   2.925   2.259  0.5934  0.4435 -0.1736
 8334TIP3    H146417   3.512   2.974   2.341  2.3376 -1.8079  1.1661
 8334TIP3    H246418   3.497   2.834   2.286  0.7056 -0.2728 -2.4507
 8335TIP3   OH246419   4.372   4.996   3.414 -0.3853 -0.5774 -0.1528
 8335TIP3    H146420   4.453   4.946   3.410 -0.5366 -0.7374 -1.4173
 8335TIP3    H246421   4.393   5.081   3.377 -1.0016 -0.9274 -1.3493
 8336TIP3   OH246422   4.632   1.620  16.633 -0.4455 -0.0772 -0.5603
 8336TIP3    H146423   4.654   1.541  16.683  0.3834  0.4548 -0.0714
 8336TIP3    H246424   4.698   1.623  16.563 -1.4982 -0.7282 -1.6053
 8337TIP3   OH246425   0.297   5.605   0.744  0.2909 -0.5670  0.0657
 8337TIP3    H146426   0.320   5.657   0.666 -0.0986 -0.2202  0.1794
 8337TIP3    H246427   0.289   5.515   0.712  1.3358 -0.6231 -0.0677
 8338TIP3   OH246428   4.247   6.562   2.933  0.8738 -0.2807  0.0689
 8338TIP3    H146429   4.232   6.472   2.902  0.1367  0.5468 -2.0431
 8338TIP3    H246430   4.330   6.587   2.893  2.2157 -0.7659  2.4499
 8339TIP3   OH246431   5.367   0.309  14.943 -0.5843 -0.0188  0.0723
 8339TIP3    H146432   5.343   0.376  15.007  0.2435  1.9854 -1.6410
 8339TIP3    H246433   5.307   0.324  14.869 -0.3537 -1.1288 -0.3464
 8340TIP3   OH246434   5.442   1.199   3.323 -0.3448 -0.3495 -0.8274
 8340TIP3    H146435   5.370   1.137   3.309  0.0946 -1.0462 -0.0940
 8340TIP3    H246436   5.517   1.143   3.343 -0.4736  0.4554  2.2168
 8341TIP3   OH246437   4.653   6.294   4.728  0.0757  0.7760 -0.0398
 8341TIP3    H146438   4.693   6.211   4.701  0.1461  1.2548 -1.4405
 8341TIP3    H246439   4.613   6.328   4.648 -0.5604  1.7555  0.6880
 8342TIP3   OH246440   0.559   6.100   5.960  0.1339 -0.1782  0.5148
 8342TIP3    H146441   0.538   6.157   6.034  0.1723  0.3466  0.1203
 8342TIP3    H246442   0.590   6.019   6.001 -0.5390 -0.1561  1.0813
 8343TIP3   OH246443   6.025   4.035   2.611  0.5625 -0.1393 -0.3592
 8343TIP3    H146444   6.049   3.982   2.535  1.5200 -0.2741  0.0276
 8343TIP3    H246445   6.071   3.994   2.685 -0.1992  0.1059  0.2635
 8344TIP3   OH246446   4.758   2.511  15.606  0.7996  0.0242 -0.0412
 8344TIP3    H146447   4.743   2.541  15.695  0.5784 -0.4539  0.0849
 8344TIP3    H246448   4.795   2.587  15.561 -0.3337  0.6864  0.1104
 8345TIP3   OH246449   4.790   4.194  16.001  0.4310  0.0477  0.2438
 8345TIP3    H146450   4.850   4.250  16.050  1.0737 -0.3815 -0.0434
 8345TIP3    H246451   4.845   4.151  15.936 -0.0955 -0.7735  0.3363
 8346TIP3   OH246452   6.076   6.352  11.820  0.2772 -0.1833  0.7509
 8346TIP3    H146453   6.061   6.446  11.824 -0.2330 -0.0090 -2.9994
 8346TIP3    H246454   6.147   6.336  11.882 -0.3116  2.5088  2.1606
 8347TIP3   OH246455   0.232   5.499   3.008  0.0968  0.0678 -0.4368
 8347TIP3    H146456   0.162   5.487   2.944  1.1170 -0.7455 -1.4014
 8347TIP3    H246457   0.191   5.550   3.078 -1.2025  0.4106 -1.4248
 8348TIP3   OH246458   1.399   5.510  14.312 -0.8044  0.7037  0.3457
 8348TIP3    H146459   1.322   5.512  14.255 -0.4110  2.8933 -0.1304
 8348TIP3    H246460   1.452   5.438  14.278 -2.4295 -0.5886  0.4401
 8349TIP3   OH246461   5.334   2.298   6.191 -0.1947  0.7487  0.4685
 8349TIP3    H146462   5.276   2.286   6.115 -0.7919 -1.1697  1.1859
 8349TIP3    H246463   5.383   2.216   6.197  1.0109  1.5036  1.2098
 8350TIP3   OH246464   3.157   1.021   2.008 -0.2287 -0.1994  0.1023
 8350TIP3    H146465   3.120   0.974   2.082 -1.9247  1.2057  0.1817
 8350TIP3    H246466   3.085   1.027   1.945  0.9463 -0.6454 -1.3287
 8351TIP3   OH246467   2.029   5.051   1.581  0.1808  0.0590 -0.2711
 8351TIP3    H146468   2.053   5.051   1.674  0.5957  1.2469 -0.3742
 8351TIP3    H246469   1.946   5.100   1.578  0.2146  0.0979 -0.5437
 8352TIP3   OH246470   5.293   1.547  11.429  0.1974 -0.0966 -0.4619
 8352TIP3    H146471   5.276   1.564  11.522 -1.1944  0.5364 -0.8249
 8352TIP3    H246472   5.253   1.621  11.383 -0.0812 -0.9670 -1.6413
 8353TIP3   OH246473   3.458   2.079  15.047 -0.8136  0.2081  0.2457
 8353TIP3    H146474   3.461   1.992  15.007 -0.9564 -0.1363  0.9629
 8353TIP3    H246475   3.476   2.140  14.975 -0.3636 -0.4344 -0.1911
 8354TIP3   OH246476   5.213   5.954   3.344 -1.0260 -0.3899  0.1968
 8354TIP3    H146477   5.287   5.939   3.403 -1.8800 -1.3736  1.0418
 8354TIP3    H246478   5.149   6.001   3.397 -0.1387  2.4805 -1.1835
 8355TIP3   OH246479   5.549   4.988  12.511  0.3612 -0.3342  0.4894
 8355TIP3    H146480   5.478   5.039  12.549  1.3692  2.4243 -1.2077
 8355TIP3    H246481   5.570   5.033  12.429  2.6021 -2.3588 -0.0983
 8356TIP3   OH246482   6.064   0.211  11.241 -0.2589  0.6918 -0.2711
 8356TIP3    H146483   6.050   0.117  11.239 -1.0304  0.7861  0.2537
 8356TIP3    H246484   6.159   0.221  11.252 -0.2262 -0.0245  0.1221
 8357TIP3   OH246485   4.612   0.612  16.499 -0.0240  0.4679  0.2753
 8357TIP3    H146486   4.634   0.662  16.420 -0.6734 -0.3520 -0.4467
 8357TIP3    H246487   4.662   0.654  16.569  1.8656  0.1850 -0.8597
 8358TIP3   OH246488   0.058   6.209  16.511  0.2013  0.1593  0.2289
 8358TIP3    H146489  -0.019   6.168  16.471  1.4230 -1.1137 -0.8348
 8358TIP3    H246490   0.042   6.303  16.500 -0.7095 -0.1135 -0.9270
 8359TIP3   OH246491   6.716   1.907   2.320  0.0623  0.1636 -0.0056
 8359TIP3    H146492   6.666   1.868   2.248 -0.4271  1.9531 -0.6578
 8359TIP3    H246493   6.653   1.920   2.390 -0.1166  1.2049 -0.3527
 8360TIP3   OH246494   3.294   0.601   2.701  0.5973  0.8695 -0.0978
 8360TIP3    H146495   3.309   0.507   2.688  0.7303  0.8294  0.3309
 8360TIP3    H246496   3.206   0.617   2.667  0.6601  0.6312 -0.3737
 8361TIP3   OH246497   2.654   3.734  13.135 -0.5307 -0.6288 -0.0430
 8361TIP3    H146498   2.718   3.739  13.064  0.9553 -0.8115  1.2738
 8361TIP3    H246499   2.704   3.708  13.212 -1.8318  1.1875  1.4692
 8362TIP3   OH246500   0.057   3.828  14.898  0.0181 -0.3429 -0.0430
 8362TIP3    H146501   0.003   3.908  14.896  3.4518  2.0306 -2.0897
 8362TIP3    H246502   0.071   3.806  14.806  2.8281 -0.7078  0.4410
 8363TIP3   OH246503   6.772   1.289  16.421  0.2027  0.1088 -0.3080
 8363TIP3    H146504   6.707   1.336  16.370  0.5405  0.6742 -0.2251
 8363TIP3    H246505   6.769   1.329  16.508  0.4220 -0.0960 -0.2052
 8364TIP3   OH246506   2.183   0.615  11.497  0.0814 -0.3180 -0.7827
 8364TIP3    H146507   2.231   0.691  11.530 -0.7402 -0.2431  0.2895
 8364TIP3    H246508   2.119   0.596  11.566  1.8754 -3.4757  0.0969
 8365TIP3   OH246509   2.914   4.723   2.870 -0.2016  0.4231 -0.1679
 8365TIP3    H146510   2.938   4.672   2.792  0.4953  1.7549 -0.8447
 8365TIP3    H246511   2.818   4.721   2.870 -0.1798 -1.8327  0.4745
 8366TIP3   OH246512   4.928   3.113   1.212  0.1122 -0.3506 -0.2430
 8366TIP3    H146513   4.927   3.050   1.284  1.2423 -1.3274 -1.0638
 8366TIP3    H246514   4.953   3.062   1.135 -1.7358  0.5288 -1.4862
 8367TIP3   OH246515   2.407   4.170   2.203 -0.4337  0.0873 -0.1477
 8367TIP3    H146516   2.467   4.245   2.197  0.3238 -0.6196 -1.5868
 8367TIP3    H246517   2.331   4.196   2.152 -1.4011  0.9982  1.7066
 8368TIP3   OH246518   0.360   5.686   3.490  0.0936  0.6820 -0.4359
 8368TIP3    H146519   0.373   5.755   3.426  1.1363  0.7956 -0.1136
 8368TIP3    H246520   0.426   5.702   3.557 -1.0443  0.6298  0.7347
 8369TIP3   OH246521   0.315   2.546  13.246 -0.3607 -0.2334  0.3454
 8369TIP3    H146522   0.288   2.527  13.336 -0.3793  0.1134  0.4181
 8369TIP3    H246523   0.325   2.642  13.244  0.7145 -0.3465  0.2736
 8370TIP3   OH246524   3.173   4.820  15.219 -0.0488 -0.1744 -0.4561
 8370TIP3    H146525   3.167   4.765  15.297 -0.6467 -1.3172 -1.2970
 8370TIP3    H246526   3.117   4.895  15.238  0.8622  0.2258  0.7421
 8371TIP3   OH246527   1.658   3.865   4.057  0.3426 -0.0120 -0.3771
 8371TIP3    H146528   1.601   3.788   4.064 -0.1366  0.3200 -0.5970
 8371TIP3    H246529   1.603   3.932   4.016  1.2141 -0.0090 -1.5633
 8372TIP3   OH246530   0.867   0.929  15.764 -0.0283  0.0843 -0.8818
 8372TIP3    H146531   0.864   0.956  15.672 -0.1148 -1.4117 -1.3354
 8372TIP3    H246532   0.777   0.938  15.795  0.0985  1.1039 -0.7753
 8373TIP3   OH246533   0.918   2.985   0.919  0.6171 -0.6946  0.2602
 8373TIP3    H146534   0.868   3.054   0.875 -0.4981 -2.6206 -1.6860
 8373TIP3    H246535   1.009   3.012   0.912  0.1602  0.8605  0.0943
 8374TIP3   OH246536   3.618   3.199  15.133  0.7867 -0.4229 -0.2856
 8374TIP3    H146537   3.630   3.116  15.179  1.1201 -0.3415 -0.2261
 8374TIP3    H246538   3.581   3.257  15.200 -1.7466 -1.1938 -0.9578
 8375TIP3   OH246539   1.664   6.566  12.447  0.2855 -0.0749 -0.1887
 8375TIP3    H146540   1.731   6.634  12.448  0.3946 -0.1681 -0.8305
 8375TIP3    H246541   1.713   6.484  12.446  0.1543 -0.1663  0.7439
 8376TIP3   OH246542   5.976   1.293   2.219 -0.6471  0.3257  0.3250
 8376TIP3    H146543   5.946   1.246   2.141  1.0780  1.4635 -1.0747
 8376TIP3    H246544   6.034   1.232   2.264 -0.3215  0.2522 -0.1927
 8377TIP3   OH246545   1.461   6.247   0.191  0.2695  0.7139 -0.3079
 8377TIP3    H146546   1.369   6.276   0.189  0.0302 -0.0516 -0.7657
 8377TIP3    H246547   1.459   6.160   0.151  0.9247 -0.0706  1.3164
 8378TIP3   OH246548   6.133   5.399   1.441  0.5513  0.6590  0.1465
 8378TIP3    H146549   6.159   5.309   1.421  0.7141  0.7581 -0.0947
 8378TIP3    H246550   6.044   5.391   1.474 -0.5014  0.6835 -2.5511
 8379TIP3   OH246551   0.685   0.276  10.749 -0.1177 -0.1259  0.0748
 8379TIP3    H146552   0.652   0.217  10.681  1.3980 -1.0170  0.0716
 8379TIP3    H246553   0.742   0.337  10.702  1.1505 -0.9136  0.5470
 8380TIP3   OH246554   3.391   5.815   3.073 -0.1439  0.0819  0.1939
 8380TIP3    H146555   3.432   5.826   3.159 -0.7547  0.4769  0.4428
 8380TIP3    H246556   3.460   5.779   3.018  0.7918  1.5353  0.3846
 8381TIP3   OH246557   0.379   0.878  13.425  0.3683 -0.2760 -0.3389
 8381TIP3    H146558   0.291   0.873  13.388  0.3079  1.8093 -0.5059
 8381TIP3    H246559   0.436   0.894  13.351  0.7226 -0.1242 -0.0352
 8382TIP3   OH246560   5.878   5.295   4.847  0.2288 -0.6999  0.1779
 8382TIP3    H146561   5.826   5.226   4.808  1.0261 -0.6176 -1.0392
 8382TIP3    H246562   5.876   5.366   4.783  0.5675 -0.1239  0.7971
 8383TIP3   OH246563   5.513   0.887  14.039 -0.0147 -0.4046  0.5040
 8383TIP3    H146564   5.547   0.959  13.986 -2.0379  0.3869  0.2176
 8383TIP3    H246565   5.579   0.819  14.033  1.1534  0.8000 -0.6120
 8384TIP3   OH246566   6.347   5.091   0.949  0.6488 -0.0576 -0.5250
 8384TIP3    H146567   6.357   5.011   0.897  0.9173  0.8359 -1.8996
 8384TIP3    H246568   6.397   5.075   1.029 -1.0646 -2.0696  0.1878
 8385TIP3   OH246569   5.718   4.620   4.057  0.2824 -0.2247  0.4656
 8385TIP3    H146570   5.758   4.578   4.134 -1.1390 -0.3708  1.1368
 8385TIP3    H246571   5.644   4.564   4.036  0.7282 -0.2448 -1.1034
 8386TIP3   OH246572   4.140   1.034   3.439  0.0555  0.1046  0.6868
 8386TIP3    H146573   4.100   0.947   3.431 -0.1607  0.1656  1.0985
 8386TIP3    H246574   4.067   1.093   3.455  0.3337  0.1807  1.7054
 8387TIP3   OH246575   6.277   6.786  11.414 -0.6647 -0.1818 -0.8021
 8387TIP3    H146576   6.217   6.756  11.346  0.5032 -2.1658 -0.9962
 8387TIP3    H246577   6.363   6.760  11.383  0.0445  0.4242  0.6303
 8388TIP3   OH246578   0.998   6.440   5.171 -0.2980  0.7594 -0.2113
 8388TIP3    H146579   0.981   6.514   5.229 -1.1069  0.2277  0.2365
 8388TIP3    H246580   0.972   6.471   5.085 -4.2570 -0.2294  0.5332
 8389TIP3   OH246581   2.137   1.163   1.593 -0.3641  0.1651  0.6383
 8389TIP3    H146582   2.054   1.141   1.551  0.4284 -0.4585 -0.6453
 8389TIP3    H246583   2.151   1.255   1.572  0.0780 -0.1684 -0.6018
 8390TIP3   OH246584   2.109   0.201  13.474  1.0108  0.4886  0.1816
 8390TIP3    H146585   2.168   0.147  13.526 -0.1981 -1.6440 -0.5800
 8390TIP3    H246586   2.160   0.227  13.397  1.2232 -0.6676 -0.0784
 8391TIP3   OH246587   5.846   1.457  16.598  0.1819 -0.3154  0.1456
 8391TIP3    H146588   5.845   1.438  16.691  0.5646 -0.2605  0.1615
 8391TIP3    H246589   5.931   1.425  16.567 -0.5226 -1.6260 -0.4632
 8392TIP3   OH246590   1.883   1.820  14.652 -0.2370 -0.0614  0.4592
 8392TIP3    H146591   1.860   1.727  14.658 -2.8275  0.4441 -0.8147
 8392TIP3    H246592   1.859   1.856  14.737  0.1214 -0.4228  0.7138
 8393TIP3   OH246593   2.318   0.313   0.128  0.5759  0.0674  0.0133
 8393TIP3    H146594   2.380   0.383   0.148 -0.2730  0.3219  1.8480
 8393TIP3    H246595   2.248   0.324   0.192 -0.4566 -1.3607 -0.8437
 8394TIP3   OH246596   6.213   2.577  12.394  0.5199 -0.1082 -0.1658
 8394TIP3    H146597   6.168   2.567  12.310  0.8690  2.0419 -0.6339
 8394TIP3    H246598   6.147   2.554  12.460 -0.5556  0.7523 -0.9394
 8395TIP3   OH246599   5.435   5.570   3.614 -0.0033  0.2391 -0.1207
 8395TIP3    H146600   5.457   5.502   3.550  0.7649 -0.6691  1.0922
 8395TIP3    H246601   5.519   5.603   3.645 -0.3694  1.0917  0.0050
 8396TIP3   OH246602   1.539   4.405  15.427 -0.1184  0.1961 -0.4143
 8396TIP3    H146603   1.470   4.467  15.452  0.8839  0.8770  0.6928
 8396TIP3    H246604   1.620   4.453  15.439  0.5706 -0.6292 -1.6498
 8397TIP3   OH246605   3.217   0.162   0.412  0.0006 -0.6411 -0.8968
 8397TIP3    H146606   3.123   0.151   0.397 -0.3539  0.8491  0.1823
 8397TIP3    H246607   3.240   0.243   0.368  0.1293  0.6439  1.4263
 8398TIP3   OH246608   3.745   4.891  12.735 -0.0501  0.6249  0.3908
 8398TIP3    H146609   3.687   4.857  12.668  1.9240  1.4512 -1.7930
 8398TIP3    H246610   3.788   4.813  12.772 -0.0566  0.2724 -0.3376
 8399TIP3   OH246611   3.522   4.886  13.533  0.2367  0.1390  0.0696
 8399TIP3    H146612   3.576   4.822  13.486  0.1091  0.6141 -0.7292
 8399TIP3    H246613   3.432   4.858  13.518  0.1517  0.9274 -0.8899
 8400TIP3   OH246614   2.395   4.844   1.608  0.0330  0.4508 -0.0815
 8400TIP3    H146615   2.333   4.915   1.588 -0.9800  1.3284  5.5373
 8400TIP3    H246616   2.341   4.765   1.605 -0.6278  0.8327  1.4293
 8401TIP3   OH246617   5.631   1.966   2.051  0.1105  0.2904  0.4416
 8401TIP3    H146618   5.624   1.921   1.967  5.1054 -1.4262  0.7689
 8401TIP3    H246619   5.681   2.046   2.031 -0.6059  0.9978  1.4084
 8402TIP3   OH246620   0.969   4.364  11.525  0.2007  0.4782 -0.9499
 8402TIP3    H146621   0.888   4.337  11.570 -0.4064  4.5431  0.6973
 8402TIP3    H246622   0.949   4.353  11.432 -3.3246  3.6286 -0.7407
 8403TIP3   OH246623   6.114   5.238   0.504 -0.0075  0.0464  0.3261
 8403TIP3    H146624   6.079   5.151   0.485 -1.8536  0.2024  2.7785
 8403TIP3    H246625   6.087   5.255   0.594  0.6427  3.0243 -0.0056
 8404TIP3   OH246626   1.978   5.730  16.109  0.3019  0.0611  0.6201
 8404TIP3    H146627   1.939   5.721  16.022  1.4081  2.5749 -0.1780
 8404TIP3    H246628   1.904   5.741  16.168 -0.3906 -0.2650 -0.1774
 8405TIP3   OH246629   0.292   2.497   4.185  0.2173  0.0952 -0.1729
 8405TIP3    H146630   0.270   2.453   4.104  0.3764  1.7671 -1.1548
 8405TIP3    H246631   0.208   2.521   4.224  0.1549  1.8558 -1.3192
 8406TIP3   OH246632   1.251   1.362  13.321  0.0880  0.0648 -0.2303
 8406TIP3    H146633   1.270   1.268  13.314  0.7318  0.3624 -3.0017
 8406TIP3    H246634   1.313   1.394  13.387 -0.4339 -1.5185  1.0685
 8407TIP3   OH246635   0.269   4.647   5.797  0.7428  0.2456 -0.1988
 8407TIP3    H146636   0.345   4.695   5.764 -0.9145  3.3483  0.2560
 8407TIP3    H246637   0.258   4.679   5.887 -1.5242  0.4494 -0.5012
 8408TIP3   OH246638   4.644   1.272   1.571  0.2733  0.1827 -0.3681
 8408TIP3    H146639   4.714   1.290   1.634 -0.3110 -1.3366  0.7524
 8408TIP3    H246640   4.672   1.193   1.526 -1.0948 -0.9457  0.7027
 8409TIP3   OH246641   3.264   0.936   4.077 -0.5806 -0.5393  0.2843
 8409TIP3    H146642   3.203   0.870   4.046 -0.3030 -1.4865  1.6717
 8409TIP3    H246643   3.271   1.000   4.006 -2.8105 -0.6603 -0.0571
 8410TIP3   OH246644   1.835   5.367  14.349 -0.3602 -0.3885  0.1387
 8410TIP3    H146645   1.760   5.366  14.290 -0.3121  0.7745  0.0502
 8410TIP3    H246646   1.800   5.344  14.434 -0.9490  0.8624  0.2420
 8411TIP3   OH246647   4.483   6.440   4.855  0.5133  0.1694  0.3892
 8411TIP3    H146648   4.538   6.517   4.870  1.2127 -0.5170  1.4072
 8411TIP3    H246649   4.537   6.382   4.803  0.4327 -0.1407  0.6520
 8412TIP3   OH246650   0.285   1.354   5.539 -0.4102  0.1498  0.3461
 8412TIP3    H146651   0.232   1.275   5.539 -0.9040  0.4762 -0.0223
 8412TIP3    H246652   0.323   1.357   5.627 -0.6654 -0.3099  0.4753
 8413TIP3   OH246653   0.808   2.528   0.823  0.0053 -0.2551  0.1435
 8413TIP3    H146654   0.755   2.485   0.891 -2.2993  0.2880 -1.2250
 8413TIP3    H246655   0.780   2.486   0.741  1.0923  0.6487 -0.7090
 8414TIP3   OH246656   3.872   6.002  16.652 -0.6903 -0.2887 -0.1253
 8414TIP3    H146657   3.786   5.960  16.658 -0.8982  0.2672  0.9815
 8414TIP3    H246658   3.922   5.962  16.723  0.5145 -1.8093 -1.7786
 8415TIP3   OH246659   2.550   2.536  15.412 -0.1654 -0.5401 -0.0418
 8415TIP3    H146660   2.538   2.607  15.350 -0.3932 -0.3319  0.2395
 8415TIP3    H246661   2.619   2.482  15.373  1.4542  0.9330  0.7170
 8416TIP3   OH246662   4.499   0.197  17.046  0.4245 -0.1768 -0.0882
 8416TIP3    H146663   4.517   0.104  17.038  0.5431 -0.2326  0.7753
 8416TIP3    H246664   4.579   0.234  17.083 -0.1225  0.0382  0.9065
 8417TIP3   OH246665   2.313   0.278  11.541  0.0922 -0.4724 -0.5308
 8417TIP3    H146666   2.258   0.356  11.539  0.9454  0.1159 -1.6142
 8417TIP3    H246667   2.401   0.310  11.557  0.2683 -1.3367  0.3057
 8418TIP3   OH246668   0.218   0.556   5.975  0.2436 -0.2436  0.6287
 8418TIP3    H146669   0.170   0.545   6.057  1.0536 -2.5693  0.8391
 8418TIP3    H246670   0.249   0.468   5.954  0.9921  0.5261 -1.6004
 8419TIP3   OH246671   3.173   4.078   0.357 -0.2234 -0.0520 -0.4438
 8419TIP3    H146672   3.080   4.082   0.376 -0.7149  1.3058 -2.9704
 8419TIP3    H246673   3.213   4.140   0.418 -1.1606  0.6102 -0.5114
 8420TIP3   OH246674   4.493   6.755  13.059  0.3295  0.2234 -0.9199
 8420TIP3    H146675   4.564   6.693  13.073 -1.5561 -1.6206  1.0949
 8420TIP3    H246676   4.524   6.837  13.098  0.6929 -1.0587  1.6092
 8421TIP3   OH246677   0.047   6.440   0.131  0.1841  0.4195  0.4368
 8421TIP3    H146678   0.120   6.438   0.069  0.1828  1.6790  0.3852
 8421TIP3    H246679  -0.017   6.380   0.094 -0.7797  2.8367 -2.0018
 8422TIP3   OH246680   6.138   2.063  12.741  0.4747 -0.5997  0.4100
 8422TIP3    H146681   6.115   2.130  12.805 -0.4570 -0.8452  0.3369
 8422TIP3    H246682   6.107   2.097  12.658  2.0410 -0.1002 -0.0020
 8423TIP3   OH246683   1.197   1.901  16.581  0.4200 -0.4435  0.2517
 8423TIP3    H146684   1.176   1.974  16.523  0.5992 -0.5559  0.0434
 8423TIP3    H246685   1.292   1.906  16.594  0.2278  0.2511  1.4443
 8424TIP3   OH246686   2.979   3.941   1.311  0.6307 -0.0264  0.1011
 8424TIP3    H146687   2.962   3.853   1.277  3.7033 -0.3629 -0.6464
 8424TIP3    H246688   3.003   3.992   1.234  0.2254  1.1376  0.7388
 8425TIP3   OH246689   6.615   1.697   2.121 -0.5389  0.5563 -0.0489
 8425TIP3    H146690   6.533   1.665   2.083 -0.5819 -0.5393  0.9403
 8425TIP3    H246691   6.683   1.650   2.072 -0.4539  2.0341 -1.3944
 8426TIP3   OH246692   1.449   3.904   5.249 -0.3108 -0.1970 -0.2815
 8426TIP3    H146693   1.422   3.899   5.157 -0.3421 -2.6973 -0.1916
 8426TIP3    H246694   1.507   3.828   5.260  1.8178  1.5776  1.1046
 8427TIP3   OH246695   1.017   4.858  13.946 -0.4064 -0.3234 -0.6059
 8427TIP3    H146696   0.925   4.832  13.948 -0.4568 -0.0859  0.4674
 8427TIP3    H246697   1.065   4.780  13.974 -0.4116  0.0592  0.5158
 8428TIP3   OH246698   5.813   0.094   5.894 -0.3953  0.2246 -0.2786
 8428TIP3    H146699   5.803  -0.001   5.900 -0.8553  0.2554 -0.6006
 8428TIP3    H246700   5.860   0.117   5.974  1.0410 -0.4575 -0.8809
 8429TIP3   OH246701   4.742   6.178  16.726  0.1024  0.0328  0.0904
 8429TIP3    H146702   4.782   6.235  16.661 -0.1190  0.4119  0.2896
 8429TIP3    H246703   4.816   6.142  16.775  0.1588  1.5023  1.1043
 8430TIP3   OH246704   0.269   0.529  15.869 -0.2673 -0.0381  1.1377
 8430TIP3    H146705   0.212   0.540  15.945 -2.8163 -0.5097 -0.6146
 8430TIP3    H246706   0.245   0.444  15.833 -0.2284  0.8296 -1.0626
 8431TIP3   OH246707   0.967   2.151   2.063 -0.1763 -0.6309 -0.2091
 8431TIP3    H146708   0.929   2.222   2.113 -0.1448  0.1483 -1.2616
 8431TIP3    H246709   0.985   2.082   2.127 -2.3759 -0.6102  0.4612
 8432TIP3   OH246710   6.780   0.462  12.158 -0.2228  0.5788  0.4427
 8432TIP3    H146711   6.851   0.464  12.095 -1.8343  0.6809 -1.4018
 8432TIP3    H246712   6.818   0.422  12.236  1.3849 -0.9779 -1.0970
 8433TIP3   OH246713   5.029   4.934   4.069  0.1589  0.2766  0.2706
 8433TIP3    H146714   4.948   4.949   4.020  0.1754  0.0036  0.1571
 8433TIP3    H246715   5.058   4.848   4.040 -1.4010 -1.1980  2.9211
 8434TIP3   OH246716   3.927   5.453   4.063 -0.5967 -0.2754 -0.3288
 8434TIP3    H146717   3.943   5.544   4.087  0.5742 -1.0003  1.7894
 8434TIP3    H246718   4.015   5.414   4.056 -1.0672 -1.1420 -1.6492
 8435TIP3   OH246719   5.099   1.337   3.165 -0.7405 -0.5028 -0.3999
 8435TIP3    H146720   5.127   1.357   3.255  0.5992  0.0549 -0.9167
 8435TIP3    H246721   5.145   1.256   3.144 -1.0827 -0.6512 -0.5773
 8436TIP3   OH246722   3.519   2.110   3.711 -0.7596  0.2874  0.0874
 8436TIP3    H146723   3.517   2.089   3.617  0.9050  0.2153  0.0524
 8436TIP3    H246724   3.455   2.181   3.721 -0.5630  0.6597 -1.2053
 8437TIP3   OH246725   2.958   3.603   1.416  0.1943 -0.4078  0.4081
 8437TIP3    H146726   3.026   3.599   1.483 -0.0160 -0.6395  0.6079
 8437TIP3    H246727   2.896   3.667   1.450 -0.2910 -1.0687  0.7919
 8438TIP3   OH246728   2.275   1.357   0.627  0.2493 -0.8869 -0.0440
 8438TIP3    H146729   2.267   1.371   0.532 -0.4171  1.9135  0.3711
 8438TIP3    H246730   2.369   1.361   0.644  0.2570  0.8473 -0.3356
 8439TIP3   OH246731   1.233   5.206   0.581  0.1190 -0.3472 -0.3378
 8439TIP3    H146732   1.239   5.114   0.604 -1.2970 -0.3154  0.1668
 8439TIP3    H246733   1.283   5.251   0.649  1.0978 -0.7505 -0.7696
 8440TIP3   OH246734   3.913   1.245   6.010  0.1766 -0.2661  0.0317
 8440TIP3    H146735   3.979   1.248   6.079 -0.8556 -0.3231  1.0534
 8440TIP3    H246736   3.945   1.179   5.949  1.5659  0.4411 -0.0287
 8441TIP3   OH246737   6.509   1.198   4.011  0.2112  0.4174  0.5500
 8441TIP3    H146738   6.475   1.155   3.933 -1.5101  0.1998  1.4108
 8441TIP3    H246739   6.601   1.171   4.014 -0.4713 -2.0578  0.2871
 8442TIP3   OH246740   3.932   5.664   1.693  0.1994 -0.3277  0.3312
 8442TIP3    H146741   3.947   5.602   1.764  1.4541  0.1629  0.5174
 8442TIP3    H246742   3.861   5.720   1.724  1.8515  0.9405  1.9343
 8443TIP3   OH246743   0.750   3.405  12.916  0.1127 -0.4889 -0.1556
 8443TIP3    H146744   0.779   3.452  12.838 -2.3319  0.7433 -0.3818
 8443TIP3    H246745   0.817   3.424  12.982  1.0383  0.3124 -1.3034
 8444TIP3   OH246746   3.004   0.596   4.400 -0.3528 -0.2404 -0.0893
 8444TIP3    H146747   3.050   0.576   4.319 -0.3277  2.1793 -0.7178
 8444TIP3    H246748   3.052   0.670   4.437 -0.7966 -0.8598  1.7824
 8445TIP3   OH246749   0.592   2.623   2.682 -0.6476  0.0826 -0.1641
 8445TIP3    H146750   0.576   2.529   2.681 -0.5155  0.0663 -1.1744
 8445TIP3    H246751   0.654   2.638   2.610  0.4889  0.7414  0.9392
 8446TIP3   OH246752   2.044   6.667  14.365 -0.0649 -0.3019  0.9383
 8446TIP3    H146753   2.118   6.606  14.370  0.4158  0.3074  1.3604
 8446TIP3    H246754   1.971   6.620  14.406  0.0560 -0.9459  0.4281
 8447TIP3   OH246755   3.317   6.344   3.933  0.4237  0.0922  0.4186
 8447TIP3    H146756   3.368   6.356   4.013  3.0205 -2.6981 -0.7108
 8447TIP3    H246757   3.315   6.431   3.893  3.8466  0.3957  0.7924
 8448TIP3   OH246758   1.020   5.729   1.203 -0.4100  0.1336  0.1949
 8448TIP3    H146759   1.017   5.669   1.278  0.5847 -0.1282  0.0326
 8448TIP3    H246760   0.929   5.757   1.191 -0.5432  0.3831  1.6645
 8449TIP3   OH246761   1.098   3.795  14.047  0.5384  0.5185  0.4573
 8449TIP3    H146762   1.052   3.714  14.026  0.1485  0.0489  2.9506
 8449TIP3    H246763   1.088   3.850  13.969 -1.3251 -0.8857 -0.3126
 8450TIP3   OH246764   5.272   5.342   3.490  0.0128  0.7838  0.5642
 8450TIP3    H146765   5.358   5.336   3.448  0.0348  2.0944  0.3922
 8450TIP3    H246766   5.210   5.334   3.418 -0.0490 -1.4595  0.8440
 8451TIP3   OH246767   4.337   2.574   4.067 -0.1619  0.0146  0.5163
 8451TIP3    H146768   4.256   2.610   4.031 -0.2511 -0.6141  0.0836
 8451TIP3    H246769   4.333   2.594   4.160 -1.0639 -0.4734  0.5888
 8452TIP3   OH246770   6.301   0.029  14.485 -0.0516  0.2268 -0.0634
 8452TIP3    H146771   6.250  -0.051  14.487 -2.8714  1.9630  0.0212
 8452TIP3    H246772   6.382   0.007  14.530 -0.6043 -2.6578 -0.4049
 8453TIP3   OH246773   0.084   6.337   4.476 -0.0291  0.0682 -0.0072
 8453TIP3    H146774  -0.004   6.355   4.509 -0.7782 -0.3526 -1.7324
 8453TIP3    H246775   0.141   6.390   4.531 -1.5009  1.5705  0.1141
 8454TIP3   OH246776   3.578   6.635  17.108 -0.3816 -0.1259 -0.1295
 8454TIP3    H146777   3.662   6.674  17.086 -0.8878  1.6800  1.0159
 8454TIP3    H246778   3.563   6.569  17.039  0.9938  0.9516 -1.4925
 8455TIP3   OH246779   5.598   0.978  16.060 -0.4014 -0.4924 -0.0820
 8455TIP3    H146780   5.582   0.998  16.152 -0.0553 -0.9657  0.0795
 8455TIP3    H246781   5.511   0.964  16.022 -0.5540 -0.1118  0.1294
 8456TIP3   OH246782   5.166   5.816  11.276  0.1099  0.0562 -0.7495
 8456TIP3    H146783   5.234   5.852  11.333  0.0972 -0.1692 -0.5879
 8456TIP3    H246784   5.087   5.864  11.300 -0.0183 -0.4353 -0.1674
 8457TIP3   OH246785   2.567   2.796   5.734 -0.5895  0.5638 -0.2686
 8457TIP3    H146786   2.473   2.805   5.744 -0.6583 -0.0160 -0.4125
 8457TIP3    H246787   2.586   2.706   5.759 -0.2994  0.1497 -1.9526
 8458TIP3   OH246788   1.541   3.241   3.785 -0.1780 -0.0346  0.6209
 8458TIP3    H146789   1.554   3.336   3.782 -0.4709  0.1484  3.6072
 8458TIP3    H246790   1.456   3.227   3.744 -0.3423  1.0329  0.5845
 8459TIP3   OH246791   4.604   4.107   6.716 -0.5516  0.0384 -0.9561
 8459TIP3    H146792   4.559   4.155   6.786  1.4893 -0.7365  0.9329
 8459TIP3    H246793   4.675   4.165   6.689  0.3142 -0.8001 -0.4979
 8460TIP3   OH246794   1.813   4.028  12.795  0.2273 -0.4134  0.1117
 8460TIP3    H146795   1.845   4.117  12.813  0.8457 -0.7908  0.8993
 8460TIP3    H246796   1.769   4.001  12.876 -0.3469 -0.6654 -0.2766
 8461TIP3   OH246797   3.741   5.358   0.717  0.4632 -0.0912  0.5664
 8461TIP3    H146798   3.722   5.450   0.698 -0.7285 -0.1650  1.4352
 8461TIP3    H246799   3.795   5.361   0.796 -3.1923 -0.3357  3.1937
 8462TIP3   OH246800   5.586   1.840   4.998 -0.3398  0.4029  0.2570
 8462TIP3    H146801   5.583   1.854   5.093  2.0239  2.7353  0.0270
 8462TIP3    H246802   5.574   1.926   4.960 -2.3819 -0.6747 -1.6334
 8463TIP3   OH246803   1.911   6.376  12.797  0.0811 -0.1631  0.2243
 8463TIP3    H146804   1.864   6.304  12.754  0.8031 -0.5868  0.1311
 8463TIP3    H246805   1.845   6.444  12.809 -1.2690 -1.7633  2.5132
 8464TIP3   OH246806   4.108   1.899  12.802  0.3385  0.4345  0.1683
 8464TIP3    H146807   4.025   1.864  12.835  1.9759 -3.0620  0.7724
 8464TIP3    H246808   4.171   1.828  12.813  2.4708  1.3823 -4.4081
 8465TIP3   OH246809   0.398   0.492   3.296 -0.1516 -0.1321  0.7222
 8465TIP3    H146810   0.342   0.569   3.298  1.6082  1.3370 -2.6766
 8465TIP3    H246811   0.487   0.525   3.305  0.5583 -1.8902  0.5170
 8466TIP3   OH246812   1.823   1.176   4.467  0.4519 -0.3731  0.4648
 8466TIP3    H146813   1.807   1.270   4.479  0.8779 -0.1111 -0.9587
 8466TIP3    H246814   1.735   1.138   4.457  0.2817 -0.1194  0.9822
 8467TIP3   OH246815   3.453   2.302   5.632 -0.1047 -0.0634  0.5322
 8467TIP3    H146816   3.405   2.220   5.640  0.9122 -0.6984  0.2072
 8467TIP3    H246817   3.470   2.312   5.538 -0.8358  0.8863  0.4842
 8468TIP3   OH246818   5.614   6.568   4.998 -0.0283  0.1967  0.5914
 8468TIP3    H146819   5.695   6.614   5.018  0.8339 -0.4033 -1.4083
 8468TIP3    H246820   5.581   6.612   4.919 -0.3088 -1.2226 -0.0896
 8469TIP3   OH246821   3.881   6.454  13.777 -0.1089  0.3871  0.2921
 8469TIP3    H146822   3.947   6.391  13.748 -0.7312  0.3087 -0.9965
 8469TIP3    H246823   3.824   6.404  13.835 -0.0586  0.0071  0.0178
 8470TIP3   OH246824   4.389   4.528  16.641 -0.5090  0.6185 -0.2385
 8470TIP3    H146825   4.345   4.560  16.562 -0.5192  1.8888  0.2594
 8470TIP3    H246826   4.384   4.602  16.702  3.4745  1.3632 -0.6098
 8471TIP3   OH246827   5.512   0.109   1.013  0.0226  0.5884  0.5177
 8471TIP3    H146828   5.521   0.016   1.033  2.0931  0.7036  0.2851
 8471TIP3    H246829   5.436   0.138   1.064 -2.2475 -1.7629 -1.4643
 8472TIP3   OH246830   1.940   4.401   1.242  0.4889 -0.6318 -0.5562
 8472TIP3    H146831   2.007   4.457   1.281 -1.0023  0.2936  0.7827
 8472TIP3    H246832   1.889   4.460   1.187 -0.1808 -0.9733 -0.3148
 8473TIP3   OH246833   2.024   4.914  17.001  0.3455 -0.2965 -0.4339
 8473TIP3    H146834   1.970   4.891  17.076 -1.4660  0.9058 -1.3266
 8473TIP3    H246835   1.992   4.859  16.930 -1.4924  2.1903 -1.6160
 8474TIP3   OH246836   1.574   4.196  12.574 -0.1941  0.3005  0.4397
 8474TIP3    H146837   1.631   4.119  12.564 -0.0502  0.5569 -0.7750
 8474TIP3    H246838   1.543   4.191  12.665 -0.7813 -1.6001  0.1606
 8475TIP3   OH246839   5.939   3.383  12.232  0.0016  0.3609 -0.2384
 8475TIP3    H146840   5.916   3.394  12.325  0.3627 -1.3584  0.0812
 8475TIP3    H246841   6.034   3.400  12.229  0.3806 -1.5640  0.0919
 8476TIP3   OH246842   0.721   5.547  13.525 -0.1470  0.1961  0.6789
 8476TIP3    H146843   0.757   5.576  13.441  0.1381 -1.6983  0.1224
 8476TIP3    H246844   0.733   5.623  13.583 -3.1617  2.6437 -1.7398
 8477TIP3   OH246845   5.302   5.325   4.795 -0.2934  0.7705 -0.4558
 8477TIP3    H146846   5.222   5.318   4.847 -0.8780 -0.1603 -1.4482
 8477TIP3    H246847   5.307   5.417   4.771 -0.5916  1.0017  0.3473
 8478TIP3   OH246848   5.241   2.043  12.573  0.5425 -0.0672  0.5012
 8478TIP3    H146849   5.239   2.088  12.657  0.4115 -1.2708  1.1500
 8478TIP3    H246850   5.154   2.006  12.563  0.5518  0.0815 -0.1787
 8479TIP3   OH246851   5.101   5.545  16.664  0.0409  0.1636 -0.2712
 8479TIP3    H146852   5.145   5.476  16.614  1.1395  0.0284  0.8422
 8479TIP3    H246853   5.115   5.521  16.756  0.1399  1.6703  0.1258
 8480TIP3   OH246854   0.816   4.747   3.396  0.2847  0.3156 -0.4655
 8480TIP3    H146855   0.782   4.685   3.459  0.8972  1.9793  1.5438
 8480TIP3    H246856   0.910   4.729   3.392  0.1853 -0.0784 -1.2657
 8481TIP3   OH246857   5.322   3.385  16.071 -0.1273 -0.0088  0.0521
 8481TIP3    H146858   5.274   3.380  16.154  0.0357  2.4241  0.3112
 8481TIP3    H246859   5.263   3.430  16.011  1.2474  1.6984 -0.0383
 8482TIP3   OH246860   2.202   5.123   2.380  0.4495  0.1102  0.2311
 8482TIP3    H146861   2.256   5.124   2.301  2.5492 -0.6074  1.6033
 8482TIP3    H246862   2.164   5.035   2.382  0.2809  0.1756 -0.0422
 8483TIP3   OH246863   6.707   3.490  11.676 -0.2432 -0.5548 -0.5376
 8483TIP3    H146864   6.655   3.483  11.756  2.5244  0.0739  1.3807
 8483TIP3    H246865   6.783   3.434  11.691  0.4913 -0.1485 -2.5665
 8484TIP3   OH246866   4.317   0.202   3.280  0.7374  0.1122 -0.1774
 8484TIP3    H146867   4.404   0.207   3.242  1.2855 -1.0449  0.9119
 8484TIP3    H246868   4.296   0.109   3.281 -0.4241  0.3681 -0.2466
 8485TIP3   OH246869   5.238   3.706  15.399 -0.2713  0.0047 -0.0421
 8485TIP3    H146870   5.164   3.689  15.457  1.2754 -0.0884  1.9510
 8485TIP3    H246871   5.272   3.792  15.427  1.0556 -0.4647 -0.1418
 8486TIP3   OH246872   3.220   2.459   3.076  0.2763  0.2018  0.6142
 8486TIP3    H146873   3.311   2.465   3.105  0.7198  0.5012 -0.7847
 8486TIP3    H246874   3.223   2.479   2.982 -1.1999 -0.0220  0.4987
 8487TIP3   OH246875   0.208   6.636   2.772 -0.6683  0.9098 -0.9982
 8487TIP3    H146876   0.238   6.717   2.732 -1.9303  1.2401 -1.2934
 8487TIP3    H246877   0.225   6.568   2.707 -2.2881  1.3763 -1.9380
 8488TIP3   OH246878   6.635   6.295  11.609  0.2464  0.7160 -0.2010
 8488TIP3    H146879   6.687   6.215  11.595 -0.9880  0.1207 -1.4472
 8488TIP3    H246880   6.658   6.352  11.536 -0.4381  0.6775 -0.4480
 8489TIP3   OH246881   3.210   4.358   4.586 -0.0445 -0.0469 -0.1338
 8489TIP3    H146882   3.275   4.289   4.593 -0.9854 -0.8263  1.1189
 8489TIP3    H246883   3.257   4.438   4.610  1.0369 -0.2211 -1.5716
 8490TIP3   OH246884   0.210   1.793  12.536 -0.1554  0.1905 -0.5654
 8490TIP3    H146885   0.159   1.790  12.617 -1.4982 -0.0112 -1.4003
 8490TIP3    H246886   0.216   1.702  12.507  0.1790  0.2771 -0.7786
 8491TIP3   OH246887   1.100   3.342   5.745  0.1339  0.3691  0.0264
 8491TIP3    H146888   1.040   3.415   5.760 -1.3059 -0.9539  0.9030
 8491TIP3    H246889   1.048   3.264   5.765  2.2062 -0.8113  0.9940
 8492TIP3   OH246890   3.262   2.254   4.689 -0.1354 -0.4865 -0.0036
 8492TIP3    H146891   3.281   2.341   4.723  0.1329 -0.5157 -0.0728
 8492TIP3    H246892   3.178   2.230   4.728 -1.2393  0.6635 -1.6093
 8493TIP3   OH246893   3.768   4.217   3.917 -0.2813  0.2486 -0.0991
 8493TIP3    H146894   3.694   4.252   3.869 -1.1493  0.4441  1.3344
 8493TIP3    H246895   3.732   4.143   3.966  0.7457 -0.4301 -0.3648
 8494TIP3   OH246896   6.434   0.236  15.239  0.5904 -0.1873  0.2758
 8494TIP3    H146897   6.349   0.281  15.235 -0.8104 -2.7122  0.6968
 8494TIP3    H246898   6.431   0.173  15.168  2.4312  0.1641 -0.1274
 8495TIP3   OH246899   4.060   2.012   5.575 -0.1147  0.2915 -0.2718
 8495TIP3    H146900   3.973   2.015   5.536 -0.7902  0.3569  1.2041
 8495TIP3    H246901   4.117   1.984   5.504 -1.4004 -0.1286 -1.1586
 8496TIP3   OH246902   3.449   4.389  12.957 -0.2372 -1.2522  0.1278
 8496TIP3    H146903   3.526   4.339  12.984 -0.8929 -1.9193  0.7709
 8496TIP3    H246904   3.381   4.323  12.943 -0.7310 -0.6565 -0.3318
 8497TIP3   OH246905   3.170   5.147   5.999  0.7622 -0.1049  0.6290
 8497TIP3    H146906   3.240   5.114   5.942  1.3249  1.7685  0.1929
 8497TIP3    H246907   3.138   5.226   5.954 -0.7673 -0.2334  1.4734
 8498TIP3   OH246908   5.197   5.144  16.964 -0.3027 -0.5803 -0.1974
 8498TIP3    H146909   5.255   5.084  16.919 -0.9839 -1.8007  0.5274
 8498TIP3    H246910   5.116   5.095  16.977 -0.1777 -0.2198  2.2177
 8499TIP3   OH246911   0.752   2.049   3.576 -0.3924  0.2929  0.0987
 8499TIP3    H146912   0.732   2.090   3.660  0.6206 -0.1147  0.5505
 8499TIP3    H246913   0.843   2.073   3.558 -0.0851 -0.9622 -0.0914
 8500TIP3   OH246914   5.517   2.630   5.047 -0.8962  0.4369 -0.0213
 8500TIP3    H146915   5.537   2.634   4.953 -0.7193  1.7987  0.0609
 8500TIP3    H246916   5.543   2.716   5.080  0.2664 -0.4917  1.5217
 8501TIP3   OH246917   4.947   0.241   5.012  0.3333  0.2474  0.1495
 8501TIP3    H146918   4.988   0.264   5.095  0.9849 -0.4823  0.0384
 8501TIP3    H246919   4.940   0.146   5.014 -0.0409  0.2609 -0.4467
 8502TIP3   OH246920   4.253   6.385   5.608  0.4796  0.2516 -0.1926
 8502TIP3    H146921   4.332   6.381   5.661  1.6040 -1.3541 -1.9498
 8502TIP3    H246922   4.280   6.425   5.525 -0.4318 -0.7018 -0.9701
 8503TIP3   OH246923   2.794   4.764  15.986  0.1035 -0.3836  0.1948
 8503TIP3    H146924   2.762   4.676  16.007  1.8533 -1.2289 -0.5779
 8503TIP3    H246925   2.839   4.792  16.066  1.6462 -1.1945 -0.3733
 8504TIP3   OH246926   6.374   0.426  12.081  0.1372 -0.6613 -0.0249
 8504TIP3    H146927   6.402   0.339  12.108  0.8326 -0.7381 -0.9478
 8504TIP3    H246928   6.314   0.411  12.008 -1.9464 -0.4699  1.6047
 8505TIP3   OH246929   0.179   6.031  14.423 -0.6329 -0.0146 -0.1949
 8505TIP3    H146930   0.100   6.081  14.439 -0.9368 -0.9690  1.3347
 8505TIP3    H246931   0.169   6.000  14.332 -2.9785 -1.8180  0.6275
 8506TIP3   OH246932   6.104   5.815  14.680  0.4025  0.6591  0.2578
 8506TIP3    H146933   6.124   5.895  14.729  0.9840 -0.0550  1.2147
 8506TIP3    H246934   6.177   5.806  14.619  0.6520  0.5442  0.5678
 8507TIP3   OH246935   4.095   5.578   2.177  0.9053  0.0646  0.2365
 8507TIP3    H146936   4.129   5.642   2.238  1.5514 -2.0823  2.1927
 8507TIP3    H246937   4.163   5.511   2.170 -0.5291 -1.4093 -0.2265
 8508TIP3   OH246938   5.109   0.364   2.906  0.2316 -0.1764 -0.3318
 8508TIP3    H146939   5.161   0.428   2.857  0.3028  0.9922  1.2487
 8508TIP3    H246940   5.115   0.284   2.853  2.3173  0.3774 -1.0103
 8509TIP3   OH246941   0.117   4.170  15.098  0.1409  0.3181  0.7321
 8509TIP3    H146942   0.047   4.104  15.089  0.6686 -0.2718  0.9108
 8509TIP3    H246943   0.154   4.154  15.185  2.4710 -1.3489 -0.5097
 8510TIP3   OH246944   3.688   4.949  15.611 -0.5205 -0.1146 -0.1403
 8510TIP3    H146945   3.623   4.919  15.548 -0.1643 -0.2732 -0.4364
 8510TIP3    H246946   3.760   4.886  15.603 -0.3655  0.0141  0.2370
 8511TIP3   OH246947   0.655   5.162  15.270 -0.5646 -0.5243  0.6467
 8511TIP3    H146948   0.696   5.239  15.231 -1.0507 -0.2634  0.6369
 8511TIP3    H246949   0.688   5.089  15.219 -1.2112 -0.1854 -0.2743
 8512TIP3   OH246950   3.187   2.713  16.782  0.2456 -0.4877  0.4146
 8512TIP3    H146951   3.129   2.737  16.855  0.7379 -1.4210  1.1203
 8512TIP3    H246952   3.274   2.739  16.811  0.4478 -0.8825  0.1632
 8513TIP3   OH246953   2.024   6.772  11.601 -0.0076 -0.1153 -0.2346
 8513TIP3    H146954   2.111   6.811  11.589 -0.0707 -0.1240 -0.7380
 8513TIP3    H246955   1.966   6.847  11.614  0.0698 -0.1078  0.0787
 8514TIP3   OH246956   1.696   0.650   1.259  0.9727  0.1657 -0.1581
 8514TIP3    H146957   1.734   0.727   1.217  1.1314  0.4273  0.4518
 8514TIP3    H246958   1.716   0.577   1.200  3.0817  0.1767  0.5233
 8515TIP3   OH246959   5.776   0.657   3.357  0.1250 -0.3065  0.2635
 8515TIP3    H146960   5.870   0.646   3.371  0.5586  2.7609  0.0580
 8515TIP3    H246961   5.768   0.677   3.264 -0.3815  2.6998  0.9256
 8516TIP3   OH246962   3.645   0.101  13.877 -0.0508 -0.4423  0.5308
 8516TIP3    H146963   3.606   0.025  13.835 -2.8179  0.8958  0.5771
 8516TIP3    H246964   3.697   0.143  13.809 -1.5956 -0.2850 -0.5764
 8517TIP3   OH246965   4.834   2.644  16.558  0.2843  0.1054  0.4565
 8517TIP3    H146966   4.755   2.633  16.505 -1.3620  1.1370  2.5964
 8517TIP3    H246967   4.875   2.723  16.523 -0.2608  0.2323  0.0895
 8518TIP3   OH246968   6.049   1.241  17.228  0.3758 -0.1222  0.3608
 8518TIP3    H146969   6.119   1.217  17.289 -0.5869 -0.1824  1.4627
 8518TIP3    H246970   5.974   1.260  17.284 -0.9803 -1.6897 -0.8834
 8519TIP3   OH246971   4.313   0.984   1.888 -0.0270  0.2693  0.0323
 8519TIP3    H146972   4.344   0.900   1.856  1.1032  0.5835  0.2882
 8519TIP3    H246973   4.358   0.996   1.972  0.2392  1.3865 -0.2663
 8520TIP3   OH246974   2.129   5.087   0.358 -0.1670 -0.0689 -0.1386
 8520TIP3    H146975   2.169   5.041   0.432  0.3941 -0.4439 -0.6683
 8520TIP3    H246976   2.091   5.017   0.305 -0.2002  0.1650 -0.4201
 8521TIP3   OH246977   0.548   4.123  13.370 -0.5886  0.3748  0.2845
 8521TIP3    H146978   0.635   4.149  13.398 -0.2271 -0.1232 -0.3569
 8521TIP3    H246979   0.492   4.197  13.393 -0.4290 -0.2731  2.8806
 8522TIP3   OH246980   3.400   0.920   4.374  0.4418  0.1371  0.3448
 8522TIP3    H146981   3.372   0.936   4.284  0.8749 -1.9404 -0.1880
 8522TIP3    H246982   3.362   0.992   4.424 -1.3366  0.3376 -1.2204
 8523TIP3   OH246983   6.154   4.207  16.471  0.0988 -0.9801  0.2401
 8523TIP3    H146984   6.187   4.150  16.401 -1.0254 -0.2019 -0.9439
 8523TIP3    H246985   6.231   4.257  16.499  0.4048 -0.7776 -0.9389
 8524TIP3   OH246986   2.710   0.351   3.966  0.6907  0.1363  0.1180
 8524TIP3    H146987   2.670   0.417   3.909  1.1577  0.6492  0.3877
 8524TIP3    H246988   2.801   0.346   3.937  0.6444 -0.4367  0.0582
 8525TIP3   OH246989   3.446   2.919   5.231 -0.0255 -0.0875  0.6321
 8525TIP3    H146990   3.412   3.009   5.222 -0.7479 -0.2310  1.8474
 8525TIP3    H246991   3.537   2.926   5.204  0.3602  1.3502  2.1888
 8526TIP3   OH246992   3.561   2.780  11.325 -0.4979  0.0206 -0.5186
 8526TIP3    H146993   3.656   2.783  11.320 -0.4410 -0.7295  0.1637
 8526TIP3    H246994   3.532   2.860  11.280  0.3700 -0.9416 -2.8568
 8527TIP3   OH246995   4.810   3.478   4.940 -0.0922 -0.2708  0.0430
 8527TIP3    H146996   4.853   3.519   4.865  1.1237  0.8614  1.3199
 8527TIP3    H246997   4.878   3.423   4.980 -0.3716  0.0382  0.9693
 8528TIP3   OH246998   2.768   0.508  13.586 -0.2932 -0.4069 -0.2001
 8528TIP3    H146999   2.800   0.450  13.517 -1.6270 -0.5384 -0.7203
 8528TIP3    H247000   2.845   0.557  13.614 -0.3151  1.8966 -3.9579
 8529TIP3   OH247001   5.122   2.374   0.872 -0.5881 -0.1493  0.3448
 8529TIP3    H147002   5.113   2.329   0.956 -0.8085  1.2278  1.0674
 8529TIP3    H247003   5.216   2.388   0.863 -0.6301  0.3891  0.7290
 8530TIP3   OH247004   5.098   0.211  14.863  0.4118  0.5310  0.4959
 8530TIP3    H147005   5.004   0.215  14.880  0.8466  1.0528  3.0628
 8530TIP3    H247006   5.120   0.297  14.827 -0.0889  0.4299 -0.0493
 8531TIP3   OH247007   4.258   4.836  12.596 -0.2579 -0.2270 -0.0493
 8531TIP3    H147008   4.222   4.755  12.559  0.6394  0.4388 -2.5144
 8531TIP3    H247009   4.348   4.839  12.562  0.5911  0.4765  2.1990
 8532TIP3   OH247010   3.998   0.133  14.520 -0.7889 -0.3677  0.2137
 8532TIP3    H147011   3.998   0.070  14.448 -0.8042  0.9208 -0.9162
 8532TIP3    H247012   4.023   0.081  14.597 -3.4401 -2.3100 -0.1956
 8533TIP3   OH247013   0.519   2.025   0.062  0.2054 -0.1619 -0.8353
 8533TIP3    H147014   0.585   2.092   0.079  0.5561 -0.3084 -1.5709
 8533TIP3    H247015   0.447   2.045   0.121  1.7412 -1.1970  1.4488
 8534TIP3   OH247016   2.442   3.836  15.755 -0.3626  0.3830 -0.1943
 8534TIP3    H147017   2.496   3.915  15.757  1.1973 -0.6749  0.3930
 8534TIP3    H247018   2.398   3.840  15.670  2.4799  0.1043 -1.7523
 8535TIP3   OH247019   6.038   3.675  16.879 -0.6945 -0.0060 -0.1797
 8535TIP3    H147020   6.130   3.690  16.901 -0.6889  1.7539 -1.2984
 8535TIP3    H247021   5.994   3.665  16.963  0.3196  0.4583  0.4073
 8536TIP3   OH247022   5.016   5.838  15.568  0.3703  0.0822  0.1154
 8536TIP3    H147023   5.074   5.850  15.493 -0.5179 -0.4403 -0.6592
 8536TIP3    H247024   5.070   5.794  15.634  0.1466 -2.7835 -1.5450
 8537TIP3   OH247025   1.904   3.052  15.719 -0.0329 -0.0422  0.0410
 8537TIP3    H147026   1.836   3.113  15.691  1.1735  0.8793 -0.8911
 8537TIP3    H247027   1.919   3.074  15.811  0.1992  0.8680 -0.2110
 8538TIP3   OH247028   2.354   5.452  16.422 -0.9534  0.1608  0.1523
 8538TIP3    H147029   2.292   5.499  16.365  0.1337 -0.3411 -1.4880
 8538TIP3    H247030   2.430   5.436  16.366  0.1503 -0.3464  1.7741
 8539TIP3   OH247031   4.730   6.619  11.298  0.1793  0.1580  0.2836
 8539TIP3    H147032   4.812   6.575  11.321  0.2229  0.1773  0.1667
 8539TIP3    H247033   4.662   6.564  11.338  0.3046  0.7055  1.2751
 8540TIP3   OH247034   2.205   0.331   0.716 -0.2097  0.0272  0.4279
 8540TIP3    H147035   2.257   0.408   0.739  0.6183 -0.5141  0.4070
 8540TIP3    H247036   2.121   0.367   0.688  0.4309  0.9861 -0.3365
 8541TIP3   OH247037   4.545   6.772  16.527  0.0945 -0.2770  0.1518
 8541TIP3    H147038   4.518   6.853  16.570 -0.5298 -1.1941  1.4791
 8541TIP3    H247039   4.633   6.755  16.561  0.3869  0.0329 -0.4266
 8542TIP3   OH247040   6.702   5.649   6.556  0.1495  0.2409 -0.0968
 8542TIP3    H147041   6.731   5.715   6.493  0.1006  1.3743  1.0396
 8542TIP3    H247042   6.674   5.700   6.632  1.2166 -1.1590  1.2591
 8543TIP3   OH247043   3.679   4.975   2.070 -0.2169 -0.5688  0.2812
 8543TIP3    H147044   3.747   4.980   2.138  0.3956 -1.8773 -0.2325
 8543TIP3    H247045   3.637   4.891   2.084  0.3297 -1.1263 -1.3552
 8544TIP3   OH247046   5.942   4.719  12.510  0.7457  0.7002  0.3746
 8544TIP3    H147047   6.000   4.794  12.522  0.7226  0.9581 -1.0743
 8544TIP3    H247048   5.999   4.648  12.483  0.5644  0.6094  0.2293
 8545TIP3   OH247049   3.974   3.724   2.427  0.5131  0.4302 -0.5638
 8545TIP3    H147050   3.971   3.671   2.506  0.4397  1.7421  0.3190
 8545TIP3    H247051   3.882   3.746   2.410  0.8308  3.2074  1.0853
 8546TIP3   OH247052   0.459   4.673   0.408  0.5543  0.1373 -0.4170
 8546TIP3    H147053   0.512   4.734   0.459 -0.3412  0.4582  0.1469
 8546TIP3    H247054   0.399   4.634   0.471 -0.3766  0.3289 -1.1641
 8547TIP3   OH247055   5.019   2.278   0.585  0.0724 -0.0779 -0.6051
 8547TIP3    H147056   5.041   2.223   0.661 -1.0551 -0.2964 -0.4280
 8547TIP3    H247057   5.077   2.354   0.594  0.5209 -0.4823  0.0265
 8548TIP3   OH247058   0.963   2.567  13.446 -1.1315  0.4127 -0.1669
 8548TIP3    H147059   0.945   2.585  13.538  0.2361 -0.1142  0.2130
 8548TIP3    H247060   1.058   2.568  13.439 -1.2145  0.2300 -1.5321
 8549TIP3   OH247061   0.808   1.424   4.786 -0.1845  0.3676  0.4351
 8549TIP3    H147062   0.831   1.516   4.794 -0.5007  0.5554 -0.6860
 8549TIP3    H247063   0.728   1.424   4.732 -0.1204 -0.5616  0.3322
 8550TIP3   OH247064   6.033   6.270  16.571  0.2258  0.2985  0.1970
 8550TIP3    H147065   6.065   6.203  16.632  0.3665 -0.3790 -0.6062
 8550TIP3    H247066   6.102   6.278  16.506 -0.8165 -0.5068 -1.0432
 8551TIP3   OH247067   4.566   0.402   2.952  0.7771 -0.7526 -0.1605
 8551TIP3    H147068   4.651   0.443   2.938  0.3918 -0.2968 -1.2219
 8551TIP3    H247069   4.503   0.474   2.945  0.1378 -1.4235 -1.4685
 8552TIP3   OH247070   6.126   4.496  12.513  0.0286 -0.2219  0.3821
 8552TIP3    H147071   6.139   4.571  12.572 -2.1043 -1.3068  2.3201
 8552TIP3    H247072   6.195   4.434  12.537 -0.1085 -0.1611  0.9481
 8553TIP3   OH247073   0.816   3.287   0.073  0.4113 -0.0131 -0.0748
 8553TIP3    H147074   0.730   3.259   0.104  0.2545 -1.7690 -1.9787
 8553TIP3    H247075   0.807   3.382   0.059 -0.7741  0.0479  1.0630
 8554TIP3   OH247076   5.956   4.175  14.558  1.4143 -0.1711 -0.1836
 8554TIP3    H147077   6.006   4.166  14.477  0.0824  0.5950 -1.1182
 8554TIP3    H247078   5.870   4.206  14.530  0.9045  0.0386  1.5201
 8555TIP3   OH247079   0.871   2.998   1.964  0.0723  0.3851 -0.3238
 8555TIP3    H147080   0.851   3.046   1.883  0.8056 -0.7474 -1.1935
 8555TIP3    H247081   0.787   2.957   1.988 -0.7090  2.5342  0.7578
 8556TIP3   OH247082   6.775   0.515   4.718 -0.5774  0.2006 -0.0438
 8556TIP3    H147083   6.774   0.607   4.745  0.4621 -0.0742  0.9615
 8556TIP3    H247084   6.845   0.475   4.770  0.6911 -0.6132 -2.2869
 8557TIP3   OH247085   2.508   3.096   5.628  0.1439  0.0653  0.4998
 8557TIP3    H147086   2.433   3.036   5.626  0.3970 -0.2197 -0.3871
 8557TIP3    H247087   2.501   3.139   5.714 -1.0039  0.0068  0.4530
 8558TIP3   OH247088   5.464   2.984   3.387  0.4529 -0.2502 -0.0243
 8558TIP3    H147089   5.543   2.933   3.367  0.4466  0.3486 -1.5990
 8558TIP3    H247090   5.482   3.022   3.473  0.5909 -2.6249  1.0559
 8559TIP3   OH247091   6.714   1.293  12.905 -0.1357  0.2691 -0.5458
 8559TIP3    H147092   6.772   1.327  12.838  0.2613 -0.1319 -0.4099
 8559TIP3    H247093   6.643   1.251  12.856  0.7072 -0.9790 -0.7401
 8560TIP3   OH247094   4.650   4.982   2.756 -0.2080 -0.5703  0.2963
 8560TIP3    H147095   4.581   4.997   2.692  1.0805  1.6963 -0.6164
 8560TIP3    H247096   4.691   5.068   2.768  0.8575 -1.3648  2.6795
 8561TIP3   OH247097   4.013   6.596   0.601 -0.6672  0.0872  0.1999
 8561TIP3    H147098   3.991   6.513   0.557 -0.8773  0.9948 -1.4431
 8561TIP3    H247099   4.074   6.570   0.670 -1.1215 -1.5130  0.0302
 8562TIP3   OH247100   5.721   0.179   1.187  0.0025  0.3000 -0.2152
 8562TIP3    H147101   5.672   0.165   1.106  1.0116  0.4036 -0.8485
 8562TIP3    H247102   5.799   0.125   1.177 -0.8685 -1.3738  1.6060
 8563TIP3   OH247103   2.512   3.897  16.737  0.1060 -0.0449  0.6072
 8563TIP3    H147104   2.515   3.843  16.658 -0.2602  1.1987 -0.2672
 8563TIP3    H247105   2.441   3.959  16.721 -0.5711 -0.3478  2.2901
 8564TIP3   OH247106   3.634   4.214  15.876 -0.0350  0.4893  0.0178
 8564TIP3    H147107   3.610   4.167  15.956 -1.9000  0.1060 -0.7351
 8564TIP3    H247108   3.713   4.169  15.845  0.3285  0.2211  1.2848
 8565TIP3   OH247109   1.118   1.628  14.645  0.8325  0.3597  0.0285
 8565TIP3    H147110   1.172   1.580  14.708  0.7142 -0.5621 -0.5567
 8565TIP3    H247111   1.132   1.720  14.666  0.2135  0.0402  1.8667
 8566TIP3   OH247112   5.878   0.731   5.042  0.5189  0.4372 -0.0472
 8566TIP3    H147113   5.837   0.700   5.122  1.3481 -3.0130 -0.8888
 8566TIP3    H247114   5.971   0.742   5.065  0.6474  0.0401 -0.3760
 8567TIP3   OH247115   0.610   0.959   5.196  0.1128  0.9845 -0.2593
 8567TIP3    H147116   0.668   0.920   5.130 -1.7625  0.5033 -1.6793
 8567TIP3    H247117   0.625   0.907   5.275  1.0414  0.3623 -0.8341
 8568TIP3   OH247118   0.508   0.458   1.396 -0.5964  0.4076 -0.5192
 8568TIP3    H147119   0.422   0.417   1.398 -0.0014 -1.1098 -3.4289
 8568TIP3    H247120   0.500   0.528   1.331  0.2597  0.4874 -0.5503
 8569TIP3   OH247121   0.739   2.886   4.696 -0.2614  0.3092  0.0016
 8569TIP3    H147122   0.753   2.911   4.604 -0.6332 -0.1371 -0.1745
 8569TIP3    H247123   0.644   2.885   4.707 -0.2727 -1.4108 -0.0983
 8570TIP3   OH247124   6.299   5.231   5.146  0.1253  0.2452 -0.5823
 8570TIP3    H147125   6.328   5.322   5.161  0.5104  0.1036 -0.4445
 8570TIP3    H247126   6.205   5.238   5.130 -0.1585  0.5099  1.1001
 8571TIP3   OH247127   6.500   4.635  14.727 -0.0252  0.3181 -0.3626
 8571TIP3    H147128   6.529   4.574  14.659  0.2293  0.8683 -0.7457
 8571TIP3    H247129   6.568   4.701  14.731 -0.5623  0.8719 -0.3181
 8572TIP3   OH247130   2.365   3.984   6.049  0.2274 -0.2490  0.1401
 8572TIP3    H147131   2.386   3.913   6.110  3.1089 -0.5317 -1.1166
 8572TIP3    H247132   2.305   3.945   5.986 -1.3477 -0.4455  1.7127
 8573TIP3   OH247133   0.916   3.080  13.459 -0.2147 -0.4372 -0.0492
 8573TIP3    H147134   1.008   3.093  13.436 -0.0129 -0.3618  0.7991
 8573TIP3    H247135   0.911   3.101  13.552 -0.8016 -1.9120  0.2638
 8574TIP3   OH247136   3.594   5.967   4.894  0.4092 -0.0571 -0.0383
 8574TIP3    H147137   3.652   5.924   4.956  2.2423  1.5625 -0.5678
 8574TIP3    H247138   3.561   5.897   4.838  2.2643 -0.9565 -0.0405
 8575TIP3   OH247139   4.316   0.617   3.290 -0.3395 -0.0234  0.2811
 8575TIP3    H147140   4.288   0.550   3.227 -1.2052  2.3726 -1.9896
 8575TIP3    H247141   4.235   0.642   3.335 -0.0801 -0.2881  0.8901
 8576TIP3   OH247142   0.524   3.311  16.287 -0.4053  0.6046 -0.2424
 8576TIP3    H147143   0.558   3.398  16.307 -0.8894  0.2093  2.4667
 8576TIP3    H247144   0.432   3.315  16.312 -0.1307 -1.0354  1.1300
 8577TIP3   OH247145   5.554   2.301  12.931  0.1743 -0.0081  0.2576
 8577TIP3    H147146   5.621   2.352  12.977 -1.3298  1.4087  0.9218
 8577TIP3    H247147   5.495   2.271  12.999 -0.6433 -0.0786 -0.4721
 8578TIP3   OH247148   5.547   3.705   6.880  0.1854 -0.3133 -0.2015
 8578TIP3    H147149   5.607   3.651   6.828  1.8014  2.1617 -0.9745
 8578TIP3    H247150   5.460   3.680   6.849  0.9419 -1.9448 -1.0724
 8579TIP3   OH247151   6.093   6.654  14.498 -0.0144 -0.0295 -1.1180
 8579TIP3    H147152   6.012   6.691  14.530  0.0828  0.3149 -1.2658
 8579TIP3    H247153   6.075   6.633  14.406 -0.6172 -1.9632 -0.5913
 8580TIP3   OH247154   6.137   1.455   4.387  0.4944 -0.2523 -0.3670
 8580TIP3    H147155   6.080   1.503   4.327 -0.1434 -1.5467 -0.7998
 8580TIP3    H247156   6.109   1.364   4.380 -0.0001 -0.3462  2.3542
 8581TIP3   OH247157   1.119   6.762  13.424 -0.0747  0.1649  0.3463
 8581TIP3    H147158   1.084   6.693  13.368 -0.2272 -1.1717  2.0522
 8581TIP3    H247159   1.047   6.786  13.482  0.0572  1.5918 -0.0424
 8582TIP3   OH247160   1.790   1.762  11.751 -0.3673  0.4450 -0.0446
 8582TIP3    H147161   1.785   1.683  11.697 -0.4642 -0.7221  1.6214
 8582TIP3    H247162   1.735   1.826  11.706  1.5713  0.3255 -2.6472
 8583TIP3   OH247163   4.308   3.369   4.052 -0.0148 -0.2314 -0.4852
 8583TIP3    H147164   4.268   3.431   4.113 -0.5944 -0.5047 -0.5757
 8583TIP3    H247165   4.266   3.285   4.073  0.2005 -0.4395 -0.8738
 8584TIP3   OH247166   1.612   0.755  15.642  0.1052 -0.7501  0.0371
 8584TIP3    H147167   1.688   0.704  15.669 -1.3977 -4.2541 -2.0525
 8584TIP3    H247168   1.545   0.737  15.708  0.0274 -0.2923  0.0888
 8585TIP3   OH247169   5.794   2.771   2.079  0.4663  0.5035  0.0737
 8585TIP3    H147170   5.870   2.724   2.043 -0.6002 -0.2075 -1.3015
 8585TIP3    H247171   5.832   2.831   2.143  1.8135 -2.7086  2.4191
 8586TIP3   OH247172   2.618   0.374   1.878  0.0644  0.4780  0.1651
 8586TIP3    H147173   2.711   0.396   1.874  0.3748 -0.7557  0.3522
 8586TIP3    H247174   2.614   0.284   1.845 -1.3643  1.3682 -2.1589
 8587TIP3   OH247175   3.141   2.507   2.805  0.1858 -0.6810 -0.4420
 8587TIP3    H147176   3.185   2.423   2.798 -0.0919 -0.8343 -0.3222
 8587TIP3    H247177   3.048   2.487   2.794 -0.2580 -0.8538  3.0864
 8588TIP3   OH247178   4.487   0.699   5.639  0.0017  0.3751  0.0551
 8588TIP3    H147179   4.576   0.709   5.606 -0.6555  0.0189 -1.8678
 8588TIP3    H247180   4.497   0.700   5.734  2.0205  0.6255 -0.1325
 8589TIP3   OH247181   2.749   3.842  15.469  0.1860 -0.1300 -0.3792
 8589TIP3    H147182   2.782   3.792  15.543 -0.0916  1.0732  0.5739
 8589TIP3    H247183   2.816   3.908  15.453 -0.9347  1.2263  0.4525
 8590TIP3   OH247184   0.501   4.542   4.940  0.1017  0.0127  0.1522
 8590TIP3    H147185   0.463   4.455   4.933  0.7234 -0.2374 -0.1596
 8590TIP3    H247186   0.570   4.544   4.873  1.0811  0.2301  1.1566
 8591TIP3   OH247187   4.774   5.078  13.618 -0.0385  0.2448  0.6214
 8591TIP3    H147188   4.797   5.137  13.547  0.5082  0.5080  1.0136
 8591TIP3    H247189   4.762   4.993  13.576  0.4075  0.3745  0.2293
 8592TIP3   OH247190   4.327   0.729  13.065 -0.2262 -0.1858  0.5277
 8592TIP3    H147191   4.273   0.652  13.051 -0.8380  0.4069 -0.4176
 8592TIP3    H247192   4.417   0.697  13.058 -0.4900 -0.6336 -0.8354
 8593TIP3   OH247193   5.591   3.561  17.176  0.1538  0.4860 -0.2614
 8593TIP3    H147194   5.505   3.521  17.189  0.1508  0.8269  0.7947
 8593TIP3    H247195   5.572   3.652  17.152  0.2408  0.8642  1.0912
 8594TIP3   OH247196   5.611   2.434   4.558 -0.0072  0.5061  0.5500
 8594TIP3    H147197   5.681   2.466   4.500  0.3072 -2.0643 -0.5604
 8594TIP3    H247198   5.530   2.451   4.509  0.0288  1.1063  0.6954
 8595TIP3   OH247199   2.265   2.007  11.275  0.2561 -0.5537 -0.3757
 8595TIP3    H147200   2.249   2.089  11.321 -1.1265 -1.3482  0.5904
 8595TIP3    H247201   2.199   1.947  11.310  1.0775 -1.9921 -1.2705
 8596TIP3   OH247202   1.614   3.667   1.230 -0.6136  0.1647  0.2475
 8596TIP3    H147203   1.617   3.762   1.214 -1.1019 -0.0003 -0.8789
 8596TIP3    H247204   1.688   3.632   1.181 -0.0061  0.0421  1.2536
 8597TIP3   OH247205   6.390   4.097  14.965 -0.1975 -0.4054 -0.2886
 8597TIP3    H147206   6.413   4.027  15.026  0.6698  0.8818  0.9088
 8597TIP3    H247207   6.379   4.174  15.021 -1.7780  0.2796 -1.5139
 8598TIP3   OH247208   1.008   0.934   2.134  0.1420 -0.5082  0.4573
 8598TIP3    H147209   0.966   0.947   2.049 -1.4578 -1.2109  1.1246
 8598TIP3    H247210   0.984   1.011   2.184  0.8767 -0.2171  0.3752
 8599TIP3   OH247211   6.786   3.032  14.176  0.2941 -0.1744  0.0665
 8599TIP3    H147212   6.857   3.056  14.236  1.6199  1.7651 -2.1955
 8599TIP3    H247213   6.709   3.075  14.213  1.2908  1.8083 -0.0772
 8600TIP3   OH247214   5.753   0.570   2.870 -0.0114 -0.3109  0.0971
 8600TIP3    H147215   5.674   0.553   2.920  0.6413 -0.2053  1.1846
 8600TIP3    H247216   5.751   0.664   2.853 -0.8738 -0.5565 -1.1856
 8601TIP3   OH247217   3.466   0.038  12.581  0.0203  0.3477 -0.6599
 8601TIP3    H147218   3.505  -0.046  12.556  0.7024  0.2164  0.8029
 8601TIP3    H247219   3.409   0.017  12.656 -0.5919  1.0253 -0.9240
 8602TIP3   OH247220   0.170   2.738   5.365 -0.1385 -0.2273 -0.0415
 8602TIP3    H147221   0.207   2.799   5.429 -2.6248 -0.3856  1.6384
 8602TIP3    H247222   0.186   2.651   5.402  1.4059 -0.4942 -1.3173
 8603TIP3   OH247223   1.932   6.726   1.387 -0.2855  0.2490 -0.0844
 8603TIP3    H147224   1.964   6.805   1.430  1.0090 -0.2951 -0.0423
 8603TIP3    H247225   1.936   6.747   1.294 -1.1665  0.6878 -0.0335
 8604TIP3   OH247226   3.274   5.123  11.872  0.2734  0.5619  0.0329
 8604TIP3    H147227   3.308   5.187  11.809 -1.9320  1.5650 -0.1937
 8604TIP3    H247228   3.260   5.044  11.820  0.7296  0.6585 -0.2312
 8605TIP3   OH247229   4.747   5.436   4.046 -0.1776 -0.7881  0.2068
 8605TIP3    H147230   4.791   5.460   3.965  1.1782 -0.9320  0.8907
 8605TIP3    H247231   4.781   5.350   4.068 -1.9649 -1.5823 -0.0647
 8606TIP3   OH247232   2.884   1.723  12.262  0.1380  0.2365 -0.1103
 8606TIP3    H147233   2.847   1.708  12.349  2.0777 -2.6374  0.2956
 8606TIP3    H247234   2.820   1.684  12.201 -0.5917  1.0813  0.1117
 8607TIP3   OH247235   2.706   1.644   2.020 -0.3285 -0.0322  0.0424
 8607TIP3    H147236   2.717   1.710   2.089 -1.2148  1.5108 -1.2698
 8607TIP3    H247237   2.721   1.561   2.065 -0.1497  0.9885  1.9402
 8608TIP3   OH247238   2.624   5.466  13.965  0.0366 -0.2018  0.0555
 8608TIP3    H147239   2.596   5.557  13.950 -0.9292 -0.7526 -1.6550
 8608TIP3    H247240   2.615   5.453  14.059  1.3746  1.8569  0.5188
 8609TIP3   OH247241   0.464   5.013  16.367 -0.4337  0.0670 -0.3489
 8609TIP3    H147242   0.467   4.973  16.280 -1.2538 -0.2782 -0.2139
 8609TIP3    H247243   0.391   4.970  16.412 -0.7933  1.1084  0.0864
 8610TIP3   OH247244   4.041   1.098  12.850 -0.5858  0.2011  0.0663
 8610TIP3    H147245   4.061   1.070  12.761  0.7144  1.7220 -0.1404
 8610TIP3    H247246   4.052   1.193  12.848 -3.1559  0.5649  1.1829
 8611TIP3   OH247247   1.240   2.051  14.427  0.0207  0.5614 -0.0727
 8611TIP3    H147248   1.271   2.142  14.422  0.9631  0.2500 -0.0842
 8611TIP3    H247249   1.234   2.023  14.336  0.2062  0.4553 -0.0521
 8612TIP3   OH247250   0.130   2.752   3.984  0.1207  0.1322  0.0725
 8612TIP3    H147251   0.212   2.801   3.985  0.6480 -0.7648  1.4817
 8612TIP3    H247252   0.141   2.688   3.913  0.4055  0.4111 -0.1334
 8613TIP3   OH247253   1.480   5.799   1.999 -0.1531  0.5970 -0.1443
 8613TIP3    H147254   1.467   5.827   1.909  1.3128  1.7801 -0.0045
 8613TIP3    H247255   1.541   5.863   2.036  0.7524 -0.9470  1.1258
 8614TIP3   OH247256   0.533   2.508   6.641 -0.2132 -0.6342 -0.6157
 8614TIP3    H147257   0.466   2.484   6.706  0.3048 -2.1663 -0.6328
 8614TIP3    H247258   0.529   2.438   6.576  0.6955 -0.1716 -1.1752
 8615TIP3   OH247259   5.904   2.413  16.626  0.2163  0.5757 -0.4895
 8615TIP3    H147260   5.829   2.445  16.576  0.3453  0.4378 -0.7754
 8615TIP3    H247261   5.979   2.427  16.568  0.4961  1.2875  0.0385
 8616TIP3   OH247262   6.000   3.920   6.447  0.6427  0.2783  0.2606
 8616TIP3    H147263   6.092   3.928   6.423  1.1068 -1.8462  1.2258
 8616TIP3    H247264   5.984   3.825   6.451 -1.1606  0.6086  1.6924
 8617TIP3   OH247265   5.894   4.537  13.930  0.3807 -0.0487  0.5697
 8617TIP3    H147266   5.969   4.535  13.870  0.3519  1.9173  0.4448
 8617TIP3    H247267   5.932   4.562  14.015  0.4016 -2.6682  1.3871
 8618TIP3   OH247268   0.655   0.310  13.203  0.1488  0.2690 -0.6190
 8618TIP3    H147269   0.624   0.235  13.153  1.7296 -0.7643 -0.0934
 8618TIP3    H247270   0.701   0.272  13.277 -0.7754  1.7731  0.7764
 8619TIP3   OH247271   1.607   3.997   5.564  0.0546 -0.3383 -0.4216
 8619TIP3    H147272   1.580   3.945   5.489  0.8907 -0.3655 -0.7054
 8619TIP3    H247273   1.554   3.964   5.637  0.6142 -1.6008 -0.5889
 8620TIP3   OH247274   3.985   3.701  16.028  0.6845 -1.1453 -0.1061
 8620TIP3    H147275   3.948   3.618  15.999  0.5178 -1.2615  0.4427
 8620TIP3    H247276   3.910   3.754  16.055  0.4741  0.3685 -3.3932
 8621TIP3   OH247277   2.581   1.546   3.167 -0.3927 -0.1716  0.4429
 8621TIP3    H147278   2.545   1.508   3.088 -1.2950  2.0841 -0.2614
 8621TIP3    H247279   2.575   1.476   3.233  1.1818 -2.3583 -1.6530
 8622TIP3   OH247280   0.770   5.366  12.178  0.0457 -0.2157  0.1796
 8622TIP3    H147281   0.766   5.285  12.127  0.6271  0.1488 -0.4632
 8622TIP3    H247282   0.726   5.345  12.260 -1.6383 -0.5854 -0.7826
 8623TIP3   OH247283   4.157   1.919   4.149 -0.2876 -0.1586 -0.3445
 8623TIP3    H147284   4.125   1.905   4.060  1.5712 -0.0963 -1.0483
 8623TIP3    H247285   4.174   1.832   4.183  0.4640 -0.1288 -0.6240
 8624TIP3   OH247286   0.594   5.135  12.762 -0.0590 -0.0402  0.5249
 8624TIP3    H147287   0.618   5.047  12.736  0.1077  0.4073 -0.8796
 8624TIP3    H247288   0.667   5.165  12.817  0.3951 -0.3897  0.1173
 8625TIP3   OH247289   2.908   3.347   1.328  0.0551 -0.0371 -0.2198
 8625TIP3    H147290   2.974   3.340   1.259  0.3193 -2.7193  0.2440
 8625TIP3    H247291   2.928   3.429   1.373  1.3929  0.5106 -1.7614
 8626TIP3   OH247292   1.838   6.348  15.330  0.0970 -0.3884 -0.3260
 8626TIP3    H147293   1.899   6.421  15.339  0.6421 -0.8624 -0.1120
 8626TIP3    H247294   1.857   6.292  15.406 -0.2676 -0.7792 -0.5223
 8627TIP3   OH247295   3.298   5.440  14.104  0.3405  0.3462 -0.2341
 8627TIP3    H147296   3.335   5.496  14.036 -1.0578 -0.1327 -1.4073
 8627TIP3    H247297   3.364   5.372  14.118  0.3200  0.0096 -1.6685
 8628TIP3   OH247298   6.572   4.970   4.882  0.0080  0.5391  0.6895
 8628TIP3    H147299   6.505   4.917   4.838 -0.3115  1.0481  0.5709
 8628TIP3    H247300   6.644   4.973   4.819  0.1472  0.0011  0.8130
 8629TIP3   OH247301   6.058   5.561  15.898 -0.1104  0.1594 -0.4953
 8629TIP3    H147302   6.005   5.594  15.970 -1.8799 -0.9198 -1.2759
 8629TIP3    H247303   6.107   5.637  15.867 -1.5614  1.2858 -0.0608
 8630TIP3   OH247304   1.496   0.724  11.277  0.2158 -0.3773  0.5929
 8630TIP3    H147305   1.442   0.645  11.287 -2.0759  1.1232  0.5331
 8630TIP3    H247306   1.585   0.695  11.296 -0.7202 -2.7742  1.5247
 8631TIP3   OH247307   6.732   4.460   3.168  0.4388 -0.2137  0.0023
 8631TIP3    H147308   6.701   4.544   3.136  0.0233 -0.4283 -0.1713
 8631TIP3    H247309   6.808   4.481   3.221 -0.1003  0.3482  0.5690
 8632TIP3   OH247310   4.474   3.423   4.568 -0.0505  0.2431  0.1381
 8632TIP3    H147311   4.543   3.362   4.544  0.6361  1.3988 -0.9121
 8632TIP3    H247312   4.412   3.371   4.619  0.3011 -1.4178 -1.0953
 8633TIP3   OH247313   6.369   2.930   3.559  0.5090 -0.1298  1.0518
 8633TIP3    H147314   6.284   2.886   3.555  0.3912  0.2175 -0.4620
 8633TIP3    H247315   6.348   3.023   3.544  1.2311 -0.1383 -0.0166
 8634TIP3   OH247316   1.669   2.927   5.599  0.1706 -0.2251 -0.8271
 8634TIP3    H147317   1.759   2.897   5.614  0.5939  1.7381  0.7498
 8634TIP3    H247318   1.617   2.872   5.657  0.6833  0.4534  0.3016
 8635TIP3   OH247319   2.642   5.462   3.120 -0.4632 -0.0769 -0.0816
 8635TIP3    H147320   2.597   5.537   3.081 -1.3886 -1.4493 -1.7074
 8635TIP3    H247321   2.571   5.404   3.149  0.2443 -1.0326 -0.2469
 8636TIP3   OH247322   6.019   2.498   2.722  0.2283 -0.3934  0.1859
 8636TIP3    H147323   6.109   2.466   2.726  0.7081  0.6549 -1.5636
 8636TIP3    H247324   6.000   2.503   2.629 -0.0785  3.5340  0.3640
 8637TIP3   OH247325   5.421   6.308   5.118 -0.1372 -0.5092  0.6284
 8637TIP3    H147326   5.501   6.314   5.170 -1.1802 -0.2897  2.2537
 8637TIP3    H247327   5.400   6.398   5.094  0.6931 -0.6685 -0.7500
 8638TIP3   OH247328   4.924   2.439  12.430  0.0300 -0.3815 -0.2665
 8638TIP3    H147329   4.870   2.426  12.352 -0.9580 -0.5268  0.4354
 8638TIP3    H247330   4.907   2.362  12.484  0.5597 -0.1852  0.1737
 8639TIP3   OH247331   2.449   0.032   5.568 -0.9795  0.0319  0.0291
 8639TIP3    H147332   2.452   0.006   5.661 -0.7052 -0.4692 -0.1195
 8639TIP3    H247333   2.538   0.061   5.549  0.1874 -4.0080 -1.2558
 8640TIP3   OH247334   4.472   0.181   3.902 -0.4398  0.1785  0.4828
 8640TIP3    H147335   4.533   0.109   3.887 -0.1168  0.4682  0.3955
 8640TIP3    H247336   4.430   0.195   3.817 -0.9515 -0.3149  0.6518
 8641TIP3   OH247337   1.135   0.358  13.713 -0.0579  0.1687 -0.7332
 8641TIP3    H147338   1.184   0.375  13.793  0.2356 -0.9207 -0.6837
 8641TIP3    H247339   1.186   0.292  13.666 -1.5534 -1.1260 -0.5781
 8642TIP3   OH247340   1.718   1.409   0.017 -0.2204 -0.0289 -0.3449
 8642TIP3    H147341   1.711   1.428   0.110  1.1514  2.9789 -0.8105
 8642TIP3    H247342   1.812   1.410  -0.001 -0.5299  0.7038 -2.0082
 8643TIP3   OH247343   2.450   2.410   2.189 -0.3100 -0.3509 -0.1099
 8643TIP3    H147344   2.520   2.350   2.162 -0.3024  0.1913 -1.3258
 8643TIP3    H247345   2.418   2.449   2.107 -1.6509 -0.1637  0.4786
 8644TIP3   OH247346   4.990   1.150  11.294 -0.2116 -0.3075  0.0300
 8644TIP3    H147347   4.979   1.069  11.344  0.2252 -0.9216 -0.8431
 8644TIP3    H247348   5.036   1.209  11.353 -0.3199 -0.7802  0.5884
 8645TIP3   OH247349   3.930   1.175   1.367 -0.3123 -0.2486  0.1450
 8645TIP3    H147350   4.026   1.172   1.375 -0.3029 -0.8871 -0.1271
 8645TIP3    H247351   3.914   1.206   1.278 -0.3381 -1.7210 -0.3782
 8646TIP3   OH247352   0.488   4.076  16.128 -0.1516 -0.0171 -0.8245
 8646TIP3    H147353   0.535   4.148  16.085  0.0473  0.0397 -0.5126
 8646TIP3    H247354   0.557   4.012  16.148  0.0299  0.7113  0.9745
 8647TIP3   OH247355   4.495   3.081   2.029  0.3916 -0.3330 -0.4129
 8647TIP3    H147356   4.548   3.066   2.106  1.8828 -1.0581 -1.5583
 8647TIP3    H247357   4.520   3.168   1.999 -0.3802  0.0578  0.0602
 8648TIP3   OH247358   0.710   1.048   1.661 -0.4969  0.5664 -0.7266
 8648TIP3    H147359   0.725   0.958   1.631 -1.3838  0.6260 -1.3687
 8648TIP3    H247360   0.619   1.067   1.636 -1.1427  0.7624  1.6515
 8649TIP3   OH247361   6.579   3.170   1.388  0.1765  0.1424  0.2114
 8649TIP3    H147362   6.529   3.204   1.463  1.8083 -0.5519  1.6443
 8649TIP3    H247363   6.573   3.075   1.397 -0.3707  0.0514 -1.0676
 8650TIP3   OH247364   5.091   5.245  11.206 -0.0167  0.0589 -0.4104
 8650TIP3    H147365   5.155   5.191  11.251 -1.1819 -0.9210  0.1167
 8650TIP3    H247366   5.130   5.264  11.121  0.7593 -0.8999 -0.2703
 8651TIP3   OH247367   2.592   4.415   0.114  0.1331 -0.0153  0.5926
 8651TIP3    H147368   2.557   4.408   0.203 -1.8657  1.8993 -0.0018
 8651TIP3    H247369   2.622   4.326   0.094 -0.7690 -0.8229  2.6291
 8652TIP3   OH247370   5.423   3.965   1.998 -0.4991 -0.4596  0.3149
 8652TIP3    H147371   5.422   3.885   1.945  1.0863 -0.3047  0.0307
 8652TIP3    H247372   5.486   4.021   1.954 -0.9754  0.6206  1.0086
 8653TIP3   OH247373   5.059   6.534  16.763 -0.1476 -1.1091 -0.0699
 8653TIP3    H147374   5.012   6.477  16.702 -0.5177 -0.4766 -0.3744
 8653TIP3    H247375   5.142   6.488  16.779 -0.6939 -2.0245  0.1506
 8654TIP3   OH247376   3.274   6.026  12.989  0.0161  0.0665 -0.9183
 8654TIP3    H147377   3.193   6.019  12.938 -0.8360  1.0622  0.2809
 8654TIP3    H247378   3.245   6.040  13.079  1.5251  2.3397 -0.7551
 8655TIP3   OH247379   6.484   0.144  16.992  0.2696  0.1574  0.4501
 8655TIP3    H147380   6.412   0.160  17.052 -1.8255 -0.9734 -1.6719
 8655TIP3    H247381   6.457   0.184  16.909  1.8534 -0.6917 -0.5286
 8656TIP3   OH247382   6.528   5.930   5.543 -0.0105  0.1475 -0.0861
 8656TIP3    H147383   6.549   5.943   5.635  0.5184 -0.3172 -0.1385
 8656TIP3    H247384   6.613   5.924   5.499 -0.2575  0.1606 -0.5711
 8657TIP3   OH247385   6.300   5.687   2.949  0.1777  0.7440  0.4465
 8657TIP3    H147386   6.232   5.656   2.889  1.4518  1.4800 -1.4221
 8657TIP3    H247387   6.328   5.771   2.913  0.2915  1.6898  2.6457
 8658TIP3   OH247388   5.141   0.790   0.881 -0.8431 -0.1321 -0.1814
 8658TIP3    H147389   5.183   0.754   0.959 -2.3308 -2.3876 -0.4003
 8658TIP3    H247390   5.179   0.878   0.873  1.9094 -1.1329  1.0864
 8659TIP3   OH247391   2.058   5.342   0.301 -0.4507 -0.5747  0.5664
 8659TIP3    H147392   2.109   5.396   0.362 -0.5090 -0.6512  0.6849
 8659TIP3    H247393   2.101   5.257   0.303 -2.1049 -1.4289  2.6738
 8660TIP3   OH247394   0.384   4.702  16.380 -0.0328  0.1088  0.0685
 8660TIP3    H147395   0.343   4.641  16.320  0.2787  0.3783 -0.4286
 8660TIP3    H247396   0.477   4.677  16.381  0.3993  1.5676 -1.3910
 8661TIP3   OH247397   2.930   2.504  13.012  0.0333 -0.2298  0.2388
 8661TIP3    H147398   2.938   2.456  13.095 -0.3745 -2.6848 -1.0796
 8661TIP3    H247399   2.965   2.443  12.947 -0.3179  1.3980 -1.4963
 8662TIP3   OH247400   1.303   4.018  12.240 -0.4180 -0.1345  0.1962
 8662TIP3    H147401   1.299   3.946  12.303 -0.5642  0.1789  0.5492
 8662TIP3    H247402   1.216   4.058  12.243  0.5069  1.8236  2.0981
 8663TIP3   OH247403   0.733   3.687   1.477  0.9383 -0.1251 -0.8887
 8663TIP3    H147404   0.748   3.658   1.567  0.8144  1.3065 -0.3934
 8663TIP3    H247405   0.685   3.614   1.436  0.2811 -0.4560  0.4264
 8664TIP3   OH247406   2.012   1.984  12.380 -0.2259  0.1196 -0.5788
 8664TIP3    H147407   1.933   1.955  12.425 -1.2364  1.3737 -1.5003
 8664TIP3    H247408   2.035   2.067  12.422  0.0172  0.2679 -0.9969
 8665TIP3   OH247409   0.296   3.951   1.418 -0.4553  0.1561 -0.5365
 8665TIP3    H147410   0.250   4.035   1.416 -1.4364 -0.3869 -1.0238
 8665TIP3    H247411   0.360   3.957   1.348  0.6355  1.1432  0.5229
 8666TIP3   OH247412   0.240   5.382   1.589 -0.0442 -0.1575 -0.3646
 8666TIP3    H147413   0.279   5.326   1.522  1.2133  0.4298 -0.1422
 8666TIP3    H247414   0.267   5.470   1.564 -1.0863  0.2343 -0.0922
 8667TIP3   OH247415   1.703   6.472  11.340 -0.0520 -0.3004  0.0197
 8667TIP3    H147416   1.750   6.512  11.413 -2.6928  1.3647  0.8807
 8667TIP3    H247417   1.649   6.404  11.380 -0.3375 -0.4453 -0.5955
 8668TIP3   OH247418   5.264   2.112  12.028 -0.2552  0.0572 -0.7431
 8668TIP3    H147419   5.350   2.152  12.016 -0.5813  1.8175  2.2031
 8668TIP3    H247420   5.203   2.185  12.017 -1.1594 -0.5361  0.2191
 8669TIP3   OH247421   4.631   2.054  14.204  0.6866 -0.2226 -0.4013
 8669TIP3    H147422   4.624   1.989  14.135  1.4218  0.4295 -1.0993
 8669TIP3    H247423   4.726   2.064  14.218  0.5568 -0.1303  0.4908
 8670TIP3   OH247424   1.170   3.341  11.190  0.1982  0.4018  0.5158
 8670TIP3    H147425   1.168   3.328  11.285 -1.4255 -2.5453  0.1297
 8670TIP3    H247426   1.222   3.268  11.157 -1.5936 -0.1820 -1.0839
 8671TIP3   OH247427   4.266   1.363  14.328  0.6326 -0.0196  0.2895
 8671TIP3    H147428   4.253   1.437  14.269 -0.2612  0.1899  0.7275
 8671TIP3    H247429   4.192   1.368  14.389  0.8626 -0.9527  0.6614
 8672TIP3   OH247430   3.814   3.337  15.271  0.6861 -0.0289  0.0599
 8672TIP3    H147431   3.851   3.255  15.302 -0.3209 -0.8873 -0.9655
 8672TIP3    H247432   3.759   3.368  15.343  0.0317 -0.9363 -0.0325
 8673TIP3   OH247433   5.070   6.695   3.506  0.0860  0.1062  0.2775
 8673TIP3    H147434   4.987   6.733   3.533  1.7125  2.7946  1.7656
 8673TIP3    H247435   5.112   6.670   3.589  1.0975 -0.4825 -0.4064
 8674TIP3   OH247436   3.986   1.762  11.589 -0.2042  0.5118  0.4843
 8674TIP3    H147437   4.035   1.743  11.669 -0.8224  1.7416  1.1614
 8674TIP3    H247438   4.045   1.819  11.538 -0.6241  1.3887  0.9717
 8675TIP3   OH247439   2.288   2.556   0.346 -0.0557  0.4439  0.1540
 8675TIP3    H147440   2.250   2.570   0.260 -0.9787  1.2187  0.6742
 8675TIP3    H247441   2.344   2.479   0.336 -1.1821 -0.2636 -0.8080
 8676TIP3   OH247442   1.278   0.142  11.499 -0.3606  0.3168  0.7440
 8676TIP3    H147443   1.326   0.074  11.451 -1.9769  0.5515 -1.2636
 8676TIP3    H247444   1.339   0.169  11.568  0.8329 -2.2052  0.7555
 8677TIP3   OH247445   1.762   1.814   3.715 -0.5643  0.5696  0.1842
 8677TIP3    H147446   1.848   1.772   3.721 -0.7687  0.1152  0.0118
 8677TIP3    H247447   1.736   1.829   3.806  0.4607  2.3191  0.2024
 8678TIP3   OH247448   3.624   4.501  14.549  0.4356 -0.3425  0.4315
 8678TIP3    H147449   3.713   4.526  14.521  0.2240  0.1880  0.2149
 8678TIP3    H247450   3.599   4.570  14.611 -0.8121  0.9283 -1.4357
 8679TIP3   OH247451   3.857   4.409  15.601 -0.5382  0.4823 -0.5404
 8679TIP3    H147452   3.950   4.386  15.592 -0.1681  1.7896 -0.2683
 8679TIP3    H247453   3.810   4.338  15.559  0.5355 -0.9034  0.5471
 8680TIP3   OH247454   2.638   0.612  15.130  0.1120  0.0345 -0.3266
 8680TIP3    H147455   2.570   0.588  15.192 -0.0477 -0.5907 -0.7337
 8680TIP3    H247456   2.612   0.697  15.096  0.6665  0.7880  1.1162
 8681TIP3   OH247457   2.726   4.248   6.603  0.3110  0.1983 -0.1347
 8681TIP3    H147458   2.738   4.332   6.559 -0.9880  0.0257 -0.8229
 8681TIP3    H247459   2.715   4.271   6.695 -1.5527  0.9018 -0.5236
 8682TIP3   OH247460   6.112   6.506  13.872  0.3936 -0.3612 -0.3839
 8682TIP3    H147461   6.051   6.538  13.805  0.3882 -0.5285 -0.4570
 8682TIP3    H247462   6.186   6.567  13.868 -0.4801  0.8115  0.7933
 8683TIP3   OH247463   5.238   2.643  17.115 -0.1108  0.3431 -0.5038
 8683TIP3    H147464   5.256   2.617  17.206  0.2081 -3.0404 -1.4956
 8683TIP3    H247465   5.324   2.641  17.073 -0.6821 -1.2701 -1.6359
 8684TIP3   OH247466   1.615   0.467  15.927  0.0278  0.6010 -0.7779
 8684TIP3    H147467   1.584   0.461  15.837 -1.1084 -0.5050 -0.3391
 8684TIP3    H247468   1.706   0.496  15.920 -0.0137  0.3966 -2.2836
 8685TIP3   OH247469   6.231   1.584  15.809 -0.1620  0.7127  0.3433
 8685TIP3    H147470   6.237   1.592  15.904  0.0365  1.0831  0.3020
 8685TIP3    H247471   6.262   1.496  15.789  0.3166  0.8330  0.5719
 8686TIP3   OH247472   4.975   0.012  12.525  0.4112 -0.6064 -0.0991
 8686TIP3    H147473   5.031   0.074  12.573  1.1185 -2.2038  1.1949
 8686TIP3    H247474   4.888   0.051  12.528  0.9297  0.5442  0.3098
 8687TIP3   OH247475   1.840   4.403  15.000 -0.0283  0.2842  0.3302
 8687TIP3    H147476   1.926   4.367  15.021  0.6466  2.0129  0.6127
 8687TIP3    H247477   1.858   4.485  14.956 -1.5307  1.1388  1.2415
 8688TIP3   OH247478   4.956   1.886   5.039  0.0097 -0.7552  1.0396
 8688TIP3    H147479   4.945   1.981   5.031  1.1203 -0.4518  3.0054
 8688TIP3    H247480   5.049   1.873   5.058 -0.1978 -2.2098  1.1368
 8689TIP3   OH247481   0.709   4.688   2.116  0.2305 -0.6721  0.1265
 8689TIP3    H147482   0.746   4.604   2.144 -1.3784 -1.2753  0.5058
 8689TIP3    H247483   0.646   4.711   2.185  1.7211  1.6104  0.8021
 8690TIP3   OH247484   5.174   1.977  16.450 -0.2174 -0.2093  0.8964
 8690TIP3    H147485   5.202   1.940  16.366 -0.3454 -0.8465  1.1376
 8690TIP3    H247486   5.200   2.069  16.444  0.5404 -0.4406  0.4925
 8691TIP3   OH247487   4.826   0.603   6.198 -0.1680  0.1107 -0.1662
 8691TIP3    H147488   4.869   0.593   6.113 -0.8031 -1.2481 -0.3363
 8691TIP3    H247489   4.810   0.514   6.228 -0.9674  0.5881  0.8684
 8692TIP3   OH247490   4.016   5.455   6.381  0.5439  0.1133 -0.2074
 8692TIP3    H147491   4.106   5.431   6.403  0.1020 -2.3630 -1.0619
 8692TIP3    H247492   4.013   5.451   6.286  0.0046  2.0590 -0.2983
 8693TIP3   OH247493   5.253   5.660  14.469  0.2615 -0.2856  0.1365
 8693TIP3    H147494   5.190   5.617  14.412  0.1406  0.6304 -0.4381
 8693TIP3    H247495   5.202   5.681  14.548 -0.2508  0.7095 -0.4404
 8694TIP3   OH247496   2.044   1.128  16.823 -0.0092 -0.0573  0.1799
 8694TIP3    H147497   2.100   1.135  16.745 -0.0428  0.9843  0.2430
 8694TIP3    H247498   1.964   1.088  16.791  0.1679 -0.0887 -0.2291
 8695TIP3   OH247499   6.118   5.464   3.113  0.0076  0.0296  0.0281
 8695TIP3    H147500   6.065   5.513   3.051  1.2478  0.5151 -0.6807
 8695TIP3    H247501   6.086   5.490   3.199  1.1577  2.7307 -0.3032
 8696TIP3   OH247502   0.124   0.869  15.435 -0.2277  0.6649  0.3534
 8696TIP3    H147503   0.183   0.852  15.362  0.2716 -0.2613  0.9556
 8696TIP3    H247504   0.153   0.808  15.503 -2.2641 -0.2472  0.4429
 8697TIP3   OH247505   4.112   4.602   3.241 -1.4131  0.0637  0.2719
 8697TIP3    H147506   4.115   4.531   3.305 -3.6190 -1.2764 -1.0544
 8697TIP3    H247507   4.019   4.612   3.220 -0.7775  0.6100 -2.5245
 8698TIP3   OH247508   6.605   5.038  13.800  0.2004  0.2906 -0.2019
 8698TIP3    H147509   6.567   4.977  13.737 -0.8422 -0.0574  0.7372
 8698TIP3    H247510   6.626   5.116  13.749 -0.9597  0.1456 -0.9135
 8699TIP3   OH247511   1.363   2.643  10.829  0.7723 -0.0843  0.5184
 8699TIP3    H147512   1.335   2.722  10.874 -1.2420 -0.9505  0.8884
 8699TIP3    H247513   1.417   2.596  10.893 -0.0533 -0.1543  1.1703
 8700TIP3   OH247514   5.266   6.080  14.572  0.1408  0.2647 -0.2426
 8700TIP3    H147515   5.200   6.040  14.629  0.9340  0.6062  0.9328
 8700TIP3    H247516   5.328   6.009  14.554  0.9412  0.6552  0.9237
 8701TIP3   OH247517   4.758   2.511   2.416  0.1188 -0.0413  0.2585
 8701TIP3    H147518   4.694   2.572   2.452  0.3994  0.4947 -0.1406
 8701TIP3    H247519   4.832   2.567   2.390 -0.8318 -0.1536 -2.8993
 8702TIP3   OH247520   5.601   1.032   0.386 -0.3042  0.1605 -0.1703
 8702TIP3    H147521   5.551   1.072   0.457 -1.2969  0.2021 -0.8730
 8702TIP3    H247522   5.536   0.982   0.337  0.8517 -2.0597  0.4950
 8703TIP3   OH247523   4.066   2.431   5.639 -0.1857 -0.3799 -0.6956
 8703TIP3    H147524   4.155   2.452   5.610 -0.0302 -2.4365 -1.7818
 8703TIP3    H247525   4.068   2.447   5.733  0.6220  1.9404 -1.0704
 8704TIP3   OH247526   2.669   4.330   6.219  0.5405 -0.8303  0.1935
 8704TIP3    H147527   2.663   4.346   6.313 -2.0879  1.3827 -0.2609
 8704TIP3    H247528   2.761   4.344   6.197  0.3625  3.4383  1.7036
 8705TIP3   OH247529   0.876   0.711   6.702  0.2679 -0.1594  0.4536
 8705TIP3    H147530   0.900   0.800   6.673  0.3102  0.4732  2.3700
 8705TIP3    H247531   0.960   0.665   6.709  0.4192  0.2195  1.2410
 8706TIP3   OH247532   2.149   0.149  16.645 -0.2780 -0.2326 -0.3207
 8706TIP3    H147533   2.150   0.228  16.591  2.8962  0.0458  0.0996
 8706TIP3    H247534   2.156   0.181  16.735  3.8976 -1.0249 -0.2867
 8707TIP3   OH247535   5.017   0.517   1.669 -0.7131  0.1039  0.0642
 8707TIP3    H147536   5.077   0.452   1.707 -0.7431  0.5254  0.8501
 8707TIP3    H247537   5.073   0.592   1.649 -0.5118 -0.4983 -1.7217
 8708TIP3   OH247538   3.317   3.036  14.515  0.6329  0.5341 -0.5563
 8708TIP3    H147539   3.266   3.117  14.510  0.0074  0.1356 -0.6333
 8708TIP3    H247540   3.252   2.967  14.529  1.1637  0.0447 -0.4860
 8709TIP3   OH247541   3.212   5.319  11.483 -0.0542  0.0334 -0.0792
 8709TIP3    H147542   3.266   5.334  11.406  0.1124  0.1622  0.0634
 8709TIP3    H247543   3.150   5.251  11.456  1.3869 -1.5003  0.3215
 8710TIP3   OH247544   0.494   4.734  11.156  0.4248 -0.2140  0.0503
 8710TIP3    H147545   0.541   4.701  11.233 -0.7983  0.1859  0.9976
 8710TIP3    H247546   0.416   4.679  11.150 -0.6421  1.2070  0.4836
 8711TIP3   OH247547   5.427   3.115  14.696 -0.9658 -0.1355 -0.3867
 8711TIP3    H147548   5.426   3.153  14.608 -1.1631  0.1752 -0.2466
 8711TIP3    H247549   5.353   3.155  14.741  0.2234  1.0929  0.5086
 8712TIP3   OH247550   2.255   3.741   0.478 -0.1991 -0.1467 -0.4711
 8712TIP3    H147551   2.280   3.818   0.529 -0.7143  0.0383 -0.4925
 8712TIP3    H247552   2.229   3.775   0.393 -2.6408 -0.0772  0.2475
 8713TIP3   OH247553   5.335   1.272   4.486 -0.2597 -0.1482  0.1710
 8713TIP3    H147554   5.314   1.328   4.412 -0.0201 -1.4556 -0.8995
 8713TIP3    H247555   5.338   1.331   4.561  1.5624  1.5122 -1.1858
 8714TIP3   OH247556   0.479   6.616   2.889  0.2859 -0.9410  0.1199
 8714TIP3    H147557   0.390   6.613   2.853  0.4112  1.5320 -0.5401
 8714TIP3    H247558   0.481   6.550   2.958 -1.4470 -2.4121 -1.2081
 8715TIP3   OH247559   1.219   1.711   2.748  0.7500 -0.0369 -0.2628
 8715TIP3    H147560   1.162   1.717   2.671  0.1572  1.9705  0.2926
 8715TIP3    H247561   1.304   1.683   2.713 -0.0113 -0.9513 -1.3909
 8716TIP3   OH247562   4.791   3.369  14.569  0.0535  0.6133  0.3752
 8716TIP3    H147563   4.705   3.401  14.598  1.1379  1.1760  3.1053
 8716TIP3    H247564   4.817   3.430  14.500 -1.5544  0.6597 -0.2225
 8717TIP3   OH247565   1.237   0.555   0.853 -0.0445 -0.1039 -0.1026
 8717TIP3    H147566   1.302   0.617   0.822  0.1120  0.3583  1.1184
 8717TIP3    H247567   1.265   0.533   0.942 -1.4004 -0.0937  0.3434
 8718TIP3   OH247568   3.994   0.065  10.846 -0.3443  0.6729  0.4384
 8718TIP3    H147569   4.068   0.108  10.888  2.3357 -1.5535 -1.7631
 8718TIP3    H247570   3.975   0.119  10.770 -0.3085  0.7138  0.4586
 8719TIP3   OH247571   0.706   1.186  16.526 -0.0628 -0.9023 -0.3250
 8719TIP3    H147572   0.733   1.096  16.506  0.8586 -0.5690 -0.6109
 8719TIP3    H247573   0.757   1.209  16.604 -2.2069 -1.5129  1.3136
 8720TIP3   OH247574   5.411   2.614  14.746 -0.3157  0.6146  0.0896
 8720TIP3    H147575   5.396   2.592  14.838 -1.6569  0.3916 -0.1646
 8720TIP3    H247576   5.421   2.709  14.745  0.6950  0.5206  0.5833
 8721TIP3   OH247577   3.456   3.322   6.131  0.0788 -0.7352  0.4135
 8721TIP3    H147578   3.401   3.396   6.158 -1.2823 -1.5651 -0.0336
 8721TIP3    H247579   3.419   3.247   6.176  0.5235 -1.3953 -0.3084
 8722TIP3   OH247580   4.849   4.333  15.550  0.2627  0.3532 -0.0549
 8722TIP3    H147581   4.928   4.385  15.566  0.7044 -0.0570 -0.9344
 8722TIP3    H247582   4.779   4.384  15.591  1.1410  0.1617  1.7298
 8723TIP3   OH247583   1.889   3.109   0.941 -0.2438 -0.4759 -0.2109
 8723TIP3    H147584   1.828   3.074   1.006  0.0212 -0.2275  0.1813
 8723TIP3    H247585   1.975   3.086   0.975 -0.1253 -1.0405 -0.8863
 8724TIP3   OH247586   1.059   2.546  14.713 -1.2123  0.2688 -0.6512
 8724TIP3    H147587   1.057   2.458  14.753 -1.2223 -0.2782 -1.8470
 8724TIP3    H247588   1.069   2.530  14.620  0.8539  1.5981 -0.6930
 8725TIP3   OH247589   5.508   6.564   2.494  0.2549  0.3298  0.0023
 8725TIP3    H147590   5.524   6.509   2.570  0.5500  0.3111 -0.0705
 8725TIP3    H247591   5.479   6.504   2.426 -1.9685  0.5965  0.6703
 8726TIP3   OH247592   6.732   0.794  13.944 -0.0142 -0.0878  0.5592
 8726TIP3    H147593   6.660   0.810  14.005 -0.6209  0.1163 -0.1960
 8726TIP3    H247594   6.793   0.866  13.959 -0.3207  0.1453  0.6906
 8727TIP3   OH247595   6.422   3.907  15.137 -0.5690 -0.4832 -0.5617
 8727TIP3    H147596   6.418   3.971  15.208  0.1447 -0.1195 -0.8470
 8727TIP3    H247597   6.426   3.822  15.182 -1.8748 -0.3649 -0.1816
 8728TIP3   OH247598   2.980   3.271   6.297  0.5025 -0.2984 -0.1875
 8728TIP3    H147599   2.888   3.296   6.287  0.4734 -0.5838 -0.6540
 8728TIP3    H247600   3.027   3.332   6.240  0.6728  0.2684  0.5415
 8729TIP3   OH247601   3.673   2.379   2.493  0.0624 -0.3609 -0.5818
 8729TIP3    H147602   3.709   2.410   2.410  0.2994  2.9841  0.6906
 8729TIP3    H247603   3.600   2.322   2.468  1.0941 -0.6471 -3.0761
 8730TIP3   OH247604   6.641   3.660  15.699 -0.7149  0.3802 -0.1710
 8730TIP3    H147605   6.646   3.729  15.633 -0.6679  0.8582  0.3320
 8730TIP3    H247606   6.697   3.690  15.771  0.7807 -1.0186 -0.7041
 8731TIP3   OH247607   3.559   5.820   4.644  0.1413  0.6895 -0.0203
 8731TIP3    H147608   3.638   5.769   4.623  0.4916  1.8780 -1.6524
 8731TIP3    H247609   3.580   5.909   4.617 -1.2405  1.3058  0.8978
 8732TIP3   OH247610   3.009   5.373  16.165  0.4003  0.5644 -0.3257
 8732TIP3    H147611   2.941   5.305  16.170 -0.7306  1.6688 -0.5321
 8732TIP3    H247612   3.091   5.325  16.175 -0.3605 -0.9045 -0.9743
 8733TIP3   OH247613   0.402   6.177   5.146  0.2414  0.2827 -0.5122
 8733TIP3    H147614   0.348   6.127   5.207 -1.3820  1.3616 -1.0155
 8733TIP3    H247615   0.343   6.244   5.111  1.5399  0.6405 -2.1173
 8734TIP3   OH247616   3.568   2.400   5.385 -0.0953  0.2664 -0.4409
 8734TIP3    H147617   3.650   2.407   5.434  0.7561 -1.3922 -1.5469
 8734TIP3    H247618   3.583   2.451   5.305 -1.3740  2.7243  0.8308
 8735TIP3   OH247619   0.682   6.319  12.141  0.2121 -0.3631  0.0907
 8735TIP3    H147620   0.687   6.355  12.230 -0.2888 -0.5807  0.2086
 8735TIP3    H247621   0.728   6.235  12.146  1.6718  0.4034 -0.2614
 8736TIP3   OH247622   4.255   2.979   2.349  0.0599  0.3961  0.6744
 8736TIP3    H147623   4.257   2.919   2.424 -0.4672  0.3814  0.6837
 8736TIP3    H247624   4.245   2.922   2.273  1.4596  0.3584  0.5146
 8737TIP3   OH247625   0.718   2.837   5.306  0.3624 -0.4909 -0.3205
 8737TIP3    H147626   0.783   2.905   5.327 -0.3881  0.1516 -0.0404
 8737TIP3    H247627   0.714   2.837   5.211  0.7142 -0.4761 -0.3380
 8738TIP3   OH247628   1.218   0.138   2.833  0.3142 -0.5442  0.1654
 8738TIP3    H147629   1.244   0.063   2.886 -1.0062 -1.4999 -0.5136
 8738TIP3    H247630   1.130   0.160   2.864  0.8565  1.0091  0.6596
 8739TIP3   OH247631   3.153   2.463  11.919  0.5968 -0.3109 -0.1786
 8739TIP3    H147632   3.059   2.444  11.912  0.0419  1.5173  1.8797
 8739TIP3    H247633   3.193   2.377  11.935 -0.7159 -1.0906 -0.9453
 8740TIP3   OH247634   3.543   0.391  11.614  0.6543  0.4166  0.3081
 8740TIP3    H147635   3.599   0.384  11.537  1.6336 -0.6275  1.1029
 8740TIP3    H247636   3.466   0.338  11.593  0.2259  1.3605 -0.5424
 8741TIP3   OH247637   1.385   4.143  14.428 -0.2942  0.0924 -0.6186
 8741TIP3    H147638   1.355   4.167  14.516 -0.3086  1.7112 -1.0509
 8741TIP3    H247639   1.416   4.053  14.437  0.9560  0.6829  1.3591
 8742TIP3   OH247640   4.916   1.132  12.933  0.0528  0.0326 -0.5988
 8742TIP3    H147641   4.991   1.119  12.875  0.4744  2.1122 -0.5351
 8742TIP3    H247642   4.848   1.169  12.878 -0.4630 -0.4887 -0.3283
 8743TIP3   OH247643   2.801   2.613   4.896  0.7373 -0.6477 -0.2881
 8743TIP3    H147644   2.840   2.644   4.978  0.2863  3.6523 -1.5935
 8743TIP3    H247645   2.720   2.570   4.922 -0.0623  1.8300  1.4773
 8744TIP3   OH247646   6.388   4.117   3.403 -0.4165  0.1920  0.3894
 8744TIP3    H147647   6.472   4.161   3.390  0.0399 -0.8825 -0.3823
 8744TIP3    H247648   6.323   4.187   3.405  0.2954  0.8883 -0.9157
 8745TIP3   OH247649   2.238   4.968  13.887 -0.6353 -0.2056  0.0205
 8745TIP3    H147650   2.312   4.942  13.833 -1.3291 -1.4988 -0.3398
 8745TIP3    H247651   2.219   4.890  13.940 -0.9648  0.5162  0.9820
 8746TIP3   OH247652   0.339   5.247   1.354  0.4429 -0.1131  0.0290
 8746TIP3    H147653   0.307   5.167   1.396  0.4803 -0.1288  0.0277
 8746TIP3    H247654   0.331   5.229   1.260  2.0539 -0.7597  0.0127
 8747TIP3   OH247655   6.752   5.976   6.092 -0.1181  0.0184  0.6487
 8747TIP3    H147656   6.677   5.999   6.147  0.1902 -0.8483  1.4333
 8747TIP3    H247657   6.758   6.049   6.030 -0.8505  0.7034  1.3561
 8748TIP3   OH247658   5.946   5.629   5.646 -0.3793 -0.5789  0.9806
 8748TIP3    H147659   5.902   5.583   5.718  0.0218  0.0452  1.6262
 8748TIP3    H247660   5.886   5.699   5.623 -0.1260 -0.2684  1.2668
 8749TIP3   OH247661   0.853   3.938   5.417  0.1621 -0.2586  0.4059
 8749TIP3    H147662   0.871   3.943   5.323  2.1964 -0.7546  0.7512
 8749TIP3    H247663   0.824   3.847   5.430  3.4899 -1.3258  0.8187
 8750TIP3   OH247664   0.171   0.071  15.170 -0.7559 -0.4581 -0.4981
 8750TIP3    H147665   0.187  -0.019  15.199 -0.1592 -0.0289  0.5138
 8750TIP3    H247666   0.087   0.094  15.210 -0.8650 -0.5281 -0.6832
 8751TIP3   OH247667   0.420   3.270  11.707 -0.4711  0.4496 -0.2512
 8751TIP3    H147668   0.466   3.248  11.626 -1.5652 -0.4809 -0.6260
 8751TIP3    H247669   0.355   3.335  11.682  0.6101  1.7741  0.2861
 8752TIP3   OH247670   3.170   5.925  10.972  0.2750 -0.1780  0.0500
 8752TIP3    H147671   3.243   5.913  11.033  0.5838  0.3144 -0.2212
 8752TIP3    H247672   3.121   5.843  10.978  0.2240 -0.0763  1.0705
 8753TIP3   OH247673   3.628   1.973  12.740  0.3456 -0.1035  0.4104
 8753TIP3    H147674   3.585   1.975  12.655  0.6705 -2.0872  0.1608
 8753TIP3    H247675   3.649   2.064  12.759 -0.0832  0.4027 -1.4560
 8754TIP3   OH247676   0.877   2.511   1.147 -0.2010  0.4288  0.3102
 8754TIP3    H147677   0.799   2.457   1.137 -0.0275  0.3310 -0.5581
 8754TIP3    H247678   0.855   2.594   1.105 -0.2223  0.7919  1.0293
 8755TIP3   OH247679   2.732   0.274   0.385 -0.3265 -0.1987  0.0086
 8755TIP3    H147680   2.759   0.306   0.299 -0.2984  0.0652  0.1142
 8755TIP3    H247681   2.644   0.310   0.397 -0.2917 -0.1570  0.1317
 8756TIP3   OH247682   4.279   4.128  11.862  0.3616 -0.2810 -0.2496
 8756TIP3    H147683   4.222   4.198  11.830 -1.4292 -2.0861 -1.1236
 8756TIP3    H247684   4.275   4.061  11.794  0.6476 -1.9959  1.3842
 8757TIP3   OH247685   5.124   1.475   6.286 -0.1736  0.2112  0.6045
 8757TIP3    H147686   5.170   1.419   6.349  0.3615  0.5115  0.4841
 8757TIP3    H247687   5.034   1.478   6.318 -0.1989 -0.6979  0.6283
 8758TIP3   OH247688   6.076   4.742   1.832  0.2228 -0.1912  0.3468
 8758TIP3    H147689   6.135   4.795   1.885 -1.4295  0.2892  1.7528
 8758TIP3    H247690   6.034   4.683   1.894 -1.4003  0.0684 -0.4749
 8759TIP3   OH247691   6.163   5.328  16.425 -0.2359  0.8363  0.1194
 8759TIP3    H147692   6.160   5.359  16.516 -0.8950 -1.5789  0.9507
 8759TIP3    H247693   6.256   5.313  16.409 -0.2537 -0.1281  0.8862
 8760TIP3   OH247694   2.764   1.582   2.862  0.3676  0.2200  0.1252
 8760TIP3    H147695   2.811   1.612   2.939  0.9102 -0.3523  0.0261
 8760TIP3    H247696   2.706   1.513   2.894  2.5593 -1.9205 -0.3931
 8761TIP3   OH247697   6.168   3.756  15.416 -0.5351  0.0566 -0.2309
 8761TIP3    H147698   6.218   3.708  15.483 -1.7769 -0.8115  0.0948
 8761TIP3    H247699   6.226   3.827  15.390  0.7993 -0.8109  0.2808
 8762TIP3   OH247700   2.783   0.588  16.080  0.0549  0.2519 -0.2569
 8762TIP3    H147701   2.710   0.597  16.140  0.3822 -2.6157  0.6566
 8762TIP3    H247702   2.821   0.503  16.101  2.8748  1.1186 -1.5675
 8763TIP3   OH247703   0.629   5.071  13.787  0.2676  0.2720  0.5970
 8763TIP3    H147704   0.582   5.138  13.837 -0.4910 -1.0329  1.6706
 8763TIP3    H247705   0.648   5.113  13.703 -0.5198  1.7029  1.1094
 8764TIP3   OH247706   3.040   4.306   1.724 -0.0210 -0.2329  0.2715
 8764TIP3    H147707   3.129   4.270   1.731 -0.3371 -1.2060 -0.6079
 8764TIP3    H247708   3.006   4.269   1.643 -1.2909  0.0290  0.6814
 8765TIP3   OH247709   3.170   1.611  13.043  0.0263 -0.5092 -0.4928
 8765TIP3    H147710   3.206   1.614  12.954 -0.2635  1.4853 -0.5642
 8765TIP3    H247711   3.210   1.685  13.088 -0.8437 -0.7201  0.6626
 8766TIP3   OH247712   1.893   3.211   2.027  0.3897 -0.7969 -0.0738
 8766TIP3    H147713   1.985   3.188   2.042  0.7685  1.3579  1.1636
 8766TIP3    H247714   1.897   3.270   1.951 -0.0103 -0.9379 -0.2024
 8767TIP3   OH247715   4.682   3.993   3.101  0.3150 -0.0850  0.5238
 8767TIP3    H147716   4.601   4.042   3.111  0.2400 -0.3556  1.2711
 8767TIP3    H247717   4.728   4.005   3.184 -0.0472 -1.9138  0.9953
 8768TIP3   OH247718   3.110   2.809   1.599  0.1023 -0.1836  0.6480
 8768TIP3    H147719   3.103   2.871   1.672  1.0655  1.4005 -0.5682
 8768TIP3    H247720   3.204   2.803   1.582 -0.0811 -0.9030 -0.1728
 8769TIP3   OH247721   0.236   0.690   3.438 -0.3429 -0.2335 -1.1863
 8769TIP3    H147722   0.303   0.757   3.453 -0.0212 -0.2601 -2.4588
 8769TIP3    H247723   0.192   0.681   3.522  0.5679  0.5403 -0.6173
 8770TIP3   OH247724   3.730   3.331  16.201 -0.4026 -0.2176  0.1114
 8770TIP3    H147725   3.645   3.338  16.243 -0.6052 -1.6876 -0.0141
 8770TIP3    H247726   3.786   3.288  16.267  0.7606  2.3991  0.8928
 8771TIP3   OH247727   6.559   4.501  14.423 -0.4052  0.2799  0.7532
 8771TIP3    H147728   6.654   4.512  14.422 -0.4024  0.1122 -1.6732
 8771TIP3    H247729   6.525   4.591  14.424 -0.2403  0.3558 -0.5641
 8772TIP3   OH247730   3.132   3.023   0.477  0.4705  0.0239 -0.2821
 8772TIP3    H147731   3.070   2.979   0.535  2.0545 -2.1273 -0.1849
 8772TIP3    H247732   3.199   3.059   0.536 -0.1788  1.5816 -0.4591
 8773TIP3   OH247733   1.615   1.631  15.459  0.0649 -0.1107 -0.8937
 8773TIP3    H147734   1.523   1.651  15.438 -0.1545  1.4302  1.4052
 8773TIP3    H247735   1.637   1.692  15.529  2.1200 -2.1537  0.2701
 8774TIP3   OH247736   0.695   1.912  12.442  0.4315 -0.2293 -0.4645
 8774TIP3    H147737   0.605   1.913  12.410  0.5226  0.7963 -0.7137
 8774TIP3    H247738   0.695   1.972  12.516 -0.1368 -3.7861  2.5205
 8775TIP3   OH247739   0.265   5.313  13.659  0.6398 -0.1288 -0.1825
 8775TIP3    H147740   0.349   5.357  13.654 -0.1853  1.3535 -1.6977
 8775TIP3    H247741   0.271   5.242  13.595 -0.1298  1.5523 -2.1539
 8776TIP3   OH247742   2.990   5.088  15.100  0.6002 -0.2308 -0.1477
 8776TIP3    H147743   2.901   5.057  15.082  0.9093  0.0318 -2.1857
 8776TIP3    H247744   2.978   5.157  15.165 -0.8610  0.8610 -1.5413
 8777TIP3   OH247745   6.149   5.909  11.414 -0.4486  0.0238 -0.0303
 8777TIP3    H147746   6.158   5.827  11.464 -1.2393 -0.3421 -0.4735
 8777TIP3    H247747   6.239   5.932  11.389 -0.2224 -0.7315  0.0622
 8778TIP3   OH247748   3.310   3.660  13.772  0.3768 -0.1066  0.2542
 8778TIP3    H147749   3.355   3.575  13.776 -1.4399 -1.0274  1.5526
 8778TIP3    H247750   3.353   3.705  13.700  2.7875 -1.3053  0.8569
 8779TIP3   OH247751   2.238   4.287   2.962 -0.3743  0.4737  0.3506
 8779TIP3    H147752   2.210   4.363   2.911 -1.0319 -1.5277 -2.3961
 8779TIP3    H247753   2.167   4.274   3.025 -1.3255  0.8078 -0.6320
 8780TIP3   OH247754   4.004   6.333   0.494  0.0538  0.1294 -0.7641
 8780TIP3    H147755   4.047   6.291   0.419  1.1122 -0.5383  0.2076
 8780TIP3    H247756   4.069   6.330   0.564 -1.4773 -0.6454  0.6574
 8781TIP3   OH247757   3.073   3.447   2.027  0.4306 -0.6901 -0.1567
 8781TIP3    H147758   3.075   3.353   2.044  0.3268 -0.2226  2.6120
 8781TIP3    H247759   3.165   3.471   2.015  0.5903 -0.9237  0.5485
 8782TIP3   OH247760   4.661   4.161  16.294 -0.8134  0.6940 -0.4939
 8782TIP3    H147761   4.742   4.178  16.342 -0.7068 -0.5740 -0.1989
 8782TIP3    H247762   4.687   4.162  16.202 -0.6697  1.3084 -0.4511
 8783TIP3   OH247763   0.401   6.149   4.721 -0.7028  0.0910  0.3513
 8783TIP3    H147764   0.435   6.096   4.793 -2.6190 -1.5371  0.0974
 8783TIP3    H247765   0.310   6.121   4.712 -1.4203  2.5758 -0.5909
 8784TIP3   OH247766   2.655   6.252   2.612  0.1318 -0.4311 -0.0624
 8784TIP3    H147767   2.661   6.205   2.695  1.3738  0.2914  0.2703
 8784TIP3    H247768   2.570   6.226   2.576 -0.4658 -0.6809  1.4734
 8785TIP3   OH247769   1.809   2.603  11.386  0.6735  0.4824  0.0443
 8785TIP3    H147770   1.807   2.600  11.291 -0.1640 -0.4220  0.0770
 8785TIP3    H247771   1.718   2.595  11.413  1.0453 -1.2393  0.9431
 8786TIP3   OH247772   5.432   1.426  14.019 -0.0137  0.0273 -0.3766
 8786TIP3    H147773   5.506   1.377  14.052  0.2922  0.7753  0.0653
 8786TIP3    H247774   5.471   1.493  13.962 -0.3369  0.4262 -0.1376
 8787TIP3   OH247775   3.454   0.969   1.097 -0.4773 -0.0752  0.1290
 8787TIP3    H147776   3.524   0.975   1.162  0.4765 -2.3101 -0.6138
 8787TIP3    H247777   3.389   0.911   1.136 -0.1468 -0.9951 -0.6344
 8788TIP3   OH247778   3.992   3.921   1.213  0.1397  0.4493 -0.1680
 8788TIP3    H147779   3.991   3.869   1.294 -0.7756  1.3352  0.3926
 8788TIP3    H247780   4.085   3.928   1.191  0.4299  0.5782  1.0559
 8789TIP3   OH247781   6.113   0.867  11.360 -0.4011  0.2121  0.5214
 8789TIP3    H147782   6.033   0.844  11.407 -1.1190  1.1885 -0.1875
 8789TIP3    H247783   6.083   0.921  11.287  0.7785 -0.6051 -0.5874
 8790TIP3   OH247784   6.064   0.024  12.930 -0.4294 -0.5502 -0.2990
 8790TIP3    H147785   6.149   0.052  12.894 -0.7143 -1.2286 -1.5229
 8790TIP3    H247786   5.999   0.072  12.878 -0.7828  0.9107  1.4480
 8791TIP3   OH247787   3.237   2.597  15.711 -0.6249  0.0971 -0.1292
 8791TIP3    H147788   3.222   2.589  15.805 -0.6116 -0.3753 -0.1677
 8791TIP3    H247789   3.153   2.625  15.675 -0.9303 -0.7832 -0.1136
 8792TIP3   OH247790   6.135   4.928  11.368 -0.4869  0.0831  0.3443
 8792TIP3    H147791   6.133   4.925  11.273 -0.8540 -0.3935  0.3668
 8792TIP3    H247792   6.224   4.955  11.389 -0.0615 -0.9392 -0.1069
 8793TIP3   OH247793   3.284   3.237  11.083 -0.6461 -0.5375  0.3112
 8793TIP3    H147794   3.273   3.166  11.146 -1.0564 -1.5747 -0.9034
 8793TIP3    H247795   3.203   3.288  11.089 -0.7182 -0.6832  0.5588
 8794TIP3   OH247796   6.779   4.162  14.517  0.4230 -0.0498 -0.2302
 8794TIP3    H147797   6.785   4.246  14.564  0.8711 -0.0034 -0.3660
 8794TIP3    H247798   6.851   4.110  14.552 -0.3610 -0.6878  0.4623
 8795TIP3   OH247799   3.975   0.656   1.006 -0.0193  0.0423 -0.7086
 8795TIP3    H147800   3.944   0.746   1.009 -0.6448 -0.1142 -2.1295
 8795TIP3    H247801   3.895   0.603   1.009  0.4025 -0.5207  1.7293
 8796TIP3   OH247802   6.332   0.413   3.800  0.3610 -0.4582  0.3564
 8796TIP3    H147803   6.341   0.353   3.874  1.7848  0.0197  0.5831
 8796TIP3    H247804   6.409   0.470   3.805 -1.1388  1.6206  0.3375
 8797TIP3   OH247805   4.208   6.039  11.086  0.0085  0.5688 -0.1168
 8797TIP3    H147806   4.127   5.998  11.115  1.2035 -1.8758 -0.0753
 8797TIP3    H247807   4.232   6.099  11.156  1.0900 -2.7695  2.5302
 8798TIP3   OH247808   6.391   5.091  13.483  0.2634  0.2649  1.1454
 8798TIP3    H147809   6.466   5.088  13.425  0.5863 -0.2796  1.5889
 8798TIP3    H247810   6.403   5.017  13.543 -1.9991 -1.4989 -0.4592
 8799TIP3   OH247811   4.530   0.040   5.698  0.1371 -0.5972 -0.5890
 8799TIP3    H147812   4.586   0.066   5.625 -0.7335 -1.0232 -1.4082
 8799TIP3    H247813   4.591   0.027   5.771  1.1431 -1.3996 -1.5598
 8800TIP3   OH247814   6.172   3.875   0.744  0.0343  0.1634  0.4533
 8800TIP3    H147815   6.218   3.825   0.676 -0.1877  0.8498 -0.2012
 8800TIP3    H247816   6.107   3.813   0.778  1.2073 -0.7143  1.1727
 8801TIP3   OH247817   5.100   3.171  15.950  0.3349 -0.2780 -0.1184
 8801TIP3    H147818   5.085   3.148  16.042  0.2725 -0.3744 -0.1505
 8801TIP3    H247819   5.178   3.122  15.925  1.0437  0.6698  0.2188
 8802TIP3   OH247820   2.147   4.842  13.574  0.7090  0.4864 -0.3560
 8802TIP3    H147821   2.151   4.795  13.656  0.5540  0.5905 -0.2886
 8802TIP3    H247822   2.072   4.805  13.528  1.6755 -0.5991 -1.0890
 8803TIP3   OH247823   2.302   2.474  16.962  0.0463 -0.2831 -0.1260
 8803TIP3    H147824   2.266   2.447  17.047 -0.0330 -2.7393 -0.9023
 8803TIP3    H247825   2.388   2.431  16.958  0.3406  0.3723 -1.0040
 8804TIP3   OH247826   1.923   3.563   2.004  0.4655  0.1716 -0.2938
 8804TIP3    H147827   2.004   3.515   1.987  0.5038  0.1127  0.0442
 8804TIP3    H247828   1.919   3.569   2.100 -0.5847 -0.9558 -0.2551
 8805TIP3   OH247829   0.192   1.327  14.641 -0.2770  0.0164 -0.1503
 8805TIP3    H147830   0.151   1.385  14.704  0.2706 -0.4120  0.6182
 8805TIP3    H247831   0.132   1.325  14.567  0.3840  2.6818 -0.8052
 8806TIP3   OH247832   4.550   3.005   0.043 -0.5726 -0.4233  0.7616
 8806TIP3    H147833   4.616   3.069   0.017  1.6122 -2.5371  0.9838
 8806TIP3    H247834   4.468   3.056   0.047  0.8856  2.0941 -0.1345
 8807TIP3   OH247835   0.911   2.397   0.105 -0.0629  0.1360  0.0704
 8807TIP3    H147836   0.816   2.396   0.116 -0.1852  1.2893 -0.8381
 8807TIP3    H247837   0.934   2.490   0.108  1.2159 -0.2178  1.8112
 8808TIP3   OH247838   4.573   0.391   2.241 -0.2757 -0.1807 -0.7712
 8808TIP3    H147839   4.617   0.449   2.177  0.8405  1.0753  1.0918
 8808TIP3    H247840   4.640   0.327   2.265 -0.8972 -1.0443 -1.3174
 8809TIP3   OH247841   3.865   2.326   1.734 -0.4732 -0.5390 -0.0059
 8809TIP3    H147842   3.878   2.259   1.667  1.3064 -0.2137  0.0020
 8809TIP3    H247843   3.771   2.344   1.732 -0.6296 -1.4601 -1.5189
 8810TIP3   OH247844   6.720   5.105   0.735 -0.1825  0.2246  0.1046
 8810TIP3    H147845   6.716   5.168   0.663  0.3805  2.2818  1.7911
 8810TIP3    H247846   6.701   5.158   0.813  2.6025 -1.2212  1.8275
 8811TIP3   OH247847   5.302   3.848   4.958  0.1357  0.1026  0.2550
 8811TIP3    H147848   5.259   3.869   4.875 -0.9949 -0.5490  0.6492
 8811TIP3    H247849   5.373   3.789   4.934  0.9130  1.3219 -0.4315
 8812TIP3   OH247850   3.741   3.975   2.002  0.2328 -0.3850 -0.1624
 8812TIP3    H147851   3.776   3.981   2.091 -1.5238 -1.3383  0.6099
 8812TIP3    H247852   3.753   4.063   1.967 -3.4915  1.4612  2.7564
 8813TIP3   OH247853   2.860   1.703  11.400  0.3752  0.0864 -0.7908
 8813TIP3    H147854   2.818   1.758  11.334 -0.8976 -1.3324 -1.1812
 8813TIP3    H247855   2.910   1.640  11.349  0.1685 -0.4103 -0.3757
 8814TIP3   OH247856   1.767   5.397  13.030  0.4538 -0.4611  0.6868
 8814TIP3    H147857   1.805   5.310  13.021 -0.2148 -0.6834  0.0207
 8814TIP3    H247858   1.676   5.388  13.000  0.6672  0.6934 -0.3591
 8815TIP3   OH247859   0.268   3.041   0.434 -0.4343  0.0422  0.1946
 8815TIP3    H147860   0.295   3.010   0.520 -3.1429 -0.6397  0.8546
 8815TIP3    H247861   0.230   3.128   0.450 -0.3577  0.1890 -0.3994
 8816TIP3   OH247862   0.174   5.431  13.320 -0.0732  0.4282  0.0283
 8816TIP3    H147863   0.202   5.476  13.400 -2.1822  1.4414  0.2120
 8816TIP3    H247864   0.111   5.366  13.350  0.2185 -0.1847 -0.6615
 8817TIP3   OH247865   6.525   1.675  15.743  0.0840  0.0443  0.0966
 8817TIP3    H147866   6.619   1.660  15.736 -0.2254 -1.5599 -0.7837
 8817TIP3    H247867   6.488   1.590  15.765 -0.9610  1.1020  2.6057
 8818TIP3   OH247868   4.805   0.055   3.995 -0.0264  0.4686  0.1344
 8818TIP3    H147869   4.811   0.148   3.973  1.9457  0.2610 -0.3256
 8818TIP3    H247870   4.835   0.010   3.916  0.0746 -0.5234  0.7320
 8819TIP3   OH247871   0.042   0.922   5.636  0.0181  0.7380  0.6717
 8819TIP3    H147872  -0.012   0.885   5.706  0.4554  1.1922  1.2475
 8819TIP3    H247873   0.018   0.871   5.558 -0.5276  0.2885  1.1318
 8820TIP3   OH247874   2.717   2.795   3.405  0.2280  0.2908 -0.1131
 8820TIP3    H147875   2.627   2.769   3.421 -0.1224  0.6212 -1.4928
 8820TIP3    H247876   2.768   2.752   3.474 -0.9583 -0.0132  0.5751
 8821TIP3   OH247877   1.752   2.019  10.151 -0.5623 -0.3812 -0.3223
 8821TIP3    H147878   1.774   2.025  10.244 -1.5067  0.4922 -0.1386
 8821TIP3    H247879   1.795   2.094  10.111 -0.3249 -0.6424 -0.5593
 8822TIP3   OH247880   4.832   3.365   5.436  0.0819 -0.0123  0.4945
 8822TIP3    H147881   4.864   3.435   5.493 -2.4983 -0.7956  3.0500
 8822TIP3    H247882   4.770   3.409   5.378  0.9299  0.3836 -0.1171
 8823TIP3   OH247883   4.869   6.736  16.021  0.1892 -0.3651 -0.1189
 8823TIP3    H147884   4.844   6.753  16.112  2.6656 -1.4167  0.8099
 8823TIP3    H247885   4.959   6.767  16.015  0.2032 -0.7391 -2.1028
 8824TIP3   OH247886   4.309   6.224   4.106 -0.3774 -0.8091 -0.1393
 8824TIP3    H147887   4.402   6.205   4.119 -0.0413  0.4951 -0.6160
 8824TIP3    H247888   4.295   6.210   4.013 -0.3500  0.2739 -0.3125
 8825TIP3   OH247889   0.584   3.106   5.098  0.5199  0.2086 -0.2844
 8825TIP3    H147890   0.662   3.146   5.136  1.0119  0.5029 -1.5655
 8825TIP3    H247891   0.583   3.137   5.008 -1.2466  0.4427 -0.2003
 8826TIP3   OH247892   4.364   4.143  15.885  0.3322  0.6484  0.1569
 8826TIP3    H147893   4.381   4.066  15.939  1.4985  0.6543 -0.1834
 8826TIP3    H247894   4.417   4.130  15.807 -3.1011 -0.4589 -2.0857
 8827TIP3   OH247895   4.326   0.164  11.238 -0.5176 -0.2772  0.2509
 8827TIP3    H147896   4.415   0.172  11.203 -1.1636 -0.3900 -1.4820
 8827TIP3    H247897   4.324   0.226  11.311  1.2144 -0.8467  0.8080
 8828TIP3   OH247898   0.197   1.552  12.389  0.1755  0.2735 -0.0057
 8828TIP3    H147899   0.226   1.478  12.442  2.1353  2.1375  1.6306
 8828TIP3    H247900   0.203   1.521  12.299  1.1819 -1.4848  0.6540
 8829TIP3   OH247901   4.031   1.411  14.462 -0.3690  0.3063  0.4170
 8829TIP3    H147902   3.987   1.329  14.484  0.2366  0.0280  0.5784
 8829TIP3    H247903   4.019   1.467  14.539 -1.6620  0.7421 -0.0806
 8830TIP3   OH247904   3.872   4.621  12.798 -0.3246  0.3736  0.1411
 8830TIP3    H147905   3.949   4.677  12.801  0.9294 -1.2263 -1.2345
 8830TIP3    H247906   3.886   4.556  12.867  0.1304 -0.6068 -0.8555
 8831TIP3   OH247907   5.288   5.154  14.707  0.1960 -0.4989 -0.5192
 8831TIP3    H147908   5.324   5.065  14.700  0.3977 -0.3955 -0.8076
 8831TIP3    H247909   5.203   5.149  14.664  0.9345 -0.1470 -2.0928
 8832TIP3   OH247910   2.190   2.571  13.891 -0.4571 -0.8673  0.0265
 8832TIP3    H147911   2.198   2.625  13.969 -1.1939  0.2497 -0.6537
 8832TIP3    H247912   2.214   2.629  13.818 -2.5077 -1.0506 -0.8323
 8833TIP3   OH247913   3.728   5.614   0.617  0.3850 -0.3619  0.2744
 8833TIP3    H147914   3.773   5.679   0.670  0.9195  0.2454 -0.9104
 8833TIP3    H247915   3.674   5.665   0.556  0.1944 -1.0327 -0.1295
 8834TIP3   OH247916   3.670   1.812  10.473 -0.6257  0.0254  0.3337
 8834TIP3    H147917   3.618   1.732  10.484 -1.5411  0.8562  2.3563
 8834TIP3    H247918   3.611   1.882  10.503  1.1036  1.1512  1.1632
 8835TIP3   OH247919   4.479   1.387   5.777 -0.1957 -0.5286  0.2047
 8835TIP3    H147920   4.477   1.305   5.727 -1.4500 -0.5093  0.2144
 8835TIP3    H247921   4.505   1.360   5.865  0.6599 -0.7437 -0.1074
 8836TIP3   OH247922   6.482   5.454  14.475 -0.0615 -0.4784  0.1925
 8836TIP3    H147923   6.549   5.406  14.427 -1.1612 -3.3567  1.4736
 8836TIP3    H247924   6.520   5.470  14.561 -0.8034 -1.6661  0.7503
 8837TIP3   OH247925   2.819   4.326   1.478  0.3782  0.5850 -0.0995
 8837TIP3    H147926   2.884   4.274   1.430 -2.3981 -0.5757 -2.7586
 8837TIP3    H247927   2.836   4.416   1.450  1.1469  0.3513 -0.4171
 8838TIP3   OH247928   5.569   2.827  14.127 -0.4251 -0.0002  0.0972
 8838TIP3    H147929   5.497   2.883  14.098  0.0345  2.1128  2.8882
 8838TIP3    H247930   5.634   2.887  14.163  2.8247 -1.8451 -2.3540
 8839TIP3   OH247931   5.589   5.991   4.307  0.6097 -0.3677 -0.2501
 8839TIP3    H147932   5.634   6.016   4.226  0.9265  2.5012  0.7573
 8839TIP3    H247933   5.657   5.995   4.375 -0.1662 -0.5034  0.5452
 8840TIP3   OH247934   6.770   6.203  14.333  0.2490 -0.4497  0.0037
 8840TIP3    H147935   6.727   6.287  14.348  1.4064  0.0828  0.4181
 8840TIP3    H247936   6.752   6.183  14.241 -2.1936 -1.0248  0.5738
 8841TIP3   OH247937   5.265   4.873  14.534 -0.7097 -0.5136 -0.6534
 8841TIP3    H147938   5.308   4.787  14.532  0.6880  0.1750 -0.4091
 8841TIP3    H247939   5.173   4.853  14.552 -0.3006 -1.9265 -0.0778
 8842TIP3   OH247940   6.314   4.679   5.369 -0.1435 -0.1121  0.2301
 8842TIP3    H147941   6.382   4.682   5.438 -0.5651 -1.2359  0.6948
 8842TIP3    H247942   6.363   4.669   5.288  0.2399 -1.4856  0.6145
 8843TIP3   OH247943   6.570   4.434  12.236 -0.5896  0.1187  0.3229
 8843TIP3    H147944   6.576   4.438  12.331 -0.4129 -0.3289  0.3280
 8843TIP3    H247945   6.476   4.428  12.218 -0.6684  0.9440  0.4424
 8844TIP3   OH247946   3.760   4.018  14.010  0.1292  0.1400  0.6290
 8844TIP3    H147947   3.751   4.092  13.949 -0.6437 -0.8026 -0.4159
 8844TIP3    H247948   3.854   4.013  14.027 -0.0115  2.8948  2.6684
 8845TIP3   OH247949   5.098   5.224  13.639 -0.2519 -0.5991  0.0103
 8845TIP3    H147950   5.072   5.290  13.704  0.3817 -1.6758  1.3755
 8845TIP3    H247951   5.020   5.213  13.584 -0.4385  1.1198 -0.0929
 8846TIP3   OH247952   2.515   1.618  14.268 -0.2941 -0.2301 -0.0230
 8846TIP3    H147953   2.448   1.568  14.315 -1.8058  0.0821 -1.7632
 8846TIP3    H247954   2.466   1.681  14.215  1.3446 -0.2255 -1.6110
 8847TIP3   OH247955   1.277   2.003  15.898 -0.4524 -0.0988 -0.4024
 8847TIP3    H147956   1.307   1.929  15.845 -0.3620  1.9680 -3.3447
 8847TIP3    H247957   1.182   2.001  15.890 -0.4541  0.0924 -0.4196
 8848TIP3   OH247958   6.568   5.633  11.599 -0.0366  0.0068 -0.4660
 8848TIP3    H147959   6.582   5.723  11.569 -3.3485  0.6664 -0.2400
 8848TIP3    H247960   6.579   5.580  11.520  0.1485  0.7937 -0.9741
 8849TIP3   OH247961   3.020   1.181   4.854  0.1652  0.7518  0.6631
 8849TIP3    H147962   3.006   1.221   4.768  2.2559 -1.8411 -0.9397
 8849TIP3    H247963   3.086   1.236   4.895  2.1691 -0.2945 -1.0633
 8850TIP3   OH247964   5.191   0.605   0.382  0.5545  0.6580 -0.0606
 8850TIP3    H147965   5.137   0.683   0.391 -1.2158 -0.7033  1.5865
 8850TIP3    H247966   5.169   0.552   0.459  2.7553 -0.8375 -0.4108
 8851TIP3   OH247967   6.100   5.579  13.396  0.1651  0.3715 -0.6309
 8851TIP3    H147968   6.137   5.514  13.337  1.3237  1.5176 -1.1927
 8851TIP3    H247969   6.005   5.570  13.387  0.3356  0.2121 -2.3080
 8852TIP3   OH247970   6.293   0.690   0.223  0.4777  0.1123 -0.2081
 8852TIP3    H147971   6.330   0.701   0.135  1.2491 -1.0981 -0.0517
 8852TIP3    H247972   6.257   0.776   0.245  1.6003  0.8280 -1.1055
 8853TIP3   OH247973   5.901   4.100  11.788  0.2319  0.4654 -0.1281
 8853TIP3    H147974   5.967   4.169  11.798 -1.4571  2.2145 -0.8435
 8853TIP3    H247975   5.825   4.144  11.750 -1.3743 -1.5104  0.6830
 8854TIP3   OH247976   3.217   1.885  13.171 -0.5146  0.4851  0.1736
 8854TIP3    H147977   3.124   1.864  13.170 -0.6631  1.0821  1.0897
 8854TIP3    H247978   3.221   1.978  13.193  0.2821  0.5453 -0.2121
 8855TIP3   OH247979   6.597   3.274   2.986  0.2392  0.8800 -0.0018
 8855TIP3    H147980   6.598   3.266   3.082  1.4441 -0.8268 -0.1336
 8855TIP3    H247981   6.688   3.286   2.962  0.0321  0.5272 -0.9885
 8856TIP3   OH247982   4.472   1.408  10.785 -0.0864 -0.4255 -0.5121
 8856TIP3    H147983   4.538   1.350  10.823 -0.4523 -1.6586 -1.7135
 8856TIP3    H247984   4.410   1.423  10.856  0.3135 -1.0699 -0.0192
 8857TIP3   OH247985   2.909   2.341  12.123  0.0463  0.2502 -0.0596
 8857TIP3    H147986   2.968   2.317  12.051 -0.5731 -0.4168 -0.3555
 8857TIP3    H247987   2.937   2.285  12.196  0.9315  1.2117  0.3395
 8858TIP3   OH247988   5.771   6.715  15.842  0.4733  0.0029 -0.7825
 8858TIP3    H147989   5.676   6.705  15.837  0.5115 -1.6632  1.1710
 8858TIP3    H247990   5.805   6.649  15.781  0.4010  0.3693 -1.2265
 8859TIP3   OH247991   3.791   0.508   3.459  0.3005 -0.5018  0.5704
 8859TIP3    H147992   3.812   0.540   3.371  1.2595 -0.0521  0.9554
 8859TIP3    H247993   3.759   0.419   3.445 -1.4474  0.2624 -0.4259
 8860TIP3   OH247994   4.226   3.154  12.112  0.0941  0.1567  0.0164
 8860TIP3    H147995   4.259   3.226  12.167  1.8184 -1.9618  1.8307
 8860TIP3    H247996   4.250   3.180  12.023  1.8943  1.2413  0.7804
 8861TIP3   OH247997   6.329   6.177   3.872  0.4331  0.3606  0.5565
 8861TIP3    H147998   6.303   6.145   3.958  0.2370 -0.8095  0.0666
 8861TIP3    H247999   6.282   6.260   3.862  2.2167  1.6399  2.5116
 8862TIP3   OH248000   5.584   5.884  11.882  0.1119 -0.7953  0.5838
 8862TIP3    H148001   5.592   5.973  11.848  0.4892 -0.8759  0.4580
 8862TIP3    H248002   5.511   5.888  11.944 -0.2214 -0.5219  0.1759
 8863TIP3   OH248003   5.583   6.165  10.885  0.4555  0.0461 -0.6898
 8863TIP3    H148004   5.532   6.154  10.804 -1.0515  0.5241  0.1695
 8863TIP3    H248005   5.624   6.080  10.899 -0.5267 -0.5059 -1.1307
 8864TIP3   OH248006   4.335   4.399   1.872  0.0338 -0.3933  0.0724
 8864TIP3    H148007   4.248   4.432   1.851  0.5376  0.2974 -0.9550
 8864TIP3    H248008   4.322   4.305   1.887 -1.0923 -0.0804  1.1888
 8865TIP3   OH248009   1.754   4.539  11.045  0.4984  0.4407 -0.0395
 8865TIP3    H148010   1.725   4.592  11.120 -0.6359 -0.8718  0.4749
 8865TIP3    H248011   1.829   4.490  11.078  0.0322 -0.0970  0.2424
 8866TIP3   OH248012   6.395   5.058  12.449 -0.5763  0.3332  0.5410
 8866TIP3    H148013   6.482   5.038  12.416 -0.2039  0.9004  1.1721
 8866TIP3    H248014   6.387   5.005  12.529  0.1166  2.1158  1.8028
 8867TIP3   OH248015   5.380   1.054   1.870 -0.1699 -0.2384  0.0200
 8867TIP3    H148016   5.325   1.039   1.946  0.5954 -2.6114  0.1579
 8867TIP3    H248017   5.374   1.148   1.853 -1.2611  0.1159  2.2833
 8868TIP3   OH248018   5.627   3.537   1.854 -0.1955  0.4137 -0.5295
 8868TIP3    H148019   5.544   3.585   1.852 -0.2966  0.2793  0.5566
 8868TIP3    H248020   5.671   3.567   1.933  0.5167  0.0175 -0.7690
 8869TIP3   OH248021   2.318   5.094   2.128 -0.3227 -0.0433 -0.2648
 8869TIP3    H148022   2.379   5.039   2.178 -1.0192 -0.5630  0.0187
 8869TIP3    H248023   2.322   5.058   2.039 -0.5964 -0.3965 -0.1333
 8870TIP3   OH248024   2.864   1.714  12.957 -0.1596  0.3218 -0.0270
 8870TIP3    H148025   2.907   1.794  12.928  1.0015 -0.8517 -1.5982
 8870TIP3    H248026   2.928   1.644  12.943 -1.7750 -1.1462 -0.3654
 8871TIP3   OH248027   5.167   0.522  12.815 -0.5625 -0.2386  0.8860
 8871TIP3    H148028   5.113   0.447  12.842 -1.7450  0.4089  0.3636
 8871TIP3    H248029   5.113   0.568  12.751  0.5541  0.5267  0.4924
 8872TIP3   OH248030   1.958   6.580  15.369  0.0121 -0.6306 -1.1646
 8872TIP3    H148031   1.895   6.645  15.400  0.3963 -0.7699 -0.0914
 8872TIP3    H248032   1.979   6.608  15.280  0.8891  1.2485 -0.3975
 8873TIP3   OH248033   1.388   1.577   2.150 -0.5422 -0.5272 -0.1163
 8873TIP3    H148034   1.297   1.577   2.179 -0.3618 -0.1342  0.4534
 8873TIP3    H248035   1.393   1.648   2.086 -0.4260  0.0540  0.5301
 8874TIP3   OH248036   0.335   3.149   1.281  0.0797 -0.7082  0.7808
 8874TIP3    H148037   0.319   3.084   1.350 -1.4102 -1.7133 -0.4543
 8874TIP3    H248038   0.281   3.224   1.305 -0.6372 -1.1570  0.5820
 8875TIP3   OH248039   2.797   0.754   2.990  0.3956  0.3388  0.4843
 8875TIP3    H148040   2.744   0.677   2.971 -0.4629  0.9135  0.5579
 8875TIP3    H248041   2.819   0.790   2.904  1.4386 -0.4124  0.4230
 8876TIP3   OH248042   0.770   1.851   2.067  0.1192 -0.2425 -0.5064
 8876TIP3    H148043   0.716   1.849   1.988 -0.9886  0.3058  0.2366
 8876TIP3    H248044   0.710   1.877   2.137  1.4048  0.6664  0.2710
 8877TIP3   OH248045   5.331   1.084   3.873  0.1575 -0.5849  0.3164
 8877TIP3    H148046   5.333   1.053   3.964 -2.0181  0.3622  0.7089
 8877TIP3    H248047   5.363   1.009   3.822 -0.4074 -1.7847  1.6895
 8878TIP3   OH248048   5.722   4.178  14.796  0.1543 -0.2591  0.7932
 8878TIP3    H148049   5.736   4.168  14.701  0.0686 -0.8315  0.8396
 8878TIP3    H248050   5.672   4.101  14.821  1.5525 -0.9288  1.5946
 8879TIP3   OH248051   5.489   3.856  16.966  0.0566  0.2709  0.3812
 8879TIP3    H148052   5.444   3.867  17.049 -2.1438 -3.4926 -0.1786
 8879TIP3    H248053   5.424   3.880  16.900  1.2452  1.6552 -0.3077
 8880TIP3   OH248054   0.761   0.075   1.282  0.2942  0.1695 -0.3519
 8880TIP3    H148055   0.718   0.160   1.286  0.7881  0.3835  0.8021
 8880TIP3    H248056   0.724   0.032   1.205  0.8462  1.8520 -1.5808
 8881TIP3   OH248057   1.395   6.049  12.267 -0.6295 -0.0190  0.5021
 8881TIP3    H148058   1.326   6.068  12.330 -0.2504  1.3548  0.5144
 8881TIP3    H248059   1.425   6.135  12.237  0.4697 -0.6181 -0.1607
 8882TIP3   OH248060   6.182   3.778  11.621  0.2157  0.1320  0.2344
 8882TIP3    H148061   6.238   3.805  11.694 -1.6739 -0.9759  2.1844
 8882TIP3    H248062   6.117   3.848  11.614  0.6796  0.4675 -0.7039
 8883TIP3   OH248063   6.313   5.358  16.913 -0.7966  0.5025 -0.3834
 8883TIP3    H148064   6.380   5.403  16.964  1.2478  0.3199 -2.8149
 8883TIP3    H248065   6.249   5.425  16.892  1.1308  1.8520 -2.1526
 8884TIP3   OH248066   6.714   1.813   0.675 -0.4459 -0.7487 -0.3579
 8884TIP3    H148067   6.727   1.823   0.769 -0.8208  1.1347 -0.4943
 8884TIP3    H248068   6.791   1.855   0.636  0.3819 -2.6846 -0.8935
 8885TIP3   OH248069   1.509   5.825   2.593  0.2208  0.2564  0.1852
 8885TIP3    H148070   1.447   5.788   2.530 -1.2181  1.2919  0.9722
 8885TIP3    H248071   1.560   5.889   2.542 -0.9704  1.1235  0.0693
 8886TIP3   OH248072   2.937   4.439   6.410  0.0724  0.2223  0.8169
 8886TIP3    H148073   2.982   4.505   6.358  0.7709 -1.3625 -0.6638
 8886TIP3    H248074   3.004   4.405   6.469  0.6555 -1.5702 -0.8302
 8887TIP3   OH248075   5.400   2.813   1.306  0.5120 -0.4731 -0.1981
 8887TIP3    H148076   5.396   2.730   1.258  4.6635 -1.2439  0.6237
 8887TIP3    H248077   5.417   2.879   1.239 -3.8785  0.0070 -1.0066
 8888TIP3   OH248078   4.316   1.264  16.418 -0.0305  0.0441 -0.1189
 8888TIP3    H148079   4.354   1.348  16.394  0.8498 -0.4022 -0.3218
 8888TIP3    H248080   4.330   1.256  16.512 -0.6542  0.3907  0.0034
 8889TIP3   OH248081   6.618   5.864  13.141  0.8623 -0.2375 -0.1030
 8889TIP3    H148082   6.557   5.792  13.158  0.8138 -0.2714 -0.4171
 8889TIP3    H248083   6.563   5.942  13.141  0.6937 -0.3434 -1.1230
 8890TIP3   OH248084   3.731   6.540   2.212 -0.2474  0.2050 -0.0551
 8890TIP3    H148085   3.751   6.456   2.172  0.4182  0.5116 -0.3752
 8890TIP3    H248086   3.645   6.528   2.252 -0.1129 -0.6513 -0.0191
 8891TIP3   OH248087   5.628   5.860   2.242 -0.1079  0.1066  0.2156
 8891TIP3    H148088   5.553   5.913   2.269 -0.0604 -0.5563  1.6962
 8891TIP3    H248089   5.702   5.897   2.291  0.2598 -0.1869 -0.1151
 8892TIP3   OH248090   0.985   0.629  16.366 -0.0375  0.1520  0.1990
 8892TIP3    H148091   0.891   0.649  16.368  0.3388  1.9374  1.5617
 8892TIP3    H248092   1.025   0.707  16.330  1.2933  1.2196  3.7375
 8893TIP3   OH248093   6.169   2.101   3.609  0.1524  0.1748  0.1613
 8893TIP3    H148094   6.142   2.011   3.592  0.6420  0.1650 -0.5666
 8893TIP3    H248095   6.161   2.145   3.524 -1.2588  1.1246  0.7522
 8894TIP3   OH248096   0.583   4.256  16.382  0.2414  0.0199  0.2999
 8894TIP3    H148097   0.587   4.313  16.306  0.0650 -1.0789 -0.5404
 8894TIP3    H248098   0.669   4.263  16.422  1.8271 -2.6981 -2.4381
 8895TIP3   OH248099   6.098   0.142  13.795  0.1490  0.0614 -0.1383
 8895TIP3    H148100   6.010   0.105  13.802  0.2911 -0.1067  0.8425
 8895TIP3    H248101   6.111   0.157  13.701 -0.5981 -0.7118 -0.3674
 8896TIP3   OH248102   6.728   3.671  10.577  0.1901 -0.2946  0.1753
 8896TIP3    H148103   6.785   3.713  10.641  1.6705 -0.3316 -1.0955
 8896TIP3    H248104   6.784   3.606  10.534 -1.1811 -1.2738 -0.1674
 8897TIP3   OH248105   4.690   3.816   5.183  0.0381 -0.9339 -0.0613
 8897TIP3    H148106   4.719   3.805   5.273 -0.2033 -0.6728  0.0452
 8897TIP3    H248107   4.771   3.811   5.132  0.3312  0.2792  0.2836
 8898TIP3   OH248108   0.553   2.074   2.581 -0.7486 -0.0733  0.0427
 8898TIP3    H148109   0.630   2.125   2.607 -1.2341  0.7266 -0.0750
 8898TIP3    H248110   0.586   1.984   2.574 -0.0268  0.1171  0.8509
 8899TIP3   OH248111   4.337   1.998  16.693 -0.1722  0.2101  0.4330
 8899TIP3    H148112   4.322   2.088  16.663  0.1031  0.0569 -0.1811
 8899TIP3    H248113   4.261   1.949  16.661  1.3751 -0.4894 -2.3496
 8900TIP3   OH248114   5.811   4.684   3.730 -0.3905  0.0639  0.3003
 8900TIP3    H148115   5.726   4.649   3.759 -0.7025 -0.5479 -1.3045
 8900TIP3    H248116   5.788   4.757   3.672  0.1413 -0.8673 -1.1004
 8901TIP3   OH248117   5.082   3.173   3.518  0.3718  0.0086 -0.2052
 8901TIP3    H148118   5.088   3.269   3.511 -1.1874  0.2769  1.8580
 8901TIP3    H248119   5.126   3.153   3.600  0.3323 -1.0339 -0.4392
 8902TIP3   OH248120   4.476   6.386  16.362  0.0667 -0.7609  0.2348
 8902TIP3    H148121   4.418   6.330  16.310 -1.2620  0.1950  0.6619
 8902TIP3    H248122   4.418   6.429  16.425  1.4051 -0.5962  1.3724
 8903TIP3   OH248123   6.304   6.126  15.487  0.0898 -0.5365  0.5262
 8903TIP3    H148124   6.269   6.158  15.404  0.2747  0.0689  0.6793
 8903TIP3    H248125   6.372   6.064  15.462 -0.5592 -1.1392  0.2270
 8904TIP3   OH248126   4.540   1.615  15.994 -0.4371 -0.7657  0.8949
 8904TIP3    H148127   4.445   1.625  15.987 -0.3019  1.0151  1.4833
 8904TIP3    H248128   4.556   1.523  15.971 -2.0452 -0.4987 -1.4763
 8905TIP3   OH248129   1.451   2.132  16.548 -0.7918  0.6028  0.6707
 8905TIP3    H148130   1.530   2.185  16.536 -2.1917  3.0226  1.6885
 8905TIP3    H248131   1.393   2.160  16.478 -0.6242 -1.4990 -0.3473
 8906TIP3   OH248132   2.509   1.569  15.664 -0.6311  0.1451 -0.3328
 8906TIP3    H148133   2.444   1.517  15.618  0.3266 -3.2811  2.0507
 8906TIP3    H248134   2.462   1.610  15.736 -0.6500 -0.2708 -0.1128
 8907TIP3   OH248135   0.490   5.491   2.508 -0.2111  0.3140 -0.2633
 8907TIP3    H148136   0.499   5.528   2.420 -0.1065  0.1485 -0.3225
 8907TIP3    H248137   0.546   5.413   2.507  0.6366  0.8976  0.2718
 8908TIP3   OH248138   3.474   6.589  13.586  0.1325  0.8470  0.1298
 8908TIP3    H148139   3.381   6.588  13.607  0.0301  1.1405 -0.3122
 8908TIP3    H248140   3.518   6.581  13.671 -0.3084 -1.0018  0.1997
 8909TIP3   OH248141   1.832   0.503  15.047  0.0464  0.4257  0.1407
 8909TIP3    H148142   1.771   0.575  15.032  1.3688  1.4024 -0.7798
 8909TIP3    H248143   1.917   0.538  15.018  1.0970 -0.7786  1.6722
 8910TIP3   OH248144   5.900   1.679   5.090 -0.6704 -0.1940 -0.6734
 8910TIP3    H148145   5.905   1.589   5.059  0.5827 -0.2063 -0.4518
 8910TIP3    H248146   5.924   1.732   5.015 -0.5469 -0.0802 -0.5530
 8911TIP3   OH248147   3.224   5.934   2.033  0.8530  0.4465  0.5458
 8911TIP3    H148148   3.258   5.866   1.975 -0.4594 -0.3634  0.7192
 8911TIP3    H248149   3.288   6.005   2.026  1.4840 -0.2305 -0.7421
 8912TIP3   OH248150   5.125   5.349   5.012  0.1416  0.1159  0.0094
 8912TIP3    H148151   5.131   5.337   5.107  0.2030  0.4272  0.0448
 8912TIP3    H248152   5.033   5.332   4.992 -0.2715  1.8050  0.3743
 8913TIP3   OH248153   3.234   4.301   0.556 -0.0253  0.0414 -0.0785
 8913TIP3    H148154   3.313   4.316   0.505 -0.0432 -1.0902 -0.4590
 8913TIP3    H248155   3.265   4.274   0.642  0.0074  0.2239 -0.0342
 8914TIP3   OH248156   6.698   6.493   2.389  0.3712  0.4959  0.0742
 8914TIP3    H148157   6.635   6.564   2.398  0.6584  0.7063  0.4316
 8914TIP3    H248158   6.648   6.414   2.407  0.5359  0.7712  1.7865
 8915TIP3   OH248159   2.549   4.492  12.280  0.8743 -0.2501  0.0907
 8915TIP3    H148160   2.501   4.410  12.290 -0.4397  0.6027  0.9863
 8915TIP3    H248161   2.481   4.559  12.279  1.8623  0.7448 -1.7308
 8916TIP3   OH248162   6.478   5.306  10.875  0.3717  0.2632 -0.0692
 8916TIP3    H148163   6.399   5.353  10.849  2.5172  3.0842 -1.7665
 8916TIP3    H248164   6.493   5.243  10.804 -0.6843 -0.7701  0.5979
 8917TIP3   OH248165   6.268   0.440  14.350 -0.3654  0.2308  0.5101
 8917TIP3    H148166   6.335   0.405  14.291 -1.0044  0.1706 -0.1950
 8917TIP3    H248167   6.278   0.389  14.430  1.4191  1.2449  0.9644
 8918TIP3   OH248168   2.754   0.005   2.736 -0.0722  0.2150  0.0013
 8918TIP3    H148169   2.787   0.044   2.656 -1.9531  1.9365  0.0319
 8918TIP3    H248170   2.720  -0.081   2.709  1.4306 -0.2068 -0.5882
 8919TIP3   OH248171   1.846   3.664   1.748  0.6581 -0.0443 -0.0205
 8919TIP3    H148172   1.835   3.657   1.843 -0.0054  0.6577 -0.0349
 8919TIP3    H248173   1.930   3.623   1.730  0.3947 -0.9462  0.7686
 8920TIP3   OH248174   4.107   5.299  16.645  0.3233  0.3719 -0.5554
 8920TIP3    H148175   4.155   5.374  16.680  0.3815  0.3789 -0.6480
 8920TIP3    H248176   4.138   5.225  16.696 -0.2349  0.5161 -0.0060
 8921TIP3   OH248177   4.726   3.772  16.437 -0.0403 -0.1575  0.2691
 8921TIP3    H148178   4.801   3.832  16.436 -0.7449  0.7401  0.3487
 8921TIP3    H248179   4.760   3.690  16.403  0.8966  0.3527 -0.0380
 8922TIP3   OH248180   0.201   3.397   0.959 -0.4498 -0.2350  0.1120
 8922TIP3    H148181   0.123   3.361   1.000 -0.7319  0.3857  0.1250
 8922TIP3    H248182   0.181   3.397   0.865  0.4913 -2.3681 -0.0973
 8923TIP3   OH248183   4.129   1.193  15.931 -0.3487 -0.0100  0.1949
 8923TIP3    H148184   4.098   1.279  15.904 -0.2239  0.0327  0.1868
 8923TIP3    H248185   4.194   1.168  15.865 -2.0436 -1.1254 -1.0890
 8924TIP3   OH248186   1.085   5.215   5.693 -0.2553 -0.0822 -0.5584
 8924TIP3    H148187   1.071   5.241   5.602  1.4426  0.9221 -0.5474
 8924TIP3    H248188   1.163   5.262   5.720  0.2078 -1.6412  0.9210
 8925TIP3   OH248189   5.016   2.910   6.173 -0.0350  0.1268 -0.3441
 8925TIP3    H148190   5.109   2.891   6.163 -0.1043 -0.5801  0.2764
 8925TIP3    H248191   5.012   2.981   6.238  0.1290  0.9866 -1.2680
 8926TIP3   OH248192   5.170   0.715   1.523  0.4741 -0.1129  0.6219
 8926TIP3    H148193   5.176   0.796   1.573 -0.8694  0.0846  0.5056
 8926TIP3    H248194   5.186   0.741   1.433  0.6353 -0.0740  0.6627
 8927TIP3   OH248195   1.982   1.045  12.623  0.2131  0.3162 -0.1340
 8927TIP3    H148196   1.935   0.983  12.567  0.8590  0.9401 -1.3574
 8927TIP3    H248197   1.941   1.034  12.709 -0.9236 -0.4778 -0.7656
 8928TIP3   OH248198   6.726   0.945   1.083 -0.1685 -0.1669  0.2721
 8928TIP3    H148199   6.782   1.020   1.069 -0.7936  0.2781  0.1319
 8928TIP3    H248200   6.645   0.966   1.037  0.1673 -1.5426 -0.9841
 8929TIP3   OH248201   2.395   6.444   1.581 -0.0943 -0.2790 -0.2832
 8929TIP3    H148202   2.344   6.370   1.549 -1.7185  0.8233 -0.3250
 8929TIP3    H248203   2.415   6.423   1.672  1.2849 -1.7019 -0.8862
 8930TIP3   OH248204   2.372   5.001   0.981 -0.3431 -0.1920  0.6695
 8930TIP3    H148205   2.276   4.999   0.974 -0.2486  0.3097 -1.0107
 8930TIP3    H248206   2.389   5.065   1.050 -1.2122 -0.2185  0.9188
 8931TIP3   OH248207   1.209   4.240   4.124  0.6491 -0.1931 -0.6087
 8931TIP3    H148208   1.179   4.267   4.038 -0.0783 -1.3091 -0.7078
 8931TIP3    H248209   1.243   4.152   4.112  1.3256 -0.0381  0.0838
 8932TIP3   OH248210   4.738   3.171   1.477 -0.3320  0.9507  0.4264
 8932TIP3    H148211   4.694   3.102   1.427 -0.7842  1.4088  0.1882
 8932TIP3    H248212   4.826   3.174   1.440  0.3315 -0.8536  1.7674
 8933TIP3   OH248213   6.456   5.650   5.488  0.5073 -0.3401 -0.0742
 8933TIP3    H148214   6.385   5.636   5.551  0.8515 -0.8015  0.2144
 8933TIP3    H248215   6.474   5.744   5.492 -1.2726  0.1044 -1.4302
 8934TIP3   OH248216   2.783   2.697   2.712 -0.3009  0.0541  0.0546
 8934TIP3    H148217   2.770   2.772   2.653 -0.3766 -0.5981 -0.7757
 8934TIP3    H248218   2.855   2.724   2.769 -0.8666  1.0814  0.3000
 8935TIP3   OH248219   1.064   2.209   0.229 -0.2509 -0.0981 -0.1926
 8935TIP3    H148220   1.020   2.288   0.197  1.1621  0.6128 -0.4136
 8935TIP3    H248221   1.066   2.151   0.153  0.2514  0.3419 -0.5214
 8936TIP3   OH248222   4.506   2.723  12.781  0.3933  0.1000 -0.0162
 8936TIP3    H148223   4.572   2.790  12.764  1.8348 -1.4700 -0.6050
 8936TIP3    H248224   4.551   2.657  12.834 -1.7776  0.9226  3.0468
 8937TIP3   OH248225   5.000   1.456  12.978 -0.3075  0.2699 -0.0515
 8937TIP3    H148226   5.076   1.410  13.014  0.7816 -0.3213 -2.9580
 8937TIP3    H248227   4.925   1.415  13.020  0.9024 -0.4381  1.4652
 8938TIP3   OH248228   2.977   5.799  11.997  0.2494  0.3073 -0.4953
 8938TIP3    H148229   2.892   5.832  11.968  0.1299  0.4720  0.0515
 8938TIP3    H248230   2.960   5.761  12.083  0.2915 -1.5608 -1.2780
 8939TIP3   OH248231   2.117   2.596   0.903 -0.1371  0.3800 -0.1434
 8939TIP3    H148232   2.078   2.614   0.818  1.3231  2.3893 -0.4138
 8939TIP3    H248233   2.070   2.652   0.964 -0.5561 -0.3690  0.2261
 8940TIP3   OH248234   0.095   2.346   6.735  0.7454  0.3509  0.1431
 8940TIP3    H148235   0.139   2.264   6.717 -0.4352 -0.3382  0.3182
 8940TIP3    H248236   0.006   2.333   6.702  0.9987  2.1428 -1.3532
 8941TIP3   OH248237   3.801   3.050  14.868 -0.2150 -0.5172  0.1575
 8941TIP3    H148238   3.826   3.074  14.779 -1.0539 -1.2776 -0.2923
 8941TIP3    H248239   3.772   3.132  14.908  1.3556  0.0512  0.1390
 8942TIP3   OH248240   3.695   5.050   2.726 -0.0832 -0.1054  0.0294
 8942TIP3    H148241   3.695   4.955   2.722 -0.5234 -0.0819 -0.6159
 8942TIP3    H248242   3.606   5.075   2.701 -0.0050  0.4716  0.3062
 8943TIP3   OH248243   2.012   4.477  16.389 -0.0813  0.1761  0.6132
 8943TIP3    H148244   1.942   4.535  16.359  0.2245  0.2822  0.1018
 8943TIP3    H248245   2.026   4.502  16.481 -0.0658  0.7993  0.4445
 8944TIP3   OH248246   4.062   0.641  15.138 -0.7047 -0.9611 -0.6098
 8944TIP3    H148247   4.013   0.569  15.176 -1.0329 -0.4738 -0.1052
 8944TIP3    H248248   4.056   0.712  15.203 -0.3657 -0.4887 -1.0841
 8945TIP3   OH248249   4.523   1.737  15.023  1.0662 -0.3366  0.2742
 8945TIP3    H148250   4.612   1.772  15.031  1.3702 -0.7678 -1.1445
 8945TIP3    H248251   4.534   1.642  15.025  0.8237 -0.4238 -1.6011
 8946TIP3   OH248252   3.081   3.668  11.234  0.4577 -0.2163  0.5428
 8946TIP3    H148253   3.147   3.711  11.288 -0.5570  1.6199  0.3593
 8946TIP3    H248254   3.077   3.721  11.154 -0.8035 -0.6504  0.3038
 8947TIP3   OH248255   2.067   6.198  16.284  0.0399  0.3743 -0.0806
 8947TIP3    H148256   2.038   6.167  16.370 -1.6306  1.7507 -0.1057
 8947TIP3    H248257   2.081   6.292  16.295  2.7785  0.0727 -0.5809
 8948TIP3   OH248258   3.764   4.368   4.789 -0.3821  0.2069  0.4626
 8948TIP3    H148259   3.792   4.286   4.748  0.5249  0.2569  0.9656
 8948TIP3    H248260   3.740   4.425   4.716  1.3353  0.3438 -0.0040
 8949TIP3   OH248261   5.053   0.072   1.998 -0.2887  0.4215  0.2685
 8949TIP3    H148262   5.133   0.070   1.945 -0.8052 -0.7632 -0.4835
 8949TIP3    H248263   4.982   0.083   1.934 -0.8990 -0.8715  0.7043
 8950TIP3   OH248264   0.964   6.172   4.418  0.7162  0.2729 -0.7926
 8950TIP3    H148265   0.924   6.085   4.411  0.6183  0.4261 -2.2928
 8950TIP3    H248266   1.002   6.188   4.332  0.5020  1.8315 -0.6128
 8951TIP3   OH248267   3.062   3.472   1.097  0.6964  0.4046  0.0260
 8951TIP3    H148268   3.081   3.482   1.004 -1.6170  0.8453 -0.4360
 8951TIP3    H248269   3.110   3.543   1.139  1.8169  0.1523 -0.8213
 8952TIP3   OH248270   2.528   5.758   5.218 -0.3909 -0.0855  0.0042
 8952TIP3    H148271   2.516   5.663   5.215 -0.6019 -0.0906  0.7681
 8952TIP3    H248272   2.546   5.777   5.311  1.7095  0.3775 -0.4664
 8953TIP3   OH248273   6.466   1.077  15.422  0.6307 -0.0875  0.5585
 8953TIP3    H148274   6.406   1.152  15.424  0.5224 -0.1946  1.4014
 8953TIP3    H248275   6.423   1.014  15.364 -0.0405 -0.1238  1.0772
 8954TIP3   OH248276   4.685   1.064   3.103  0.1340 -0.2769 -0.3150
 8954TIP3    H148277   4.682   0.982   3.054 -2.2494 -0.4775  0.1180
 8954TIP3    H248278   4.685   1.132   3.035 -1.3070 -0.5847 -0.6350
 8955TIP3   OH248279   2.462   5.654   1.471  0.6167  0.2586  0.3948
 8955TIP3    H148280   2.552   5.687   1.470  1.5315 -2.1221 -1.5657
 8955TIP3    H248281   2.448   5.626   1.561  1.2892  2.0311  1.0705
 8956TIP3   OH248282   5.794   1.333   2.757 -0.6672  0.3957 -0.4708
 8956TIP3    H148283   5.782   1.386   2.836  1.5534  1.6651 -0.9290
 8956TIP3    H248284   5.800   1.397   2.686  0.5348 -0.5224 -1.2257
 8957TIP3   OH248285   4.264   0.390  14.165 -0.2007 -0.6200  0.5037
 8957TIP3    H148286   4.232   0.407  14.076  1.9227  1.4739  0.0909
 8957TIP3    H248287   4.229   0.304  14.187  0.5164 -1.8862 -2.9855
 8958TIP3   OH248288   3.578   4.840  13.818  0.0596 -0.7550 -0.0470
 8958TIP3    H148289   3.547   4.867  13.732  1.2098  0.2967 -0.1503
 8958TIP3    H248290   3.672   4.830  13.808  0.4865  1.2676  1.5434
 8959TIP3   OH248291   4.902   6.329   6.236 -0.1568  0.5627  0.7707
 8959TIP3    H148292   4.917   6.365   6.323  1.7028  0.1910  0.6248
 8959TIP3    H248293   4.875   6.238   6.252  0.3596  0.4407  0.9625
 8960TIP3   OH248294   4.690   5.104  16.419 -0.1096  0.4414 -0.5849
 8960TIP3    H148295   4.625   5.174  16.428 -0.5433 -0.0942  0.4940
 8960TIP3    H248296   4.743   5.131  16.344 -1.4334  0.9901 -1.3484
 8961TIP3   OH248297   1.527   1.804  14.484 -0.8890 -0.2221 -0.3887
 8961TIP3    H148298   1.434   1.803  14.504 -0.9048 -0.9842 -0.4845
 8961TIP3    H248299   1.562   1.726  14.528 -0.2565  0.1842 -0.1580
 8962TIP3   OH248300   1.227   6.301  15.289  0.1098  0.0175  0.2340
 8962TIP3    H148301   1.134   6.323  15.288  0.4161  1.4757  1.5844
 8962TIP3    H248302   1.258   6.324  15.201 -0.1520  2.5283  0.7693
 8963TIP3   OH248303   1.301   3.915   4.229  0.5449 -0.0912  0.1607
 8963TIP3    H148304   1.292   3.882   4.140  0.5701 -0.1750  0.1890
 8963TIP3    H248305   1.226   3.877   4.276  0.7858 -0.4173  0.2844
 8964TIP3   OH248306   6.506   1.050  14.346 -0.1430  0.0052 -0.0303
 8964TIP3    H148307   6.483   1.125  14.291 -0.7539  0.1091  0.3578
 8964TIP3    H248308   6.601   1.051  14.349 -0.1529  1.2775  0.6420
 8965TIP3   OH248309   4.642   6.074   1.239 -0.4743  0.0568  0.2051
 8965TIP3    H148310   4.566   6.094   1.294 -0.6053 -0.0204  0.0530
 8965TIP3    H248311   4.716   6.077   1.299 -0.5364  0.6502  0.2511
 8966TIP3   OH248312   6.277   5.017   1.703 -0.0127 -0.1093 -0.1021
 8966TIP3    H148313   6.315   5.016   1.791  0.6079  0.8752 -0.3408
 8966TIP3    H248314   6.231   5.101   1.699 -0.8705 -0.5937 -0.3753
 8967TIP3   OH248315   6.345   1.210   6.302 -0.0707  0.0516 -0.0982
 8967TIP3    H148316   6.263   1.170   6.273  0.2425 -0.2000 -0.6458
 8967TIP3    H248317   6.359   1.283   6.241  1.1480 -1.1368 -1.2758
 8968TIP3   OH248318   1.716   1.607   6.226 -0.2461 -0.0612  0.1657
 8968TIP3    H148319   1.666   1.561   6.158 -1.6051  0.8620  0.5145
 8968TIP3    H248320   1.737   1.539   6.290 -0.9444 -0.5091 -0.0701
 8969TIP3   OH248321   4.534   0.575  11.218  0.2155  0.0429  0.3158
 8969TIP3    H148322   4.606   0.524  11.182 -0.3442  0.0682 -0.8626
 8969TIP3    H248323   4.489   0.515  11.278  0.0108 -0.6110 -0.4839
 8970TIP3   OH248324   5.236   5.740  12.255  0.3093 -0.3259  0.1355
 8970TIP3    H148325   5.207   5.773  12.170  0.3860 -0.4061  0.0780
 8970TIP3    H248326   5.160   5.749  12.312  0.1289 -0.6704 -0.0512
 8971TIP3   OH248327   1.947   4.910  15.831  1.1529 -0.0090 -0.4913
 8971TIP3    H148328   1.994   4.942  15.908  0.3914 -0.0183 -0.0313
 8971TIP3    H248329   1.859   4.891  15.862  0.2147  1.9895 -1.7964
 8972TIP3   OH248330   5.024   5.618  16.366  0.1235 -0.0672  0.2523
 8972TIP3    H148331   4.980   5.617  16.451 -0.1938 -0.0085  0.0892
 8972TIP3    H248332   5.076   5.698  16.366  0.1907 -0.1109  0.4238
 8973TIP3   OH248333   5.478   6.568   6.037  0.2648 -0.0286 -0.0814
 8973TIP3    H148334   5.472   6.509   6.112  0.5601 -0.3687 -0.3288
 8973TIP3    H248335   5.387   6.577   6.006  0.1526  0.0600  0.2744
 8974TIP3   OH248336   0.010   2.472   3.391 -0.6457 -0.7954 -0.1133
 8974TIP3    H148337   0.050   2.407   3.332  1.0827  1.5688 -1.5944
 8974TIP3    H248338  -0.072   2.495   3.347 -1.6136 -2.4123  0.7614
 8975TIP3   OH248339   2.245   0.811  14.861  0.2281 -0.1799 -0.5361
 8975TIP3    H148340   2.249   0.890  14.807  0.7683 -2.7568 -4.4209
 8975TIP3    H248341   2.326   0.764  14.841  0.2199 -1.4787  2.2189
 8976TIP3   OH248342   1.659   5.313   1.863  0.3805  0.2602 -0.5094
 8976TIP3    H148343   1.609   5.232   1.871  0.0524  0.4298 -0.8027
 8976TIP3    H248344   1.637   5.346   1.776  3.0766 -1.0372 -1.7394
 8977TIP3   OH248345   3.621   5.554   3.918  0.3416  0.2706 -0.1957
 8977TIP3    H148346   3.603   5.529   3.827  2.3709 -1.1587 -0.2332
 8977TIP3    H248347   3.704   5.601   3.914  0.3856  0.2871  0.9248
 8978TIP3   OH248348   0.131   6.072  15.272 -0.2025 -0.5412 -0.1187
 8978TIP3    H148349   0.124   5.983  15.308 -0.3705 -0.3343  0.3676
 8978TIP3    H248350   0.054   6.080  15.215 -0.8096 -0.3170  0.7171
 8979TIP3   OH248351   1.129   5.473  15.332 -0.0191 -0.6102 -0.7898
 8979TIP3    H148352   1.132   5.560  15.372  1.4420  0.0847 -2.3373
 8979TIP3    H248353   1.115   5.413  15.405 -0.3865  0.8683  0.3741
 8980TIP3   OH248354   0.975   1.342   1.986  0.3122  0.0764  0.2542
 8980TIP3    H148355   1.017   1.415   1.940  0.9540 -0.0979  0.5641
 8980TIP3    H248356   0.944   1.284   1.916  1.9179 -0.5445  0.0490
 8981TIP3   OH248357   5.935   5.066   5.930  0.5386 -0.8201 -0.2703
 8981TIP3    H148358   5.883   5.028   6.000  1.0218 -0.3471  0.3481
 8981TIP3    H248359   6.025   5.038   5.948  0.8918  0.5149  0.1499
 8982TIP3   OH248360   2.618   4.301   5.499 -0.0448  0.0822  0.2927
 8982TIP3    H148361   2.688   4.255   5.544  1.1194  2.0496  0.5324
 8982TIP3    H248362   2.662   4.353   5.432 -1.2343  1.3872  0.4908
 8983TIP3   OH248363   5.342   1.483  15.867 -0.3850  0.0683 -0.4853
 8983TIP3    H148364   5.329   1.389  15.856  1.1212  0.0005 -1.8097
 8983TIP3    H248365   5.300   1.522  15.790 -0.2091  0.4271 -0.3996
 8984TIP3   OH248366   6.436   3.379   2.688  0.0769  0.1050  0.5987
 8984TIP3    H148367   6.503   3.359   2.622  1.5131  1.1541  1.7061
 8984TIP3    H248368   6.462   3.464   2.723 -1.5322  0.2602  1.4558
 8985TIP3   OH248369   5.139   6.622  15.606  0.1362  0.6341  0.2335
 8985TIP3    H148370   5.161   6.568  15.530  0.9068  1.6081 -0.2431
 8985TIP3    H248371   5.067   6.678  15.575  1.3935  2.0244 -0.2367
 8986TIP3   OH248372   1.016   5.649  14.371 -0.1580 -0.2045 -0.1302
 8986TIP3    H148373   1.076   5.683  14.305 -1.7858  2.1179 -0.4690
 8986TIP3    H248374   0.933   5.636  14.324 -0.7527 -0.5098  0.9808
 8987TIP3   OH248375   2.523   4.568   1.452 -0.3449 -0.1802 -0.0284
 8987TIP3    H148376   2.495   4.657   1.430 -0.2338 -0.0993  0.1548
 8987TIP3    H248377   2.589   4.547   1.386 -0.6375 -0.2665 -0.2946
 8988TIP3   OH248378   4.592   4.750  14.273  0.2059 -0.6609  0.0449
 8988TIP3    H148379   4.663   4.734  14.335  0.0229  0.4939  0.5697
 8988TIP3    H248380   4.631   4.805  14.205  0.4978 -2.2051 -1.0754
 8989TIP3   OH248381   0.521   0.087  13.137  0.8591 -0.1664 -0.2577
 8989TIP3    H148382   0.437   0.041  13.139  1.3408 -1.0318  0.9617
 8989TIP3    H248383   0.586   0.020  13.159  1.8906  0.4761 -1.2537
 8990TIP3   OH248384   2.405   5.150   1.234 -0.5322 -1.0349 -0.5476
 8990TIP3    H148385   2.408   5.191   1.321  0.2017  0.2668 -1.1717
 8990TIP3    H248386   2.496   5.137   1.211 -0.6531  0.7873 -2.1200
 8991TIP3   OH248387   1.480   0.163   3.217 -0.0970 -0.4524 -0.5811
 8991TIP3    H148388   1.413   0.227   3.239  0.1783  0.1178 -1.3865
 8991TIP3    H248389   1.494   0.114   3.298  0.7031  1.4257  0.4502
 8992TIP3   OH248390   4.103   6.484  14.449  0.2303 -0.1153 -0.1245
 8992TIP3    H148391   4.017   6.504  14.485  1.0492  0.9852  1.2399
 8992TIP3    H248392   4.088   6.409  14.391 -1.3460 -1.0348  1.4489
 8993TIP3   OH248393   0.933   4.322  11.259 -0.2249 -0.0511 -0.3053
 8993TIP3    H148394   0.886   4.242  11.282  0.8765 -0.8342 -0.7158
 8993TIP3    H248395   0.879   4.363  11.192 -0.6149 -0.6407 -0.3616
 8994TIP3   OH248396   6.677   5.406  15.350  0.1095 -0.5479 -0.2291
 8994TIP3    H148397   6.643   5.379  15.435 -1.6997  0.1728 -0.7055
 8994TIP3    H248398   6.628   5.352  15.287 -0.3423  0.6627 -0.9336
 8995TIP3   OH248399   2.150   2.226  15.378 -0.7662 -0.0801  0.1874
 8995TIP3    H148400   2.078   2.285  15.355  0.3314  1.2064  0.0314
 8995TIP3    H248401   2.178   2.188  15.295 -1.0819 -0.3923  0.2197
 8996TIP3   OH248402   2.253   0.051  15.692 -0.3633  0.1716  0.0943
 8996TIP3    H148403   2.205   0.030  15.612  0.5983 -1.8492  0.0237
 8996TIP3    H248404   2.345   0.032  15.671  0.0405  0.7467  1.2994
 8997TIP3   OH248405   4.712   4.771   1.453 -0.4546  0.0226 -0.3119
 8997TIP3    H148406   4.656   4.787   1.378 -1.1655  0.9874  0.4077
 8997TIP3    H248407   4.690   4.683   1.482 -0.2767 -0.2978 -1.1364
 8998TIP3   OH248408   1.548   3.267  10.963  0.3718 -0.3731 -0.2630
 8998TIP3    H148409   1.457   3.298  10.959 -0.4622 -2.4425  1.5984
 8998TIP3    H248410   1.586   3.294  10.880 -1.8194  0.9399 -0.8813
 8999TIP3   OH248411   4.921   4.442   4.096  0.0338  0.2438 -0.1025
 8999TIP3    H148412   4.943   4.349   4.105 -0.6146  0.0986 -0.0169
 8999TIP3    H248413   4.900   4.471   4.185 -2.3002 -0.1724 -0.4971
 9000TIP3   OH248414   2.377   5.057  13.030  0.4123 -0.3386 -0.0449
 9000TIP3    H148415   2.315   5.059  12.956  1.5833  2.3284 -1.0154
 9000TIP3    H248416   2.442   4.991  13.005 -1.4583 -2.5085  0.5744
 9001TIP3   OH248417   5.860   5.364   0.712  0.4894  0.6932 -0.3643
 9001TIP3    H148418   5.807   5.285   0.700  0.4241  0.6301  0.3152
 9001TIP3    H248419   5.881   5.393   0.623 -0.3216  0.4724 -0.6314
 9002TIP3   OH248420   4.898   5.280   0.157 -0.0475  0.5354 -0.2231
 9002TIP3    H148421   4.989   5.250   0.162  0.1024  1.0528  0.2790
 9002TIP3    H248422   4.861   5.233   0.082 -0.3868 -2.3339  1.6899
 9003TIP3   OH248423   1.684   3.355  11.229 -0.6084 -0.3005 -0.6279
 9003TIP3    H148424   1.647   3.367  11.142 -0.5267 -0.0133 -0.6233
 9003TIP3    H248425   1.622   3.398  11.288 -1.7873 -2.3565 -0.3198
 9004TIP3   OH248426   2.494   3.362  14.329  0.2623 -0.9297 -0.2919
 9004TIP3    H148427   2.437   3.438  14.322  0.3724 -1.0409 -2.8025
 9004TIP3    H248428   2.450   3.305  14.392 -0.0894  0.9466  1.2127
 9005TIP3   OH248429   0.883   0.030  12.148 -0.5302 -0.0511 -0.1891
 9005TIP3    H148430   0.806  -0.009  12.107 -0.3125 -0.6544 -0.0210
 9005TIP3    H248431   0.954   0.016  12.086 -0.4759  0.1812 -0.1810
 9006TIP3   OH248432   0.348   6.679   5.791 -0.1828 -0.3962  0.4078
 9006TIP3    H148433   0.423   6.729   5.757  0.2668 -0.5493  1.1652
 9006TIP3    H248434   0.334   6.714   5.879 -0.2007 -1.2390  0.7422
 9007TIP3   OH248435   0.318   1.355  12.504 -0.1538 -0.0692 -0.1326
 9007TIP3    H148436   0.403   1.353  12.550  0.1404  0.1198 -0.6692
 9007TIP3    H248437   0.289   1.264  12.504  0.1397 -0.1640 -0.1136
 9008TIP3   OH248438   1.996   0.603   2.594 -0.1784 -0.5168 -0.4096
 9008TIP3    H148439   2.014   0.671   2.529  0.1452 -0.7124 -0.5228
 9008TIP3    H248440   1.901   0.603   2.603 -0.0511  1.5155  1.2494
 9009TIP3   OH248441   1.900   6.211  15.558  0.5028  0.5706 -0.3807
 9009TIP3    H148442   1.988   6.249  15.553  0.0253  1.8148  0.4659
 9009TIP3    H248443   1.898   6.167  15.643 -0.4112  2.3876  0.5530
 9010TIP3   OH248444   5.442   5.209  12.685  0.2546  0.6448 -0.9261
 9010TIP3    H148445   5.359   5.238  12.723 -0.4558  1.0352 -2.7453
 9010TIP3    H248446   5.491   5.290  12.669  1.5983  0.3585  1.4043
 9011TIP3   OH248447   4.751   6.001  13.942 -0.2372 -0.0677 -0.2291
 9011TIP3    H148448   4.746   6.067  14.011  2.7675  2.1828 -2.0237
 9011TIP3    H248449   4.675   5.945  13.957 -1.4740  2.2835  2.9030
 9012TIP3   OH248450   3.624   3.559  15.070  0.0460 -0.8302 -0.2283
 9012TIP3    H148451   3.548   3.506  15.047 -2.2672  1.5674  1.6643
 9012TIP3    H248452   3.656   3.519  15.152 -3.1312  1.9306  2.5265
 9013TIP3   OH248453   1.682   6.287   3.498  0.5322 -0.1854 -0.0049
 9013TIP3    H148454   1.756   6.233   3.523 -0.2507 -0.9496  0.7005
 9013TIP3    H248455   1.658   6.256   3.411  0.7780 -0.2126 -0.0638
 9014TIP3   OH248456   4.669   5.697  10.820  0.0695 -0.2241 -0.0564
 9014TIP3    H148457   4.628   5.685  10.735 -0.7281 -0.8167  0.4003
 9014TIP3    H248458   4.663   5.791  10.838 -1.4614 -0.3589  0.1836
 9015TIP3   OH248459   4.665   0.197   5.512  0.4149  0.0149 -0.9513
 9015TIP3    H148460   4.733   0.256   5.547  0.8099 -1.9318  1.7122
 9015TIP3    H248461   4.710   0.147   5.443  0.9292  0.6493 -1.0801
 9016TIP3   OH248462   5.664   5.916  17.135 -0.4083  0.1291  0.3905
 9016TIP3    H148463   5.686   5.951  17.049  3.3171  1.2241  1.6647
 9016TIP3    H248464   5.624   5.990  17.181  1.1686  0.7260  0.8335
 9017TIP3   OH248465   5.444   1.414   1.070  0.2005  0.3522  0.0372
 9017TIP3    H148466   5.360   1.375   1.046  1.1375 -2.0562  0.5203
 9017TIP3    H248467   5.494   1.416   0.988  0.3668 -0.0668  0.1239
 9018TIP3   OH248468   6.619   5.362   5.848 -0.6610 -0.3735  0.1363
 9018TIP3    H148469   6.652   5.275   5.871 -0.9195 -0.1554  1.3535
 9018TIP3    H248470   6.654   5.378   5.761  1.1821 -0.8055  0.7750
 9019TIP3   OH248471   1.271   1.374   0.656  0.7070  0.1274  1.1443
 9019TIP3    H148472   1.200   1.309   0.657  1.1599 -0.3952  0.2755
 9019TIP3    H248473   1.334   1.341   0.720  0.1424  0.6158  1.9495
 9020TIP3   OH248474   4.932   0.956  13.386  0.1261 -0.3515 -0.3367
 9020TIP3    H148475   4.963   0.876  13.427  2.2567 -0.6741 -2.4579
 9020TIP3    H248476   4.839   0.961  13.409  0.5042 -2.2362  1.6609
 9021TIP3   OH248477   5.922   1.548   2.308 -0.2307 -0.3784  0.2475
 9021TIP3    H148478   5.921   1.470   2.253  2.8101  1.0377 -2.0203
 9021TIP3    H248479   5.876   1.615   2.257 -0.1604  0.1094  0.8122
 9022TIP3   OH248480   3.384   3.284   3.502 -0.3509  0.1202 -0.3393
 9022TIP3    H148481   3.390   3.192   3.475 -0.4432 -0.4391  1.4501
 9022TIP3    H248482   3.294   3.309   3.482 -0.9411 -0.8201  1.0222
 9023TIP3   OH248483   6.100   0.938   1.096  0.0440  0.3544  0.4609
 9023TIP3    H148484   6.134   0.849   1.090  0.3568  0.4185  1.2447
 9023TIP3    H248485   6.170   0.987   1.138 -0.7588  0.6310  1.4776
 9024TIP3   OH248486   3.502   3.997  14.137  0.3702 -0.5014 -0.2299
 9024TIP3    H148487   3.498   4.067  14.202  0.9187 -1.1326  0.5030
 9024TIP3    H248488   3.594   3.995  14.108 -0.1191  0.5478 -1.9047
 9025TIP3   OH248489   3.067   0.632  12.126 -0.0776  0.2534  0.1571
 9025TIP3    H148490   3.142   0.573  12.122 -0.5296 -0.3530  0.6159
 9025TIP3    H248491   3.094   0.701  12.186 -0.2893 -0.5420  1.1784
 9026TIP3   OH248492   1.494   4.091  14.977  0.1683 -0.1140  0.5540
 9026TIP3    H148493   1.520   4.167  14.925 -2.1572  0.6309  0.3888
 9026TIP3    H248494   1.547   4.096  15.056 -0.4894  2.1746  0.8993
 9027TIP3   OH248495   5.110   0.744   2.103 -0.3560 -0.0999  0.4647
 9027TIP3    H148496   5.126   0.655   2.071 -2.4945 -0.2581 -0.2291
 9027TIP3    H248497   5.092   0.733   2.196 -1.4890 -0.4987  0.2025
 9028TIP3   OH248498   2.348   1.860   3.965 -0.3240 -0.7065  0.1477
 9028TIP3    H148499   2.358   1.895   3.876 -0.0790 -1.1608 -0.0050
 9028TIP3    H248500   2.343   1.765   3.952 -0.1248 -0.7794  0.6394
 9029TIP3   OH248501   6.067   3.403   5.395 -0.2549 -0.2613 -0.0535
 9029TIP3    H148502   6.077   3.453   5.314 -0.5040 -0.0883  0.0227
 9029TIP3    H248503   6.157   3.388   5.425 -0.1802  0.3365  0.0382
 9030TIP3   OH248504   5.981   1.888  12.343 -0.4369 -0.4358  0.6653
 9030TIP3    H148505   6.070   1.920  12.360 -0.3575 -0.3400  0.0648
 9030TIP3    H248506   5.954   1.933  12.263 -0.5703 -1.3788  0.1780
 9031TIP3   OH248507   5.594   0.457  11.469  0.5226  0.2365 -0.3090
 9031TIP3    H148508   5.685   0.473  11.493  0.3844  1.4431 -0.5544
 9031TIP3    H248509   5.598   0.392  11.399  1.2403  0.9319 -0.9085
 9032TIP3   OH248510   1.167   4.458  13.858  0.7052 -0.0449  0.2636
 9032TIP3    H148511   1.187   4.368  13.884  0.8640  0.3611  1.5520
 9032TIP3    H248512   1.252   4.500  13.847  0.6254  0.0734  0.0884
 9033TIP3   OH248513   4.803   6.728  16.594  0.3538 -0.0876 -0.0585
 9033TIP3    H148514   4.818   6.819  16.616  1.4143 -0.4796  0.8821
 9033TIP3    H248515   4.829   6.679  16.672 -0.2586 -1.1857 -0.5273
 9034TIP3   OH248516   5.905   2.354  12.063 -0.4246 -0.0442  0.7759
 9034TIP3    H148517   5.888   2.274  12.112 -1.0972  0.1255  0.8293
 9034TIP3    H248518   5.829   2.365  12.006 -0.1467  0.3319  0.4714
 9035TIP3   OH248519   0.355   0.124   1.825 -0.1919 -0.3854  0.1489
 9035TIP3    H148520   0.306   0.047   1.798 -0.2547 -0.4997  0.5916
 9035TIP3    H248521   0.447   0.096   1.821 -0.2957 -1.0159  1.9775
 9036TIP3   OH248522   1.750   3.848  11.233 -0.0342 -0.4085  0.0648
 9036TIP3    H148523   1.829   3.803  11.263  0.1044 -0.8909 -1.0212
 9036TIP3    H248524   1.700   3.863  11.313  0.8594 -0.6673  0.6831
 9037TIP3   OH248525   4.251   5.271  15.532 -0.0919 -0.1421  0.5149
 9037TIP3    H148526   4.285   5.184  15.511 -0.7762 -0.2435 -0.1908
 9037TIP3    H248527   4.313   5.332  15.492 -1.0367 -0.3296 -1.2731
 9038TIP3   OH248528   0.527   4.658   3.427 -0.0440 -0.1259  0.2948
 9038TIP3    H148529   0.522   4.753   3.417  0.3371 -0.2016 -0.6276
 9038TIP3    H248530   0.541   4.625   3.338 -3.5418 -1.2818  0.0827
 9039TIP3   OH248531   6.465   4.739   1.261 -0.4039  0.3859  0.5332
 9039TIP3    H148532   6.480   4.644   1.253 -0.9732  0.4042 -0.9208
 9039TIP3    H248533   6.401   4.746   1.332 -2.2297 -0.5161 -0.9818
 9040TIP3   OH248534   0.155   5.260   5.565 -0.1002  0.2887  0.5780
 9040TIP3    H148535   0.242   5.282   5.530 -0.3999 -0.7544 -0.8218
 9040TIP3    H248536   0.113   5.209   5.496 -2.3790  1.9839  0.6511
 9041TIP3   OH248537   3.048   2.820  17.000  0.5687 -0.2106 -0.7789
 9041TIP3    H148538   3.084   2.831  17.088 -2.1933 -0.7189  0.4488
 9041TIP3    H248539   3.048   2.908  16.963 -1.8413  0.6875  1.2033
 9042TIP3   OH248540   4.559   6.345  12.355 -0.4190 -0.4132  0.6879
 9042TIP3    H148541   4.573   6.285  12.428  2.5486  1.2250  1.5446
 9042TIP3    H248542   4.568   6.291  12.277  1.2952 -1.2503  1.4580
 9043TIP3   OH248543   1.614   0.174  13.937  0.3752 -0.0985 -0.0729
 9043TIP3    H148544   1.697   0.215  13.911 -0.0925 -0.1342 -1.6644
 9043TIP3    H248545   1.562   0.246  13.972 -0.3547  0.6699 -2.6388
 9044TIP3   OH248546   4.025   5.809   1.213  0.2762 -0.3601  0.2556
 9044TIP3    H148547   3.991   5.726   1.248 -0.5806  0.1203  0.5872
 9044TIP3    H248548   4.118   5.808   1.235  0.1731 -1.0154  0.6890
 9045TIP3   OH248549   6.591   0.401  13.926  0.0387 -0.2124  0.3761
 9045TIP3    H148550   6.655   0.403  13.855 -0.8035  1.4986 -0.3686
 9045TIP3    H248551   6.558   0.491  13.931 -2.0373 -0.9812  0.9763
 9046TIP3   OH248552   6.706   6.183  15.126 -0.2222 -0.0931  0.0752
 9046TIP3    H148553   6.750   6.238  15.061 -0.2676 -0.6128 -0.3927
 9046TIP3    H248554   6.630   6.235  15.153  0.6190  0.7700  0.8302
 9047TIP3   OH248555   2.771   4.195  11.246  0.1824 -0.1490  0.1830
 9047TIP3    H148556   2.796   4.119  11.298  0.8888  0.1802  0.3404
 9047TIP3    H248557   2.772   4.165  11.156 -0.6847 -0.6293  0.3260
 9048TIP3   OH248558   1.476   1.761  16.279 -0.0600 -0.4575  0.4760
 9048TIP3    H148559   1.558   1.811  16.270  0.1888 -1.2741 -1.9624
 9048TIP3    H248560   1.487   1.713  16.362  0.3895  2.2014  2.0165
 9049TIP3   OH248561   3.190   0.791  14.513 -0.1391 -0.1488  0.7517
 9049TIP3    H148562   3.234   0.711  14.484 -0.1017  0.5739 -1.2765
 9049TIP3    H248563   3.261   0.856  14.519 -0.6593  0.5826 -0.8754
 9050TIP3   OH248564   6.450   3.801   4.697  0.1103  0.2132  0.0034
 9050TIP3    H148565   6.397   3.876   4.723  1.1493  0.8108  0.3995
 9050TIP3    H248566   6.426   3.786   4.605 -1.0780  0.1853  0.3079
 9051TIP3   OH248567   0.233   1.631   2.151  0.3779 -0.3033  0.0309
 9051TIP3    H148568   0.140   1.655   2.142 -0.2840 -1.5614  2.9848
 9051TIP3    H248569   0.278   1.715   2.158 -0.5374  0.3211 -1.2841
 9052TIP3   OH248570   2.483   5.958  11.786  0.8334  0.3687 -0.1222
 9052TIP3    H148571   2.420   5.895  11.821  1.9459 -0.1388  1.0242
 9052TIP3    H248572   2.438   6.042  11.792 -0.0160 -0.0823 -0.0232
 9053TIP3   OH248573   1.784   3.135  14.547  0.6542  0.6684  0.2504
 9053TIP3    H148574   1.777   3.228  14.565 -1.2050  0.6872 -0.4402
 9053TIP3    H248575   1.728   3.093  14.612  0.2256  0.1569 -0.4358
 9054TIP3   OH248576   1.490   1.561  11.799 -0.0198  0.1415 -0.1564
 9054TIP3    H148577   1.559   1.577  11.864 -0.7235  1.5504  0.2681
 9054TIP3    H248578   1.512   1.475  11.762  1.7948  0.4276  0.1698
 9055TIP3   OH248579   0.677   3.292  14.765 -0.5495  0.5161 -0.1873
 9055TIP3    H148580   0.694   3.335  14.849 -3.0321  2.2412 -0.5322
 9055TIP3    H248581   0.676   3.198  14.786  1.1424  0.8002  1.2686
 9056TIP3   OH248582   1.863   3.554   6.009  0.0268  0.3808 -0.2597
 9056TIP3    H148583   1.948   3.520   5.981  0.1464  1.0563 -0.7149
 9056TIP3    H248584   1.823   3.482   6.058  0.7009 -0.0674 -0.3735
 9057TIP3   OH248585   0.962   0.918  12.101  0.0714 -0.4351 -0.2439
 9057TIP3    H148586   0.988   0.843  12.154  0.0987  0.1778  0.6284
 9057TIP3    H248587   0.869   0.929  12.119  0.2511  0.2536  0.2962
 9058TIP3   OH248588   2.798   0.598  11.440 -0.5171 -0.4712  0.3351
 9058TIP3    H148589   2.792   0.663  11.510  1.1789 -0.6859  0.6920
 9058TIP3    H248590   2.858   0.531  11.474  0.6902 -0.3574 -1.4953
 9059TIP3   OH248591   5.511   3.264  11.511  0.1608  0.0317 -0.5713
 9059TIP3    H148592   5.524   3.356  11.490 -1.7038  0.5010  0.2819
 9059TIP3    H248593   5.497   3.262  11.605 -0.2440 -1.0872 -0.6405
 9060TIP3   OH248594   5.545   6.127   1.776  0.2829  0.1363 -0.3019
 9060TIP3    H148595   5.606   6.110   1.848 -1.5582  0.6080  1.4149
 9060TIP3    H248596   5.531   6.222   1.779 -1.0989 -0.0588 -0.1943
 9061TIP3   OH248597   4.023   2.319  13.692  0.5515 -0.3524 -0.2904
 9061TIP3    H148598   4.018   2.301  13.598  1.4920 -0.0972 -0.3934
 9061TIP3    H248599   4.103   2.371  13.703 -0.3995  0.9724  0.4500
 9062TIP3   OH248600   1.670   3.796  15.614  0.0057  0.3215 -0.2005
 9062TIP3    H148601   1.630   3.876  15.648 -1.2728 -0.5245  0.3811
 9062TIP3    H248602   1.632   3.785  15.527 -1.9040 -1.0225  0.7445
 9063TIP3   OH248603   2.656   5.588  15.957 -0.0780  0.4716 -0.1400
 9063TIP3    H148604   2.649   5.683  15.971  0.6785  0.2981  1.5806
 9063TIP3    H248605   2.750   5.573  15.945  0.1082 -0.3346  2.0112
 9064TIP3   OH248606   5.713   4.324   5.167  0.0941 -0.2525  0.1583
 9064TIP3    H148607   5.639   4.263   5.167 -1.5620  1.6852 -0.7734
 9064TIP3    H248608   5.690   4.391   5.232  0.0954  1.4217 -1.5186
 9065TIP3   OH248609   5.886   4.126   6.591 -0.2557 -0.0515 -0.0062
 9065TIP3    H148610   5.951   4.060   6.564 -0.7323 -1.0378  1.2126
 9065TIP3    H248611   5.838   4.084   6.662 -2.4639  0.5567 -1.1227
 9066TIP3   OH248612   2.835   5.517   2.344  0.1077  0.7384  0.7224
 9066TIP3    H148613   2.858   5.521   2.437 -0.7917 -0.0437  0.9915
 9066TIP3    H248614   2.739   5.520   2.343  0.0667 -0.3195 -0.1083
 9067TIP3   OH248615   3.916   0.193  16.068 -0.4979  0.2085 -0.5604
 9067TIP3    H148616   3.870   0.190  16.151  1.2709  0.0642  0.4534
 9067TIP3    H248617   3.969   0.273  16.072  2.7196 -1.8584  0.2183
 9068TIP3   OH248618   5.707   3.409   4.961  0.4467  0.3922 -0.0954
 9068TIP3    H148619   5.773   3.445   4.901 -1.7098  0.0967 -2.7073
 9068TIP3    H248620   5.720   3.314   4.957  0.0358  0.3498 -0.3958
 9069TIP3   OH248621   5.970   0.914  13.614  0.0129 -0.2888 -0.0139
 9069TIP3    H148622   6.056   0.941  13.584  0.3623  0.9164  2.0156
 9069TIP3    H248623   5.979   0.820  13.633  0.2767 -0.6486 -1.8192
 9070TIP3   OH248624   6.371   3.450   0.456  0.1278  0.0899  0.4309
 9070TIP3    H148625   6.294   3.397   0.473  0.0841  0.1251  0.3370
 9070TIP3    H248626   6.374   3.459   0.361  0.0020  0.4579  0.4640
 9071TIP3   OH248627   1.862   2.567  12.498 -0.7539  0.0317 -0.0133
 9071TIP3    H148628   1.801   2.584  12.569  2.2581  0.9646  2.4390
 9071TIP3    H248629   1.909   2.650  12.487  1.6816 -1.3536 -0.2532
 9072TIP3   OH248630   4.325   4.849  11.524 -0.4189 -0.5672  0.1913
 9072TIP3    H148631   4.398   4.812  11.573 -0.9249  1.0972  2.3028
 9072TIP3    H248632   4.356   4.935  11.496 -1.3617 -0.0656  0.6485
 9073TIP3   OH248633   0.692   2.112  11.801  0.0980 -0.1108 -0.2291
 9073TIP3    H148634   0.613   2.068  11.771  0.6141  0.4105 -2.4634
 9073TIP3    H248635   0.763   2.050  11.781  0.1495 -1.2449  3.1782
 9074TIP3   OH248636   3.403   6.242  11.697 -0.0992  0.2472 -0.6734
 9074TIP3    H148637   3.333   6.252  11.762 -0.4221 -2.0628 -0.6044
 9074TIP3    H248638   3.484   6.255  11.747 -0.4144  0.7337 -0.2828
 9075TIP3   OH248639   4.912   2.115  13.063 -0.0522 -0.4086 -0.0035
 9075TIP3    H148640   4.930   2.204  13.094  1.0252 -0.8491  0.6648
 9075TIP3    H248641   4.835   2.087  13.113  0.5824 -0.4445  0.9676
 9076TIP3   OH248642   4.738   1.362  15.890  0.1328 -0.1541 -0.2043
 9076TIP3    H148643   4.789   1.435  15.926 -0.1066  0.6095 -1.3824
 9076TIP3    H248644   4.708   1.313  15.967  1.4659  0.1935  0.5476
 9077TIP3   OH248645   3.190   1.305   0.285  0.3500 -0.6426 -0.3618
 9077TIP3    H148646   3.101   1.326   0.312  0.6435 -0.7365  0.7106
 9077TIP3    H248647   3.182   1.225   0.233 -0.1045 -1.1109  0.4162
 9078TIP3   OH248648   2.514   4.004   4.812  0.2060 -0.4299  0.2156
 9078TIP3    H148649   2.573   3.949   4.864  1.0279  1.3038  1.1634
 9078TIP3    H248650   2.558   4.089   4.809  0.6691 -0.7170 -4.1208
 9079TIP3   OH248651   0.709   1.053   0.806 -0.1276  1.0993  0.2722
 9079TIP3    H148652   0.732   1.054   0.899  0.8261  0.1284  0.0585
 9079TIP3    H248653   0.746   0.971   0.773  1.5189  2.4791 -1.4489
 9080TIP3   OH248654   0.753   3.298   5.249 -0.2260  0.1175 -0.1822
 9080TIP3    H148655   0.824   3.362   5.247  0.2999 -0.3637  1.6858
 9080TIP3    H248656   0.673   3.351   5.247  0.2081  0.8550  1.1860
 9081TIP3   OH248657   4.919   0.698  11.158 -0.6043 -0.4817 -0.4075
 9081TIP3    H148658   4.857   0.644  11.109 -2.2297  1.2376 -0.2787
 9081TIP3    H248659   4.920   0.782  11.112  1.5131 -0.4071 -0.3061
 9082TIP3   OH248660   2.856   4.902   1.136 -0.5936 -0.0942 -0.3202
 9082TIP3    H148661   2.847   4.990   1.172  0.5360 -0.4400  0.8383
 9082TIP3    H248662   2.795   4.900   1.062 -2.3867  0.8734  1.0986
 9083TIP3   OH248663   0.586   5.273   6.250  0.3686  0.0563 -0.0304
 9083TIP3    H148664   0.551   5.249   6.164  0.1610 -1.4072  0.4557
 9083TIP3    H248665   0.551   5.207   6.309  1.5796  0.3042  0.9656
 9084TIP3   OH248666   0.325   3.447  12.281 -0.1999  0.1561 -0.6273
 9084TIP3    H148667   0.350   3.479  12.194  0.7949 -1.3291 -0.9133
 9084TIP3    H248668   0.337   3.352  12.275 -0.3299  0.0219  1.0808
 9085TIP3   OH248669   3.768   6.236   4.128 -0.3305 -0.0831 -0.1865
 9085TIP3    H148670   3.676   6.259   4.143 -0.3800 -0.5040  0.1616
 9085TIP3    H248671   3.780   6.153   4.173  0.6022  0.6882  1.0203
 9086TIP3   OH248672   1.549   6.593  16.094  0.2239 -0.2621 -0.5991
 9086TIP3    H148673   1.571   6.545  16.173 -0.1110  0.5700  0.0086
 9086TIP3    H248674   1.459   6.622  16.108  0.2724  0.1579 -1.1490
 9087TIP3   OH248675   5.787   6.516  11.658 -0.0607 -0.4138  0.2605
 9087TIP3    H148676   5.876   6.552  11.655 -0.7503  1.3555 -0.2527
 9087TIP3    H248677   5.736   6.577  11.603 -1.3654 -2.0142 -0.3351
 9088TIP3   OH248678   2.881   1.249   3.732  0.4103  0.0538  0.2200
 9088TIP3    H148679   2.867   1.156   3.749  5.0135 -0.9114 -0.5179
 9088TIP3    H248680   2.835   1.266   3.650 -0.5710 -1.5594  0.4190
 9089TIP3   OH248681   2.289   2.695  15.553  0.0528  0.2884  0.0656
 9089TIP3    H148682   2.276   2.624  15.489 -1.1595 -0.6882  1.3625
 9089TIP3    H248683   2.255   2.659  15.635 -0.0972  2.2024  0.8546
 9090TIP3   OH248684   5.687   2.837   3.376  0.1981 -0.4300 -0.4151
 9090TIP3    H148685   5.737   2.914   3.405 -1.6141  0.4640  0.4383
 9090TIP3    H248686   5.721   2.818   3.289  2.2250 -0.0414  0.2458
 9091TIP3   OH248687   1.181   4.873  16.335  0.2018 -0.6354 -0.6445
 9091TIP3    H148688   1.176   4.851  16.428 -3.1357 -0.2328 -0.6591
 9091TIP3    H248689   1.116   4.817  16.293 -0.0377  0.8717 -2.3647
 9092TIP3   OH248690   1.046   3.908  15.755  0.0790  0.0133 -0.0262
 9092TIP3    H148691   0.970   3.936  15.807 -0.3535 -0.1601 -0.5639
 9092TIP3    H248692   1.095   3.850  15.813 -0.6560 -0.5614  0.0243
 9093TIP3   OH248693   2.499   4.236  12.309  0.2738  0.7653 -0.1351
 9093TIP3    H148694   2.540   4.197  12.386 -0.6155 -0.0264 -0.0432
 9093TIP3    H248695   2.405   4.218  12.321 -0.0655  2.2963 -0.4697
 9094TIP3   OH248696   1.594   1.182  12.840  0.2145 -0.4117 -0.6347
 9094TIP3    H148697   1.586   1.204  12.933  1.4061  2.5521 -1.1683
 9094TIP3    H248698   1.504   1.174  12.809 -0.1921 -1.5027  0.7721
 9095TIP3   OH248699   0.402   6.583  11.330  0.1869 -0.4103  0.0388
 9095TIP3    H148700   0.368   6.552  11.246 -0.7620  1.3973 -0.2577
 9095TIP3    H248701   0.368   6.522  11.395  0.5882 -1.5759 -0.8373
 9096TIP3   OH248702   5.707   6.075   5.909 -0.3486  0.3641 -0.3263
 9096TIP3    H148703   5.701   6.040   5.998 -0.7154  2.8182  0.6280
 9096TIP3    H248704   5.756   6.008   5.861  2.2125  0.2195  2.3377
 9097TIP3   OH248705   3.624   2.121  12.031 -0.1995  0.3729 -0.3155
 9097TIP3    H148706   3.557   2.054  12.048  0.1241  0.0132 -0.4312
 9097TIP3    H248707   3.706   2.071  12.027 -0.1680  0.5287 -2.2091
 9098TIP3   OH248708   4.623   0.576  13.622  0.3478 -0.0257  0.4645
 9098TIP3    H148709   4.625   0.487  13.658 -0.6432  0.3930  1.6202
 9098TIP3    H248710   4.560   0.622  13.678  0.0842  1.1264 -0.7556
 9099TIP3   OH248711   6.500   2.296   3.680  0.3642  0.9524  0.3589
 9099TIP3    H148712   6.428   2.314   3.741 -0.4868 -1.4834  0.1311
 9099TIP3    H248713   6.567   2.254   3.735  0.5415  0.8657  0.0747
 9100TIP3   OH248714   4.494   2.251  14.024 -0.5891 -0.5708  0.4610
 9100TIP3    H148715   4.540   2.204  14.093 -1.4746 -4.6359 -1.6011
 9100TIP3    H248716   4.563   2.287  13.969  0.0904  0.1407  1.7616
 9101TIP3   OH248717   5.636   1.173   4.743 -0.1503  0.1410  0.2783
 9101TIP3    H148718   5.616   1.149   4.653  1.9863  0.0055 -0.1749
 9101TIP3    H248719   5.563   1.137   4.794 -1.2314 -0.0035 -1.3428
 9102TIP3   OH248720   4.892   3.233   0.830  0.2445 -0.0208  0.9955
 9102TIP3    H148721   4.808   3.236   0.876 -1.6507  0.2090 -2.2812
 9102TIP3    H248722   4.918   3.324   0.822 -0.0937  0.0378  0.5099
 9103TIP3   OH248723   3.912   2.824   0.403 -0.2137 -0.0839 -0.1682
 9103TIP3    H148724   3.840   2.869   0.448  2.7575  2.3077  2.3967
 9103TIP3    H248725   3.926   2.744   0.454 -1.9179 -1.2954 -1.5263
 9104TIP3   OH248726   4.550   5.764  15.087 -0.4237  0.0231 -0.5481
 9104TIP3    H148727   4.537   5.799  14.999 -1.3846  0.2321 -0.3344
 9104TIP3    H248728   4.493   5.818  15.143 -1.6898 -1.6587 -0.1643
 9105TIP3   OH248729   3.990   5.360  13.903 -0.0217  0.7424 -0.1952
 9105TIP3    H148730   4.050   5.354  13.977 -1.7572  0.7788  1.2431
 9105TIP3    H248731   3.903   5.370  13.943 -1.3348 -2.2267 -2.1665
 9106TIP3   OH248732   4.924   2.636   3.402  0.3512 -0.3300 -0.4148
 9106TIP3    H148733   4.935   2.541   3.391  2.8422 -0.4545  2.3935
 9106TIP3    H248734   4.965   2.673   3.324  1.4627 -1.5475 -0.4473
 9107TIP3   OH248735   6.334   1.592   3.376  0.2167  0.0997 -0.0794
 9107TIP3    H148736   6.342   1.522   3.312 -1.0250  0.3456 -0.5237
 9107TIP3    H248737   6.340   1.673   3.325  0.0299  0.3029  0.2168
 9108TIP3   OH248738   2.472   4.216   1.852  0.3072  0.3460 -0.1517
 9108TIP3    H148739   2.431   4.257   1.776  0.3514  1.4983  0.4413
 9108TIP3    H248740   2.565   4.217   1.833  0.1230 -2.0334 -1.3803
 9109TIP3   OH248741   2.560   0.004   4.590 -0.4873 -0.0932  0.4644
 9109TIP3    H148742   2.466   0.007   4.572 -0.4992 -0.8364  0.4102
 9109TIP3    H248743   2.577   0.085   4.639 -1.0672  0.2780  0.0658
 9110TIP3   OH248744   3.587   6.092  10.951 -0.3971 -0.2396 -0.7888
 9110TIP3    H148745   3.676   6.110  10.980 -0.7082  0.1675 -0.0584
 9110TIP3    H248746   3.560   6.017  11.004 -0.2435 -0.8061 -1.5086
 9111TIP3   OH248747   3.576   3.891   3.730  0.0297  0.0046  0.1850
 9111TIP3    H148748   3.592   3.907   3.637 -1.4568 -1.5144 -0.3713
 9111TIP3    H248749   3.640   3.824   3.754  0.5512  0.5474  0.3019
 9112TIP3   OH248750   4.106   0.302   1.058 -0.1737  0.8325  0.1579
 9112TIP3    H148751   4.041   0.339   1.117 -1.9064 -1.6250 -0.1473
 9112TIP3    H248752   4.095   0.350   0.976 -0.5838  1.4486  0.5743
 9113TIP3   OH248753   0.829   4.738  10.987  0.1544  0.4819  0.1959
 9113TIP3    H148754   0.832   4.789  11.068 -1.2162 -0.6800  1.0056
 9113TIP3    H248755   0.761   4.781  10.935  0.3806  0.6722  0.0605
 9114TIP3   OH248756   3.890   0.650   2.362  0.1234  0.6426 -0.1387
 9114TIP3    H148757   3.881   0.574   2.418 -0.2238  1.0312  0.3290
 9114TIP3    H248758   3.985   0.668   2.361  0.1664  0.4219  0.0380
 9115TIP3   OH248759   2.649   5.641  14.623 -0.0593  0.1644 -0.4632
 9115TIP3    H148760   2.657   5.697  14.700  0.2424 -1.2793  0.5732
 9115TIP3    H248761   2.717   5.671  14.564  0.4869  0.5098  0.3309
 9116TIP3   OH248762   1.702   4.039  16.666 -0.3994  0.0569  0.4207
 9116TIP3    H148763   1.769   3.975  16.692 -0.5771 -0.6001 -0.7027
 9116TIP3    H248764   1.750   4.110  16.626 -0.2230  0.5054  1.4132
 9117TIP3   OH248765   5.510   1.423  13.125 -0.2356 -0.0708 -0.2601
 9117TIP3    H148766   5.551   1.494  13.076 -1.6897  1.2530  0.4215
 9117TIP3    H248767   5.417   1.447  13.129 -0.4287 -1.0705  1.5727
 9118TIP3   OH248768   3.998   2.184  11.951 -0.1436 -0.5296  0.6126
 9118TIP3    H148769   3.963   2.110  12.000  0.1080 -0.4601  0.8951
 9118TIP3    H248770   4.092   2.179  11.962 -0.1917  0.4712  1.5637
 9119TIP3   OH248771   0.980   1.949  11.275  0.2465 -0.5235 -0.4590
 9119TIP3    H148772   0.899   1.978  11.316  1.3664  0.7017  0.9468
 9119TIP3    H248773   0.988   2.003  11.196  0.5236  0.5327  0.2820
 9120TIP3   OH248774   5.887   4.754  12.791 -0.4629 -0.1329  0.4722
 9120TIP3    H148775   5.832   4.778  12.716  0.8889  1.4956 -0.0010
 9120TIP3    H248776   5.958   4.702  12.754 -0.3144 -0.1346  0.7534
 9121TIP3   OH248777   6.054   3.348   1.666  0.1916  0.1733  0.3122
 9121TIP3    H148778   6.006   3.431   1.675  1.3622  0.7269  1.6340
 9121TIP3    H248779   6.021   3.294   1.738 -2.4834 -1.5331 -2.0585
 9122TIP3   OH248780   4.863   5.847   0.129  0.3771  0.1474  0.0712
 9122TIP3    H148781   4.809   5.874   0.055  2.3781 -0.7164 -1.7499
 9122TIP3    H248782   4.821   5.766   0.161 -0.3332  0.3762 -0.2793
 9123TIP3   OH248783   5.747   4.153   1.399 -0.1373  0.2714 -0.1968
 9123TIP3    H148784   5.761   4.133   1.307  0.4284 -0.7227  0.0955
 9123TIP3    H248785   5.797   4.233   1.415  0.7999 -0.2561 -0.4519
 9124TIP3   OH248786   5.812   2.590   2.443 -1.0380 -0.6752  0.2457
 9124TIP3    H148787   5.826   2.566   2.351  1.8428 -0.2116  0.5257
 9124TIP3    H248788   5.734   2.647   2.441 -0.3330  0.2796 -2.0683
 9125TIP3   OH248789   1.804   5.194   1.505 -0.2243 -0.4527  0.4495
 9125TIP3    H148790   1.711   5.173   1.512 -0.7554  0.9289 -1.9472
 9125TIP3    H248791   1.811   5.282   1.543  0.1503 -0.6673  0.8779
 9126TIP3   OH248792   6.400   3.895   3.210 -0.3037  0.1677  0.5250
 9126TIP3    H148793   6.433   3.945   3.136  1.7104 -1.7093  0.0999
 9126TIP3    H248794   6.377   3.961   3.276 -1.1269  1.7858 -1.3546
 9127TIP3   OH248795   4.820   5.528  15.690  0.6953  0.4873  0.3091
 9127TIP3    H148796   4.750   5.463  15.697 -0.1777  1.0370 -2.6242
 9127TIP3    H248797   4.777   5.611  15.708  0.4765  0.8585 -1.7829
 9128TIP3   OH248798   5.154   3.741  16.344  0.2190  0.2027 -0.1172
 9128TIP3    H148799   5.213   3.725  16.418 -1.5794 -1.0397  1.0990
 9128TIP3    H248800   5.103   3.818  16.371 -1.7179 -1.3602  0.7853
 9129TIP3   OH248801   4.629   3.657  14.478 -0.5114 -0.6140  0.3604
 9129TIP3    H148802   4.585   3.628  14.399 -1.0604 -0.1290  0.4844
 9129TIP3    H248803   4.594   3.744  14.495 -0.1058 -0.5516  0.9147
 9130TIP3   OH248804   1.499   4.422   4.364  0.4114  0.0724 -0.8308
 9130TIP3    H148805   1.568   4.486   4.383 -0.4629  0.6960  0.3503
 9130TIP3    H248806   1.503   4.360   4.436 -1.2428  0.9818  0.0936
 9131TIP3   OH248807   6.245   0.729  14.640 -0.5983 -0.4661  0.1144
 9131TIP3    H148808   6.229   0.705  14.732 -0.6586 -0.0482  0.2149
 9131TIP3    H248809   6.315   0.794  14.644 -0.5314 -0.5250 -0.1430
 9132TIP3   OH248810   2.506   6.298   5.515 -0.1556 -0.1608  0.1118
 9132TIP3    H148811   2.481   6.227   5.456  1.7689 -1.3387  0.6783
 9132TIP3    H248812   2.459   6.278   5.597 -0.1979 -0.3737  0.0358
 9133TIP3   OH248813   6.135   4.657  16.880 -0.3231  0.3478  0.3139
 9133TIP3    H148814   6.061   4.612  16.920  1.4239 -1.9435  1.0540
 9133TIP3    H248815   6.136   4.627  16.790  0.6791 -0.9144  0.7363
 9134TIP3   OH248816   6.785   3.524  11.159  0.4352  0.3631 -0.4568
 9134TIP3    H148817   6.767   3.461  11.089 -0.4418 -0.0884  0.1716
 9134TIP3    H248818   6.700   3.564  11.178  0.9710  1.7347 -0.8251
 9135TIP3   OH248819   6.520   3.563   3.047  0.5385 -0.1507 -1.0329
 9135TIP3    H148820   6.557   3.480   3.017  0.6746 -0.9515  1.2733
 9135TIP3    H248821   6.595   3.622   3.053  1.2759 -1.3446  2.2077
 9136TIP3   OH248822   3.344   5.312  14.765  0.0321 -0.4653  0.4191
 9136TIP3    H148823   3.336   5.241  14.829 -2.1029 -0.7545 -0.1164
 9136TIP3    H248824   3.286   5.381  14.799 -1.3166 -0.7172 -1.2861
 9137TIP3   OH248825   5.834   0.997  12.890  0.0092 -0.1950 -0.1597
 9137TIP3    H148826   5.889   1.070  12.864  1.0552 -0.7510  0.4830
 9137TIP3    H248827   5.767   1.036  12.947 -0.6662  0.5786 -1.4610
 9138TIP3   OH248828   0.910   2.388  15.316  0.3541 -0.3780 -0.2869
 9138TIP3    H148829   0.861   2.417  15.393 -1.9123  0.0311 -1.8108
 9138TIP3    H248830   0.963   2.464  15.291  0.4654 -0.2351  0.3747
 9139TIP3   OH248831   0.953   3.811   2.840  0.1547  0.3128  0.0368
 9139TIP3    H148832   1.011   3.867   2.789  0.4324 -0.4374 -0.4763
 9139TIP3    H248833   0.866   3.850   2.830  0.1953  0.1186 -1.0755
 9140TIP3   OH248834   5.233   5.938   5.315  0.5892  0.3929  0.1444
 9140TIP3    H148835   5.281   5.967   5.238  0.7185 -0.2840 -0.0303
 9140TIP3    H248836   5.300   5.902   5.373  0.2011 -1.2971 -0.4451
 9141TIP3   OH248837   3.634   2.067   2.665  0.0018 -0.0588 -0.0747
 9141TIP3    H148838   3.574   2.119   2.612 -0.0896  0.1259  0.2049
 9141TIP3    H248839   3.707   2.048   2.607 -0.1835 -0.0182 -0.3227
 9142TIP3   OH248840   2.254   3.414  16.492 -0.5527  0.3658  0.2258
 9142TIP3    H148841   2.234   3.379  16.579 -2.4938  1.7907  0.3845
 9142TIP3    H248842   2.181   3.473  16.473  1.0668  1.9021 -1.3550
 9143TIP3   OH248843   2.166   0.532  13.798 -1.2746 -0.1101  0.1056
 9143TIP3    H148844   2.109   0.559  13.869 -1.0707 -0.4936  0.4158
 9143TIP3    H248845   2.242   0.492  13.841 -0.3679  1.1652 -0.2669
 9144TIP3   OH248846   3.347   6.557  15.218 -0.5556  0.5468 -0.2093
 9144TIP3    H148847   3.426   6.588  15.173  0.2196 -1.0956  0.0111
 9144TIP3    H248848   3.373   6.551  15.310 -0.6398 -0.9425 -0.2788
 9145TIP3   OH248849   5.927   0.684  14.903 -0.2784 -0.0315 -0.5233
 9145TIP3    H148850   5.941   0.594  14.930 -0.2620  0.0292 -0.3290
 9145TIP3    H248851   5.917   0.733  14.985  1.5162  0.4506 -0.5786
 9146TIP3   OH248852   5.490   4.524   2.456 -0.0209 -0.0266 -0.0866
 9146TIP3    H148853   5.427   4.528   2.385  0.9936  0.2195 -0.9880
 9146TIP3    H248854   5.509   4.616   2.476  0.4791 -0.1035 -0.2051
 9147TIP3   OH248855   5.305   2.819  15.569  0.5579  0.0675  0.4900
 9147TIP3    H148856   5.342   2.799  15.655  0.8835 -1.1685  0.0753
 9147TIP3    H248857   5.211   2.805  15.580  0.6219 -0.2852  0.5953
 9148TIP3   OH248858   6.676   1.077  14.010  0.0803 -0.2113  0.2497
 9148TIP3    H148859   6.667   1.051  13.918  1.3424 -0.6254  0.2295
 9148TIP3    H248860   6.715   1.164  14.007  0.2481 -0.2824  0.4047
 9149TIP3   OH248861   5.034   4.443   3.575 -0.1216  0.0776 -0.1140
 9149TIP3    H148862   4.988   4.373   3.529  1.0532 -0.4606 -0.5026
 9149TIP3    H248863   5.081   4.490   3.505  0.5088  0.1496  0.3550
 9150TIP3   OH248864   5.708   1.750   0.722 -0.5588  0.8195  0.1589
 9150TIP3    H148865   5.705   1.844   0.740 -0.9867  0.8850 -0.2427
 9150TIP3    H248866   5.737   1.743   0.631 -1.7910  0.6092 -0.2213
 9151TIP3   OH248867   3.483   4.929   1.796 -0.5029  0.2780  0.0673
 9151TIP3    H148868   3.429   4.868   1.747  0.7048 -1.9601  1.4245
 9151TIP3    H248869   3.462   4.911   1.888  1.4165  0.3878  0.5485
 9152TIP3   OH248870   0.766   5.644  11.697 -0.3981  0.0577 -0.3380
 9152TIP3    H148871   0.728   5.573  11.645  2.7439 -1.2539 -1.0074
 9152TIP3    H248872   0.757   5.721  11.641 -1.3230 -0.3723 -0.7977
 9153TIP3   OH248873   6.207   1.682   0.861 -0.4897 -0.1261 -0.1782
 9153TIP3    H148874   6.297   1.670   0.831  0.0106 -0.8279  1.4979
 9153TIP3    H248875   6.169   1.746   0.801  0.8722 -0.4480 -1.4029
 9154TIP3   OH248876   4.847   5.824   1.622  0.3805  0.4076  0.2355
 9154TIP3    H148877   4.867   5.767   1.548 -0.4171 -0.2936  0.5525
 9154TIP3    H248878   4.932   5.846   1.660  0.6937 -0.5093  0.0661
 9155TIP3   OH248879   0.883   3.268  11.996  0.1224  0.2489 -0.0766
 9155TIP3    H148880   0.899   3.301  12.085 -2.2510  0.8387  0.1715
 9155TIP3    H248881   0.805   3.316  11.967 -0.2215 -1.2926 -1.7529
 9156TIP3   OH248882   0.383   1.555   4.793 -0.5474  0.5463 -0.1730
 9156TIP3    H148883   0.472   1.588   4.793 -0.5468  0.5511  0.6621
 9156TIP3    H248884   0.335   1.615   4.736 -0.0239  0.5438 -0.6214
 9157TIP3   OH248885   4.686   5.568   1.194  0.6577  0.0388 -0.3437
 9157TIP3    H148886   4.693   5.562   1.289 -1.7093  2.1298  0.0067
 9157TIP3    H248887   4.730   5.489   1.162 -0.7783 -2.0337  2.5766
 9158TIP3   OH248888   3.086   1.217   0.632  0.2254 -0.2197  0.5535
 9158TIP3    H148889   3.131   1.155   0.689  0.2658  1.5858  2.5856
 9158TIP3    H248890   3.153   1.283   0.613 -0.0083 -0.4328 -1.0077
 9159TIP3   OH248891   3.286   1.355   4.183  0.0907  0.1534 -0.2106
 9159TIP3    H148892   3.232   1.431   4.162  0.5699  0.2723 -1.0292
 9159TIP3    H248893   3.301   1.312   4.098 -0.0297 -0.7529  0.2199
 9160TIP3   OH248894   0.413   0.103   5.376  0.2115 -0.5667 -0.0419
 9160TIP3    H148895   0.374   0.124   5.291 -0.6901 -0.4577  0.3910
 9160TIP3    H248896   0.460   0.021   5.361 -1.3688 -1.4585 -0.2442
 9161TIP3   OH248897   2.970   5.371  11.991 -0.2180 -0.3715 -0.1720
 9161TIP3    H148898   3.031   5.436  11.956 -0.0767  0.2458  1.2017
 9161TIP3    H248899   3.017   5.330  12.063 -1.7559  0.7610  1.5144
 9162TIP3   OH248900   4.966   6.025  11.314  0.0161  0.1714  0.5755
 9162TIP3    H148901   4.885   6.028  11.264  1.0706 -1.3170 -1.2735
 9162TIP3    H248902   5.021   6.092  11.275  0.2126  0.2020  0.9008
 9163TIP3   OH248903   6.629   3.124  11.961  0.3656  0.0697 -0.1662
 9163TIP3    H148904   6.623   3.144  12.054  2.2909  0.9849 -0.2115
 9163TIP3    H248905   6.712   3.163  11.933 -0.6228  0.6497 -2.4704
 9164TIP3   OH248906   4.227   3.524   1.926  0.5321 -0.0568  0.2827
 9164TIP3    H148907   4.240   3.560   2.013 -1.1134 -0.3664  0.6732
 9164TIP3    H248908   4.296   3.562   1.873  0.8910  0.9686  1.4825
 9165TIP3   OH248909   2.012   1.670   6.228 -0.2383 -0.2352  0.0717
 9165TIP3    H148910   2.042   1.740   6.171  0.3726 -0.6941 -0.1751
 9165TIP3    H248911   1.996   1.596   6.169 -0.6333 -0.3817  0.3572
 9166TIP3   OH248912   6.538   2.018   2.012 -0.1498 -0.0256  0.2482
 9166TIP3    H148913   6.611   1.959   2.030  3.4120  3.7169 -1.2717
 9166TIP3    H248914   6.535   2.077   2.087 -1.5870 -0.1003  0.2677
 9167TIP3   OH248915   1.766   4.727   3.346 -0.2286 -0.5913 -0.7257
 9167TIP3    H148916   1.782   4.638   3.379 -0.6063 -0.7482 -0.9654
 9167TIP3    H248917   1.713   4.769   3.413  0.4137 -0.3667 -0.3551
 9168TIP3   OH248918   1.594   6.032  15.913 -0.3183  0.7827 -0.3833
 9168TIP3    H148919   1.615   5.998  16.000  0.0132  0.6991 -0.4961
 9168TIP3    H248920   1.641   6.116  15.909 -1.4145  1.4327  0.0295
 9169TIP3   OH248921   6.262   3.924  12.263 -0.2724 -0.3542 -0.0583
 9169TIP3    H148922   6.313   3.957  12.337  0.3324  0.0036 -0.6251
 9169TIP3    H248923   6.191   3.873  12.303 -1.3731  1.8392  0.8252
 9170TIP3   OH248924   5.818   4.043  10.683 -0.0157 -0.2594  0.4254
 9170TIP3    H148925   5.797   4.007  10.597 -2.0707 -0.6686  1.0646
 9170TIP3    H248926   5.745   4.102  10.703  0.4233 -0.1957  1.9028
 9171TIP3   OH248927   2.142   1.754   0.460  0.3580  0.0375 -0.7957
 9171TIP3    H148928   2.222   1.709   0.432  0.1740 -0.3184 -0.7507
 9171TIP3    H248929   2.071   1.704   0.420 -0.0063 -1.5578  1.7110
 9172TIP3   OH248930   1.411   1.459  12.094 -0.3577 -0.1523 -0.2927
 9172TIP3    H148931   1.450   1.443  12.180 -0.5731  0.1633 -0.1357
 9172TIP3    H248932   1.417   1.553  12.082 -1.6358 -0.0154  0.0110
 9173TIP3   OH248933   6.277   5.558   4.938 -0.1581  0.3122  0.1952
 9173TIP3    H148934   6.288   5.650   4.914  2.0523  0.3018  1.0139
 9173TIP3    H248935   6.358   5.536   4.985 -0.9260 -1.8735  0.5437
 9174TIP3   OH248936   5.412   5.654   3.926 -0.2317  0.6556 -0.0073
 9174TIP3    H148937   5.366   5.606   3.858 -1.0057 -0.3351  1.2063
 9174TIP3    H248938   5.345   5.707   3.969  0.0469  0.4348  0.7124
 9175TIP3   OH248939   2.476   1.826  11.224  0.0748 -0.4926  0.0570
 9175TIP3    H148940   2.387   1.854  11.241  0.3448  0.0537  0.5851
 9175TIP3    H248941   2.485   1.742  11.270  0.7393  0.8694  2.5231
 9176TIP3   OH248942   1.930   6.545  13.830 -0.6663  0.6360  0.0418
 9176TIP3    H148943   1.846   6.520  13.793 -0.5274  0.6336 -0.2723
 9176TIP3    H248944   1.909   6.596  13.908 -0.9560  0.8944 -0.2077
 9177TIP3   OH248945   2.364   5.216   4.081  0.3168 -0.0785 -0.3568
 9177TIP3    H148946   2.342   5.123   4.092  2.7521 -0.6952 -0.4991
 9177TIP3    H248947   2.436   5.217   4.019  1.3608  1.8080  0.8404
 9178TIP3   OH248948   3.637   6.724  15.306  0.5161 -0.0712  0.4846
 9178TIP3    H148949   3.687   6.643  15.295  1.3820  0.3971  0.9496
 9178TIP3    H248950   3.604   6.720  15.396  0.6945  0.1703  0.5600
 9179TIP3   OH248951   3.297   0.409   4.715  0.0156  0.1841  0.5425
 9179TIP3    H148952   3.328   0.352   4.645 -1.1397 -0.0251  0.1793
 9179TIP3    H248953   3.238   0.470   4.671  0.1510  0.7615  1.1599
 9180TIP3   OH248954   2.385   0.385  10.869  0.2015  0.8614 -0.0060
 9180TIP3    H148955   2.340   0.464  10.899  0.4401 -0.0474  2.8684
 9180TIP3    H248956   2.325   0.347  10.805 -2.5828  0.4182  2.7342
 9181TIP3   OH248957   6.037   6.600   2.020  0.0475 -0.7715  0.4396
 9181TIP3    H148958   6.102   6.634   1.958 -0.4288 -1.3359 -0.3673
 9181TIP3    H248959   5.992   6.530   1.973 -0.2340 -1.2944  1.4663
 9182TIP3   OH248960   4.381   3.454   5.187 -0.2061 -0.3909  0.0210
 9182TIP3    H148961   4.477   3.449   5.194 -0.0610  0.3103 -1.2892
 9182TIP3    H248962   4.349   3.392   5.251  1.0991  1.1564  2.2405
 9183TIP3   OH248963   5.279   5.291   3.212 -0.0819  0.2316 -0.0458
 9183TIP3    H148964   5.349   5.355   3.197 -1.9964  1.9140 -2.1321
 9183TIP3    H248965   5.258   5.258   3.125 -0.6782 -1.5944  0.7684
 9184TIP3   OH248966   6.003   0.336  14.936 -0.5603 -0.0869  0.7939
 9184TIP3    H148967   6.021   0.342  14.842 -1.0280 -0.1724  0.6957
 9184TIP3    H248968   5.930   0.274  14.942 -0.8401  0.2753  1.1745
 9185TIP3   OH248969   6.773   5.430  16.799 -0.0502  0.5771  0.2293
 9185TIP3    H148970   6.735   5.346  16.772 -0.5350 -0.0378  2.7160
 9185TIP3    H248971   6.815   5.464  16.720 -1.5376 -1.0677 -1.3144
 9186TIP3   OH248972   0.267   3.290  12.795  0.6325 -0.0330  0.4710
 9186TIP3    H148973   0.287   3.197  12.783  2.1690  0.2744  0.5177
 9186TIP3    H248974   0.219   3.293  12.878 -0.0731 -0.8571  0.1090
 9187TIP3   OH248975   1.752   6.236  15.889  0.0958 -0.1938 -0.3485
 9187TIP3    H148976   1.836   6.202  15.859 -0.1520 -0.8980 -0.2577
 9187TIP3    H248977   1.774   6.296  15.961  0.3648 -2.1324  1.2173
 9188TIP3   OH248978   1.303   0.791   2.715  0.4210 -0.1012 -0.0985
 9188TIP3    H148979   1.390   0.827   2.703  1.2934 -2.1032  0.0156
 9188TIP3    H248980   1.307   0.743   2.798 -0.8689  0.0641  0.0732
 9189TIP3   OH248981   5.235   0.590  11.026  0.6533  0.1945  0.4722
 9189TIP3    H148982   5.185   0.517  10.990 -0.2941  1.7345 -1.4186
 9189TIP3    H248983   5.178   0.627  11.094 -0.3599  1.2891 -0.9495
 9190TIP3   OH248984   2.683   0.840  16.886 -0.1627 -0.2380  0.0912
 9190TIP3    H148985   2.687   0.790  16.968 -0.2168 -0.6724 -0.1658
 9190TIP3    H248986   2.768   0.825  16.844  0.3126  0.9510  0.6244
 9191TIP3   OH248987   6.384   1.147  12.882  0.5318  0.1386 -0.2800
 9191TIP3    H148988   6.312   1.117  12.827 -1.1595  0.5605  1.6790
 9191TIP3    H248989   6.393   1.240  12.861  0.2147  0.1874 -0.2001
 9192TIP3   OH248990   0.623   2.050   0.593  0.4145  0.6558 -0.1521
 9192TIP3    H148991   0.675   2.014   0.665  0.4575  1.2497  0.1206
 9192TIP3    H248992   0.687   2.092   0.536  0.6174 -1.5617 -1.6169
 9193TIP3   OH248993   2.591   3.889   4.100  0.5460  0.4262 -0.1447
 9193TIP3    H148994   2.497   3.896   4.118  0.4591  1.0318 -0.8155
 9193TIP3    H248995   2.602   3.801   4.064  0.0203  0.8602 -1.3655
 9194TIP3   OH248996   2.873   1.933  10.920 -0.1939 -0.1081 -0.1107
 9194TIP3    H148997   2.968   1.943  10.909  0.3676 -1.6928  2.7650
 9194TIP3    H248998   2.842   2.023  10.930  1.2361  0.3547  0.4071
 9195TIP3   OH248999   1.455   3.682  16.314 -0.1496  0.4915  0.5262
 9195TIP3    H149000   1.427   3.607  16.261  0.1343 -0.5016  1.7485
 9195TIP3    H249001   1.547   3.694  16.291 -0.1513  0.3527  0.4431
 9196TIP3   OH249002   2.851   4.016   4.586  0.6763  0.7700 -0.2336
 9196TIP3    H149003   2.911   4.001   4.513  1.0625 -1.9063  0.5819
 9196TIP3    H249004   2.765   3.993   4.551  0.5437  1.5845 -0.4645
 9197TIP3   OH249005   1.563   0.441  15.156  0.5730  0.6118  0.0093
 9197TIP3    H149006   1.515   0.496  15.093 -1.4691 -1.3576 -0.2154
 9197TIP3    H249007   1.649   0.482  15.163 -0.0739  2.4036 -2.0482
 9198TIP3   OH249008   5.708   0.359  16.584 -0.1239 -0.1351 -0.0553
 9198TIP3    H149009   5.665   0.282  16.621  0.3623 -0.7071 -0.6714
 9198TIP3    H249010   5.638   0.407  16.540 -0.4673 -0.1167  0.5038
 9199TIP3   OH249011   6.448   5.161  11.117 -0.2917 -0.3437 -0.2623
 9199TIP3    H149012   6.440   5.220  11.042  0.8669 -1.4423 -1.2619
 9199TIP3    H249013   6.432   5.074  11.081  0.2062 -0.8697  0.7780
 9200TIP3   OH249014   5.244   3.194  12.232  0.2142 -0.0427  0.4888
 9200TIP3    H149015   5.168   3.192  12.173  0.5067 -2.4076  0.1486
 9200TIP3    H249016   5.206   3.190  12.320 -0.0432 -2.7504  0.2871
 9201TIP3   OH249017   3.738   2.720   2.474 -0.0428 -0.0517 -0.1366
 9201TIP3    H149018   3.709   2.811   2.472  0.3088  0.0682  0.2326
 9201TIP3    H249019   3.698   2.681   2.396 -0.3450  0.3704 -0.1974
 9202TIP3   OH249020   5.765   0.072   3.371 -0.4350  0.7089 -0.2442
 9202TIP3    H149021   5.791   0.128   3.297  0.0707 -0.0096 -0.6168
 9202TIP3    H249022   5.749  -0.014   3.331 -2.9451  0.9971  0.0454
 9203TIP3   OH249023   2.768   4.617   2.221  0.3200  0.2324  0.6403
 9203TIP3    H149024   2.827   4.605   2.146  0.0889  0.0413  0.4889
 9203TIP3    H249025   2.788   4.543   2.279  1.6528  1.2820  1.5328
 9204TIP3   OH249026   1.156   2.139  12.873 -0.1886 -0.2117  0.4413
 9204TIP3    H149027   1.098   2.207  12.904  1.7452  0.7481  2.0969
 9204TIP3    H249028   1.244   2.170  12.895  0.8766 -2.1666 -0.8567
 9205TIP3   OH249029   0.011   6.563  12.822 -0.8488 -0.0504  0.8569
 9205TIP3    H149030   0.100   6.538  12.797 -1.3580  0.2144 -1.2901
 9205TIP3    H249031  -0.045   6.497  12.782 -1.7525  0.8454  0.6346
 9206TIP3   OH249032   1.974   1.292  16.398  0.3809  0.1474 -0.5540
 9206TIP3    H149033   1.940   1.225  16.456 -1.3321 -0.2023 -1.9193
 9206TIP3    H249034   1.994   1.366  16.456  0.8618 -1.0002  0.7579
 9207TIP3   OH249035   6.175   4.186  12.213  0.3298  0.2459  0.3090
 9207TIP3    H149036   6.215   4.253  12.157  0.9183 -0.8665 -0.6148
 9207TIP3    H249037   6.238   4.114  12.214 -1.1417 -1.0812 -0.2613
 9208TIP3   OH249038   2.678   5.012  13.222 -0.4904 -0.1181 -0.3560
 9208TIP3    H149039   2.606   5.071  13.245 -0.3165  0.0944 -0.3623
 9208TIP3    H249040   2.634   4.933  13.191 -0.7233 -0.2180  0.2221
 9209TIP3   OH249041   0.045   3.543  13.025  0.2352  0.1763  0.0906
 9209TIP3    H149042   0.099   3.570  13.099  1.1441  0.6073 -0.7131
 9209TIP3    H249043  -0.001   3.465  13.056  1.5563 -0.3830  0.7015
 9210TIP3   OH249044   4.908   2.091  12.138  0.7836  0.2440 -0.4496
 9210TIP3    H149045   4.857   2.153  12.190  0.0464  0.9099 -1.9207
 9210TIP3    H249046   4.969   2.146  12.088  0.5467 -0.2644 -1.3098
 9211TIP3   OH249047   0.317   0.938  12.226  0.2371  0.2518 -0.3308
 9211TIP3    H149048   0.247   0.874  12.243 -0.4149  0.9698 -0.2769
 9211TIP3    H249049   0.375   0.895  12.163  0.4633 -0.8667  0.6273
 9212TIP3   OH249050   2.819   6.054  16.726 -0.0093  0.0087  0.3908
 9212TIP3    H149051   2.731   6.018  16.737 -0.0489 -0.0572 -0.1253
 9212TIP3    H249052   2.858   6.002  16.655  0.6899 -0.4158  1.0757
 9213TIP3   OH249053   3.060   0.775   1.686  0.7045  0.2823  0.1544
 9213TIP3    H149054   3.010   0.697   1.712 -0.2739  1.1420  0.9014
 9213TIP3    H249055   3.139   0.740   1.644  1.8823 -1.1948  3.4261
 9214TIP3   OH249056   5.631   6.033   2.640 -0.1789  0.9143  0.2864
 9214TIP3    H149057   5.624   6.126   2.620 -4.9245  0.2052 -2.1679
 9214TIP3    H249058   5.631   6.029   2.735 -1.0948  3.3849  0.4310
 9215TIP3   OH249059   1.567   3.740   0.156  0.3866 -1.1710  0.1133
 9215TIP3    H149060   1.485   3.722   0.110 -1.4161  1.7668  2.0062
 9215TIP3    H249061   1.576   3.668   0.219 -1.0748 -1.1976  0.3026
 9216TIP3   OH249062   5.323   5.378  16.560 -0.6889 -0.4400 -0.1355
 9216TIP3    H149063   5.391   5.314  16.581  0.8451  1.2987  0.3433
 9216TIP3    H249064   5.285   5.346  16.478 -0.8121 -2.6307  0.7411
 9217TIP3   OH249065   6.078   1.459   1.232  0.5685 -0.1241  0.4086
 9217TIP3    H149066   6.119   1.494   1.153 -0.4687  1.7372  0.6650
 9217TIP3    H249067   6.119   1.374   1.245  1.7956  0.1858 -1.3134
 9218TIP3   OH249068   0.130   0.598  13.841  0.1308 -0.2306  0.1733
 9218TIP3    H149069   0.049   0.633  13.878  0.5038  1.4129 -0.5248
 9218TIP3    H249070   0.164   0.669  13.787  3.9824  0.6141  3.4050
 9219TIP3   OH249071   3.895   3.391   1.186 -0.4954  0.1970  0.3299
 9219TIP3    H149072   3.883   3.299   1.163 -2.4972  0.9219 -1.8124
 9219TIP3    H249073   3.988   3.399   1.207 -0.2479 -2.2488  0.3275
 9220TIP3   OH249074   3.678   5.590  11.844  0.4676 -0.3257  0.4874
 9220TIP3    H149075   3.709   5.501  11.823 -0.2613 -0.6504  0.7804
 9220TIP3    H249076   3.675   5.592  11.940 -1.6494 -0.7223  0.4385
 9221TIP3   OH249077   4.229   0.916   2.200  0.4492  0.0033  0.0620
 9221TIP3    H149078   4.207   0.846   2.262 -2.0519  1.8285  1.3292
 9221TIP3    H249079   4.192   0.887   2.117 -0.3034 -0.3493  0.5098
 9222TIP3   OH249080   0.953   0.118   5.478 -0.8239  0.2820 -0.3872
 9222TIP3    H149081   1.013   0.067   5.424 -0.0933  0.6868  0.0171
 9222TIP3    H249082   0.868   0.108   5.437 -0.3567  0.2388 -1.3696
 9223TIP3   OH249083   5.275   2.690  11.570 -0.3267  0.1121 -0.5041
 9223TIP3    H149084   5.183   2.663  11.563 -0.2595 -0.0718 -0.6710
 9223TIP3    H249085   5.308   2.686  11.480 -0.0693 -0.1224 -0.4003
 9224TIP3   OH249086   1.028   3.657  11.740  0.1076 -0.2483  0.0358
 9224TIP3    H149087   1.061   3.742  11.710 -1.5845  0.3853 -0.0879
 9224TIP3    H249088   0.964   3.679  11.808 -0.1020 -1.4524  0.2343
 9225TIP3   OH249089   5.658   5.788  12.354 -0.4222  0.9144 -0.3771
 9225TIP3    H149090   5.583   5.819  12.302 -0.6426  0.7173 -0.1807
 9225TIP3    H249091   5.680   5.704  12.316 -1.3086  0.2454  0.5652
 9226TIP3   OH249092   3.714   4.235  15.448  0.0358 -0.0843  0.3781
 9226TIP3    H149093   3.772   4.193  15.385 -0.3786 -0.7816  0.4450
 9226TIP3    H249094   3.631   4.245  15.400 -0.9564 -2.6309  1.4752
 9227TIP3   OH249095   5.364   0.029   2.488 -0.5718  0.0781 -0.1002
 9227TIP3    H149096   5.272   0.021   2.467 -0.7964  1.8161  0.1390
 9227TIP3    H249097   5.405  -0.050   2.451 -2.3191 -1.3129  0.8827
 9228TIP3   OH249098   1.219   4.926   4.845 -0.0763 -0.1716  0.9883
 9228TIP3    H149099   1.242   5.018   4.826  0.1833 -0.0986  1.6659
 9228TIP3    H249100   1.247   4.912   4.935  0.0407 -0.9738  0.8308
 9229TIP3   OH249101   4.841   3.510   3.585  0.6733 -0.6708  0.0624
 9229TIP3    H149102   4.895   3.538   3.659 -0.7577 -1.6086  1.4851
 9229TIP3    H249103   4.786   3.441   3.620 -0.5601 -0.6055 -1.6958
 9230TIP3   OH249104   2.562   4.992  11.705  0.1758  0.8716 -0.5519
 9230TIP3    H149105   2.657   4.985  11.695 -0.0509 -1.2310 -1.5520
 9230TIP3    H249106   2.541   4.938  11.781 -0.1943  1.4437 -0.2495
 9231TIP3   OH249107   6.012   1.109  16.979 -0.2429  0.0831  0.6288
 9231TIP3    H149108   6.061   1.133  17.057  1.9142  0.2149 -0.7150
 9231TIP3    H249109   5.980   1.192  16.944 -2.4606 -0.1067  2.1347
 9232TIP3   OH249110   1.010   4.485   5.621 -1.1037 -0.0534 -0.0410
 9232TIP3    H149111   1.026   4.442   5.705 -1.1559  0.6980  0.3572
 9232TIP3    H249112   1.017   4.415   5.557 -1.2399 -0.6718  0.6062
 9233TIP3   OH249113   6.324   1.929   0.087  0.0426 -0.0900  0.1666
 9233TIP3    H149114   6.291   1.843   0.060 -1.2241  0.4830 -0.1177
 9233TIP3    H249115   6.393   1.949   0.023  0.4797 -0.9761  0.3530
 9234TIP3   OH249116   6.136   4.401   2.331  0.5358  0.2280  0.3753
 9234TIP3    H149117   6.139   4.354   2.247  1.3740  1.7901 -0.4933
 9234TIP3    H249118   6.212   4.369   2.379  0.1413 -0.5588  0.4950
 9235TIP3   OH249119   1.696   5.275   3.999 -0.1695  0.5549 -0.6477
 9235TIP3    H149120   1.758   5.227   4.055  0.3310 -0.1089 -1.7378
 9235TIP3    H249121   1.632   5.209   3.972  0.4516  0.5067 -2.0616
 9236TIP3   OH249122   4.400   3.320  10.885  0.1534 -0.0787 -0.6013
 9236TIP3    H149123   4.408   3.408  10.924  2.3566  0.2321 -1.6585
 9236TIP3    H249124   4.410   3.261  10.959 -0.8119  0.5423  0.0452
 9237TIP3   OH249125   0.258   4.975  13.799 -0.8776 -0.2286 -0.1254
 9237TIP3    H149126   0.297   5.037  13.860  1.2615 -0.3150 -1.3683
 9237TIP3    H249127   0.268   5.015  13.713 -1.6348 -1.2078 -0.6866
 9238TIP3   OH249128   0.088   5.176  15.398  0.2613  0.3110 -0.5642
 9238TIP3    H149129   0.032   5.173  15.321 -0.6511 -1.1434  0.1426
 9238TIP3    H249130   0.175   5.153  15.365 -0.1833 -0.6315 -1.1057
 9239TIP3   OH249131   0.364   3.677  14.263  0.0749 -0.7173  0.0462
 9239TIP3    H149132   0.420   3.614  14.218  0.1017 -1.1658  0.7173
 9239TIP3    H249133   0.368   3.652  14.355 -0.8206 -0.4308  0.1653
 9240TIP3   OH249134   5.185   1.807   1.635  0.4734  0.0897 -0.0422
 9240TIP3    H149135   5.243   1.739   1.601  1.4541  0.0917  1.5737
 9240TIP3    H249136   5.192   1.878   1.572  1.6606 -0.1982 -0.2445
 9241TIP3   OH249137   5.817   4.903   3.968  0.3195  0.0438 -0.1569
 9241TIP3    H149138   5.759   4.827   3.976  0.2897  0.2418  1.6764
 9241TIP3    H249139   5.867   4.903   4.050 -0.7092  2.8471  0.5190
 9242TIP3   OH249140   2.186   1.030  15.909  0.1875 -0.0147  0.3724
 9242TIP3    H149141   2.175   0.993  15.821  1.2725 -0.9376  0.6209
 9242TIP3    H249142   2.105   1.007  15.954 -0.2866  0.2811 -0.3094
 9243TIP3   OH249143   2.824   4.104   5.666  1.0844  0.6100 -0.2735
 9243TIP3    H149144   2.854   4.015   5.683 -0.9568 -0.0828 -0.1761
 9243TIP3    H249145   2.856   4.155   5.741  0.0074 -0.5823  1.0370
 9244TIP3   OH249146   3.547   1.157  14.287  0.0489 -0.0516 -0.5054
 9244TIP3    H149147   3.579   1.108  14.212  0.2294  0.6846 -0.9156
 9244TIP3    H249148   3.576   1.247  14.271  0.0731  0.1164  0.4276
 9245TIP3   OH249149   2.418   6.602  12.412 -0.4835 -0.1049 -0.0713
 9245TIP3    H149150   2.496   6.610  12.357  0.0277  0.8665  0.7824
 9245TIP3    H249151   2.403   6.508  12.419 -0.2345 -0.2541 -1.4186
 9246TIP3   OH249152   1.275   2.764  11.096 -0.3909  0.1633 -0.4362
 9246TIP3    H149153   1.349   2.752  11.155 -1.6807  0.2315  1.2458
 9246TIP3    H249154   1.293   2.846  11.050  0.1185  0.6766  0.6624
 9247TIP3   OH249155   1.691   6.258  16.280  0.2089  0.0698  0.0985
 9247TIP3    H149156   1.656   6.303  16.357  2.8323  2.5594 -0.0883
 9247TIP3    H249157   1.724   6.174  16.314 -0.9212  0.0674  1.2125
 9248TIP3   OH249158   4.942   4.897   1.043  0.0061 -0.0835 -0.0651
 9248TIP3    H149159   4.939   4.897   1.139  1.1186 -0.4081 -0.0264
 9248TIP3    H249160   5.021   4.847   1.021  0.1449  0.5843 -1.1310
 9249TIP3   OH249161   0.458   0.723  15.897  0.6241 -0.5310  0.4350
 9249TIP3    H149162   0.397   0.649  15.894 -2.0973  1.6224 -1.0801
 9249TIP3    H249163   0.513   0.712  15.819 -0.5454 -0.3928 -0.4317
 9250TIP3   OH249164   4.214   3.513   4.278 -0.5789  0.5443 -0.3675
 9250TIP3    H149165   4.153   3.557   4.336 -0.3266  1.0131 -0.4571
 9250TIP3    H249166   4.300   3.545   4.304 -0.3944  0.1154 -0.4414
 9251TIP3   OH249167   2.981   2.547   0.666 -0.2209  0.2945  0.0551
 9251TIP3    H149168   2.983   2.478   0.732 -0.7158 -0.1496 -0.3923
 9251TIP3    H249169   2.897   2.536   0.622  0.7330 -0.3572 -1.6444
 9252TIP3   OH249170   0.756   1.542   6.303  0.1358  0.1600  0.3575
 9252TIP3    H149171   0.696   1.583   6.241 -0.3767 -0.0084  0.7382
 9252TIP3    H249172   0.705   1.533   6.383  0.4220 -0.7248  0.4442
 9253TIP3   OH249173   4.073   5.339   5.021 -0.4254  0.2189 -0.4841
 9253TIP3    H149174   4.109   5.264   4.973 -0.5412  0.8559 -1.5661
 9253TIP3    H249175   4.009   5.300   5.081  1.2079 -0.8015  0.6400
 9254TIP3   OH249176   0.619   3.582   6.562 -0.3257  0.1018  0.5149
 9254TIP3    H149177   0.675   3.538   6.497 -1.0800  1.5448 -1.1725
 9254TIP3    H249178   0.569   3.511   6.602 -1.4225 -0.6622 -2.0549
 9255TIP3   OH249179   2.909   5.901  16.525 -0.5152  0.0356  0.3824
 9255TIP3    H149180   2.922   5.812  16.491 -0.7086  0.5343 -0.9941
 9255TIP3    H249181   2.860   5.946  16.457  0.0476  1.3710  0.8590
 9256TIP3   OH249182   2.819   1.257  11.387 -0.2813 -0.0239  0.2353
 9256TIP3    H149183   2.880   1.199  11.432 -0.8629 -0.5895  0.2978
 9256TIP3    H249184   2.875   1.316  11.335  0.2996 -0.6938  0.1030
 9257TIP3   OH249185   3.225   6.475  10.819  0.7259  0.4366  0.3960
 9257TIP3    H149186   3.294   6.456  10.755  1.3719 -1.5073  1.6236
 9257TIP3    H249187   3.260   6.446  10.902 -1.3122  0.0477  1.1639
 9258TIP3   OH249188   0.737   2.206   0.411 -0.0606  0.5239 -0.3616
 9258TIP3    H149189   0.660   2.246   0.368 -0.5840 -0.6833 -0.5832
 9258TIP3    H249190   0.800   2.196   0.340  0.3079  1.5288 -0.1775
 9259TIP3   OH249191   6.281   2.059   3.853 -0.1727 -0.6368 -0.3619
 9259TIP3    H149192   6.271   2.073   3.759 -2.8205 -0.8615 -0.1457
 9259TIP3    H249193   6.346   1.988   3.860  1.5114  0.7196 -1.9254
 9260TIP3   OH249194   3.627   4.696  11.278  0.0927 -0.0619  0.2076
 9260TIP3    H149195   3.587   4.701  11.191  1.5670  0.5845 -0.4615
 9260TIP3    H249196   3.650   4.786  11.299  1.3203 -0.4302  0.4986
 9261TIP3   OH249197   6.369   4.754   5.885  0.3830  0.0544  0.3170
 9261TIP3    H149198   6.420   4.805   5.948 -0.7828  1.8675 -0.1769
 9261TIP3    H249199   6.324   4.688   5.939 -0.7403  1.7020  1.4524
 9262TIP3   OH249200   3.132   2.894   4.527 -0.0636  0.1694  0.8601
 9262TIP3    H149201   3.092   2.842   4.457 -0.4597  1.0564  0.4166
 9262TIP3    H249202   3.092   2.862   4.607 -1.4263  0.8226  0.4495
 9263TIP3   OH249203   2.308   5.037  11.269 -0.6517  0.0385 -0.2633
 9263TIP3    H149204   2.342   5.027  11.180  1.2193 -0.3710  0.4794
 9263TIP3    H249205   2.386   5.047  11.323 -1.7690 -0.0890  1.3858
 9264TIP3   OH249206   5.783   1.043   2.757 -0.3022  0.0151  0.4027
 9264TIP3    H149207   5.827   1.128   2.765 -4.4234  2.2936  0.1915
 9264TIP3    H249208   5.778   1.027   2.663 -0.6568  0.1923  0.3894
 9265TIP3   OH249209   4.139   2.050   5.836  1.0827 -0.1352  0.4780
 9265TIP3    H149210   4.071   2.060   5.770  2.2960 -1.6951 -1.0375
 9265TIP3    H249211   4.094   2.064   5.919 -0.8005  0.1645 -0.5741
 9266TIP3   OH249212   5.048   0.703  10.686  0.0657 -0.3083  0.2398
 9266TIP3    H149213   4.966   0.752  10.693 -0.2977 -0.9403  0.4436
 9266TIP3    H249214   5.115   0.769  10.670 -0.7055  0.0741 -1.4967
 9267TIP3   OH249215   2.627   4.226   4.760 -0.2949  0.7090  0.0208
 9267TIP3    H149216   2.705   4.277   4.738  0.2215 -0.4688 -0.9998
 9267TIP3    H249217   2.557   4.264   4.706  0.1326  0.2339 -0.8871
 9268TIP3   OH249218   4.077   4.232   5.457  0.2941 -0.5470  0.0505
 9268TIP3    H149219   4.146   4.170   5.479  0.4581 -0.6800 -0.8040
 9268TIP3    H249220   4.001   4.178   5.439  0.4492 -0.5062 -0.7408
 9269TIP3   OH249221   1.726   3.257  15.680  0.3258 -0.1452  0.3266
 9269TIP3    H149222   1.764   3.250  15.593 -2.9453  2.0398 -1.3967
 9269TIP3    H249223   1.747   3.346  15.708 -1.8559  0.4761  0.0990
 9270TIP3   OH249224   3.947   4.538   6.225 -0.5917 -0.7585 -0.0686
 9270TIP3    H149225   3.909   4.619   6.257 -1.4980 -0.5330 -1.6777
 9270TIP3    H249226   4.008   4.511   6.294  0.1497  1.5761  0.2296
 9271TIP3   OH249227   2.725   2.206  13.977 -0.4502 -0.2952 -0.0289
 9271TIP3    H149228   2.770   2.149  14.040 -1.0167  0.5531  1.1635
 9271TIP3    H249229   2.681   2.146  13.918 -0.3970 -1.1134  0.7434
 9272TIP3   OH249230   2.004   5.025  12.615 -0.8264 -0.2865  0.2992
 9272TIP3    H149231   2.062   5.043  12.541  0.0481 -0.8887  0.8255
 9272TIP3    H249232   1.940   5.097  12.614 -0.8635 -0.3389 -1.0747
 9273TIP3   OH249233   0.081   1.328   6.062 -0.1052  0.0625 -0.3845
 9273TIP3    H149234   0.119   1.243   6.038  0.7546  0.4521 -0.4343
 9273TIP3    H249235   0.070   1.374   5.979 -4.1147 -1.4002 -0.7802
 9274TIP3   OH249236   0.720   0.935   3.059  0.3698  0.2847  0.2402
 9274TIP3    H149237   0.642   0.989   3.072  0.5737  0.4102  0.9674
 9274TIP3    H249238   0.768   0.942   3.141  1.3522  0.5363 -0.3420
 9275TIP3   OH249239   3.284   4.415   3.783  0.3927  0.5174 -0.0431
 9275TIP3    H149240   3.352   4.479   3.761  0.1174  1.7727  2.5846
 9275TIP3    H249241   3.204   4.450   3.743  0.5111  1.0936  0.2252
 9276TIP3   OH249242   3.994   2.731  11.601  0.3016  0.3145  0.0547
 9276TIP3    H149243   4.034   2.786  11.668 -0.0227 -1.0837  1.4273
 9276TIP3    H249244   4.069   2.690  11.557  0.4641 -2.5377  2.8210
 9277TIP3   OH249245   1.238   4.845  12.794  0.0500  0.0231  0.1901
 9277TIP3    H149246   1.235   4.795  12.876  1.3834 -0.9266 -0.3229
 9277TIP3    H249247   1.329   4.874  12.787 -0.8775  3.2103  0.8517
 9278TIP3   OH249248   4.802   3.136  13.808 -0.8700 -0.4385  0.5428
 9278TIP3    H149249   4.850   3.178  13.737 -1.1186  1.0857  1.2428
 9278TIP3    H249250   4.868   3.085  13.856 -0.2135  0.5449  0.6920
 9279TIP3   OH249251   4.515   4.059  12.536  0.7060 -0.1061 -0.2463
 9279TIP3    H149252   4.608   4.078  12.547  0.6555 -0.4827  0.9402
 9279TIP3    H249253   4.509   4.017  12.451  1.6017  0.0599 -0.4034
 9280TIP3   OH249254   5.823   0.080   2.381 -0.0375  0.5237  0.2245
 9280TIP3    H149255   5.823   0.161   2.431  2.3707 -0.4618  1.9004
 9280TIP3    H249256   5.902   0.085   2.327  0.6736 -1.1140  1.0730
 9281TIP3   OH249257   0.177   1.589   6.468  0.3980 -0.1095 -0.3414
 9281TIP3    H149258   0.215   1.623   6.387  1.3341 -1.3057 -0.4256
 9281TIP3    H249259   0.163   1.496   6.451 -0.0349 -0.2337  0.6381
 9282TIP3   OH249260   5.613   5.431  15.241 -0.6199 -0.4902  0.6326
 9282TIP3    H149261   5.707   5.429  15.253 -0.3654  1.3586 -0.8200
 9282TIP3    H249262   5.577   5.389  15.320  1.3851 -1.0436  1.2633
 9283TIP3   OH249263   1.347   5.539   6.473  0.1512 -0.0614  0.6296
 9283TIP3    H149264   1.384   5.482   6.540  0.6697 -0.1046  0.3126
 9283TIP3    H249265   1.286   5.483   6.425 -0.1177 -0.0676  0.9735
 9284TIP3   OH249266   3.106   1.723  13.415 -0.5399  0.4284 -0.3655
 9284TIP3    H149267   3.075   1.669  13.343 -1.2751  0.8668 -0.3723
 9284TIP3    H249268   3.202   1.717  13.409 -0.6088 -1.4464  0.0647
 9285TIP3   OH249269   6.670   2.473  13.666  0.1704 -0.0471 -0.3708
 9285TIP3    H149270   6.674   2.477  13.570  2.4411 -0.6397 -0.3401
 9285TIP3    H249271   6.607   2.404  13.685 -2.7076  2.1970 -1.3775
 9286TIP3   OH249272   3.152   4.607  14.166  0.9157 -0.3967 -0.1224
 9286TIP3    H149273   3.216   4.598  14.095  2.0069 -2.0573  1.0258
 9286TIP3    H249274   3.076   4.648  14.125  1.6910 -0.9108 -2.1466
 9287TIP3   OH249275   3.914   5.050  12.608  0.3019  0.3117 -0.0200
 9287TIP3    H149276   3.910   5.014  12.520 -0.4358  1.1486 -0.3270
 9287TIP3    H249277   3.873   4.983  12.663 -2.1019  1.1540 -0.7537
 9288TIP3   OH249278   6.206   6.188  12.444 -0.4693  0.5674  0.0842
 9288TIP3    H149279   6.165   6.140  12.372  0.1975  0.8292 -0.4875
 9288TIP3    H249280   6.294   6.209  12.411  0.2481 -0.2757  1.4054
 9289TIP3   OH249281   3.736   6.170  16.347 -0.1853  0.5283 -0.3910
 9289TIP3    H149282   3.789   6.219  16.410  1.1526 -0.9231 -0.3472
 9289TIP3    H249283   3.752   6.215  16.263  0.6925  0.4558 -0.2733
 9290TIP3   OH249284   0.118   4.397   5.738  0.2611  0.2228  0.4841
 9290TIP3    H149285   0.038   4.432   5.777  1.1054  1.4008  1.2020
 9290TIP3    H249286   0.186   4.417   5.802  1.2223 -0.2492 -0.3789
 9291TIP3   OH249287   1.978   1.228   5.755 -0.4745  0.2166  0.0330
 9291TIP3    H149288   1.928   1.199   5.679 -0.1653 -0.5499  0.1120
 9291TIP3    H249289   1.912   1.248   5.821 -0.6847 -2.2069  0.6405
 9292TIP3   OH249290   2.266   4.871  16.871 -0.0687 -0.2467 -0.6422
 9292TIP3    H149291   2.309   4.890  16.955 -0.2211  0.6533 -0.7606
 9292TIP3    H249292   2.177   4.906  16.881  0.5042  1.6372 -1.8661
 9293TIP3   OH249293   0.502   0.734  15.609  0.1841  0.2057  0.7476
 9293TIP3    H149294   0.518   0.726  15.515  0.2390 -2.6299  0.9359
 9293TIP3    H249295   0.407   0.742  15.616  0.0949 -0.5846  0.4875
 9294TIP3   OH249296   2.352   3.219  14.498  0.3673  0.1579  0.1710
 9294TIP3    H149297   2.263   3.233  14.531  0.7660  0.9763  0.9387
 9294TIP3    H249298   2.393   3.160  14.561  0.3706 -0.2240 -0.1831
 9295TIP3   OH249299   1.849   4.727  11.547 -0.5607  0.4642  0.1478
 9295TIP3    H149300   1.847   4.819  11.573  2.1682  0.4318  0.5623
 9295TIP3    H249301   1.889   4.728  11.460  0.7388 -0.4334  0.7205
 9296TIP3   OH249302   1.693   2.307  13.242  0.2302  0.1741  0.0781
 9296TIP3    H149303   1.732   2.324  13.328  0.1108 -1.2348  0.4195
 9296TIP3    H249304   1.612   2.260  13.261 -0.2269  0.6036 -0.7713
 9297TIP3   OH249305   4.400   4.931  10.691  0.3777  0.5391  0.2777
 9297TIP3    H149306   4.478   4.876  10.688  0.5557  0.8247 -0.3612
 9297TIP3    H249307   4.354   4.912  10.609 -0.0897  0.5714  0.5289
 9298TIP3   OH249308   0.911   2.817  15.291  0.4313 -0.4977  0.3340
 9298TIP3    H149309   0.888   2.872  15.215  1.9462 -0.9732 -0.4999
 9298TIP3    H249310   0.969   2.750  15.255  1.3418 -0.6107  1.9554
 9299TIP3   OH249311   5.199   1.655   4.966 -0.5418 -0.3027 -0.2683
 9299TIP3    H149312   5.180   1.644   5.059 -0.9081  0.0565 -0.2982
 9299TIP3    H249313   5.206   1.565   4.933  0.0296 -0.4304  0.1880
 9300TIP3   OH249314   5.474   2.997  15.421  0.2197 -0.0602  0.4530
 9300TIP3    H149315   5.499   3.082  15.455 -1.2764  0.1551  1.0710
 9300TIP3    H249316   5.497   2.935  15.490  0.8121 -0.1005  0.2244
 9301TIP3   OH249317   6.082   3.702   0.261 -0.1683 -0.4512 -0.7295
 9301TIP3    H149318   5.999   3.733   0.224  0.5359 -0.4962 -2.3565
 9301TIP3    H249319   6.105   3.769   0.326 -1.7232 -0.6954  0.0851
 9302TIP3   OH249320   2.363   5.268   1.582  0.4731  0.2470  0.5176
 9302TIP3    H149321   2.323   5.300   1.662  2.9868  1.4488  1.3539
 9302TIP3    H249322   2.325   5.322   1.512 -0.2072  0.5702  1.1332
 9303TIP3   OH249323   3.197   1.839  14.776 -0.3967 -0.3354  0.1710
 9303TIP3    H149324   3.137   1.901  14.818 -1.6010 -1.4240  0.0751
 9303TIP3    H249325   3.147   1.759  14.767  1.5055 -1.6965  1.3091
 9304TIP3   OH249326   3.911   3.344  15.785  0.0520  0.2882 -0.2463
 9304TIP3    H149327   3.902   3.372  15.693  2.5926 -0.8470 -0.8764
 9304TIP3    H249328   3.975   3.274  15.782 -1.7069 -1.4810  2.1268
 9305TIP3   OH249329   1.877   3.245   3.464 -0.2466 -0.4789  1.2029
 9305TIP3    H149330   1.893   3.335   3.436  1.0943 -1.4947 -1.4356
 9305TIP3    H249331   1.827   3.206   3.392  0.5172 -2.2827  1.6304
 9306TIP3   OH249332   1.415   6.280   5.432  0.0476 -0.5724  0.0376
 9306TIP3    H149333   1.474   6.249   5.363  0.8178  0.0158  0.4268
 9306TIP3    H249334   1.473   6.322   5.496 -0.5921 -1.6237  1.3288
 9307TIP3   OH249335   3.270   2.772   5.702 -0.2237  0.5869  0.0820
 9307TIP3    H149336   3.252   2.692   5.652  0.9648  0.1243  0.3627
 9307TIP3    H249337   3.359   2.760   5.735 -0.3503  1.6508  0.8582
 9308TIP3   OH249338   3.464   4.213   4.609  0.4216 -0.3312 -0.4202
 9308TIP3    H149339   3.553   4.247   4.598  0.5293 -1.2013 -2.4320
 9308TIP3    H249340   3.467   4.124   4.572 -1.4308 -0.1241 -1.1543
 9309TIP3   OH249341   2.406   1.380  12.843  0.4944 -0.3081 -0.9678
 9309TIP3    H149342   2.364   1.295  12.831 -0.9219  0.2296  0.0809
 9309TIP3    H249343   2.463   1.368  12.920  1.4620 -0.7197 -1.7298
 9310TIP3   OH249344   3.578   0.821   1.846  0.4591  0.3657 -0.0897
 9310TIP3    H149345   3.595   0.824   1.752 -1.3612  0.8789 -0.4280
 9310TIP3    H249346   3.506   0.883   1.860 -0.7423 -1.2530  1.3050
 9311TIP3   OH249347   2.311   0.787  11.660 -0.2941  0.1675 -0.2204
 9311TIP3    H149348   2.240   0.823  11.713 -1.0082  1.3093 -1.9057
 9311TIP3    H249349   2.375   0.858  11.654 -0.5897  0.3494 -1.5177
 9312TIP3   OH249350   5.625   5.853  10.887 -0.1065  0.3811  0.4740
 9312TIP3    H149351   5.718   5.851  10.861  0.3872 -1.2762  2.2892
 9312TIP3    H249352   5.581   5.803  10.819  0.4804  0.2073  0.2167
 9313TIP3   OH249353   2.075   5.699   1.292 -0.3566  0.5337 -0.4582
 9313TIP3    H149354   2.007   5.667   1.233 -1.2452 -1.2026  1.4797
 9313TIP3    H249355   2.104   5.622   1.340 -0.2096  2.0517  1.9802
 9314TIP3   OH249356   2.274   1.078  12.945 -0.3684 -0.0301  0.2601
 9314TIP3    H149357   2.218   1.001  12.935 -0.1472 -0.1183 -0.3611
 9314TIP3    H249358   2.271   1.099  13.038 -0.9117 -0.4268  0.3319
 9315TIP3   OH249359   4.648   4.792  16.813 -0.4113  0.4207 -0.1818
 9315TIP3    H149360   4.685   4.874  16.782 -2.8169  1.5595 -0.1347
 9315TIP3    H249361   4.706   4.725  16.776  0.3983  2.0324 -1.9472
 9316TIP3   OH249362   2.232   6.491  15.413 -0.0219  0.4335  0.2249
 9316TIP3    H149363   2.294   6.543  15.361 -0.8239  2.0096  0.8020
 9316TIP3    H249364   2.150   6.539  15.406 -0.8603 -0.9453  0.5324
 9317TIP3   OH249365   4.789   0.717   5.758  0.1024 -0.3874  0.6918
 9317TIP3    H149366   4.851   0.675   5.818  0.1451 -1.3380 -0.0113
 9317TIP3    H249367   4.736   0.774   5.814  0.8661 -0.4295  1.4666
 9318TIP3   OH249368   3.095   5.929   2.286  0.3491  0.1638  0.6165
 9318TIP3    H149369   3.133   5.934   2.198 -0.3432 -0.7390  0.2545
 9318TIP3    H249370   3.156   5.873   2.335 -0.1091 -0.6655  0.2490
 9319TIP3   OH249371   0.722   5.569   5.154  0.3781  0.4183  0.2046
 9319TIP3    H149372   0.804   5.551   5.107 -0.2588  0.3365 -0.8862
 9319TIP3    H249373   0.713   5.664   5.150  0.5661  0.4504  0.5650
 9320TIP3   OH249374   5.184   5.499  15.052 -0.1284  0.4852 -0.7202
 9320TIP3    H149375   5.144   5.418  15.022 -1.2976  0.3609  1.1335
 9320TIP3    H249376   5.249   5.471  15.116 -0.3325  0.9939 -0.2892
 9321TIP3   OH249377   5.801   6.127  11.484  0.4317 -0.0158  0.3666
 9321TIP3    H149378   5.893   6.134  11.510  0.3970  1.0387  0.2071
 9321TIP3    H249379   5.766   6.055  11.538  1.1653  0.0490  0.9316
 9322TIP3   OH249380   5.498   0.498  16.480 -0.1365  0.1099 -0.1473
 9322TIP3    H149381   5.509   0.568  16.415 -2.0418 -0.6044 -1.2624
 9322TIP3    H249382   5.458   0.426  16.432 -0.3306 -0.9266  1.5165
 9323TIP3   OH249383   4.185   4.464   4.413  0.1380  0.3559  0.3447
 9323TIP3    H149384   4.230   4.400   4.357 -2.4999 -1.0328 -0.2752
 9323TIP3    H249385   4.232   4.546   4.398  0.8346 -0.4726 -2.3006
 9324TIP3   OH249386   3.947   1.190   3.535 -0.0061 -0.2840 -0.3440
 9324TIP3    H149387   4.016   1.234   3.585 -1.3185 -0.7304  1.9485
 9324TIP3    H249388   3.873   1.252   3.537  0.2924  0.2049 -2.7984
 9325TIP3   OH249389   1.968   1.328   3.715  0.2884  0.8906 -0.3988
 9325TIP3    H149390   1.939   1.410   3.755 -1.3168  0.9502 -1.6578
 9325TIP3    H249391   2.043   1.353   3.661  0.7125  1.2758  0.3584
 9326TIP3   OH249392   6.028   4.733   1.549  0.0479 -0.0543 -0.1810
 9326TIP3    H149393   5.935   4.754   1.558 -0.3224 -1.4325 -0.6726
 9326TIP3    H249394   6.062   4.734   1.639 -0.6164 -0.3512  0.0760
 9327TIP3   OH249395   3.008   5.949   0.272 -0.2103  0.3777 -0.0884
 9327TIP3    H149396   2.937   6.013   0.270 -0.1188  0.5096  0.8375
 9327TIP3    H249397   2.970   5.870   0.234 -0.3680  0.9313 -1.1012
 9328TIP3   OH249398   4.721   0.909   4.581  0.4184  0.0530 -0.0234
 9328TIP3    H149399   4.641   0.884   4.534  0.1967  1.6876 -0.5700
 9328TIP3    H249400   4.786   0.921   4.513  0.0323  2.6785  0.0021
 9329TIP3   OH249401   3.264   0.961  12.514  0.1110 -0.8944  0.0944
 9329TIP3    H149402   3.350   0.950  12.475  0.4485  1.3880  0.1430
 9329TIP3    H249403   3.263   0.898  12.587  1.1343 -2.0111 -0.8360
 9330TIP3   OH249404   4.343   5.507   2.787  0.1967 -0.5405 -0.3687
 9330TIP3    H149405   4.304   5.458   2.715  1.0926 -1.1657 -0.4330
 9330TIP3    H249406   4.414   5.558   2.746 -0.6345  0.7026 -0.2791
 9331TIP3   OH249407   2.303   5.807  14.012 -0.4088  0.0013  0.8297
 9331TIP3    H149408   2.273   5.755  13.938  0.2909 -0.1772  0.6682
 9331TIP3    H249409   2.243   5.881  14.015  0.6642  0.9898 -1.0731
 9332TIP3   OH249410   5.072   0.271   3.175  0.5200  0.5608  0.2371
 9332TIP3    H149411   5.051   0.178   3.183 -2.9442  1.2438  0.1343
 9332TIP3    H249412   5.068   0.288   3.081  0.1169  0.9946  0.3299
 9333TIP3   OH249413   1.605   2.357  11.479 -0.6241 -0.2021  0.7854
 9333TIP3    H149414   1.607   2.264  11.502 -1.9115 -0.8550 -1.6358
 9333TIP3    H249415   1.515   2.384  11.495 -0.4813  0.4180  0.5826
 9334TIP3   OH249416   6.689   2.120  13.138  0.5137  0.1391 -0.9060
 9334TIP3    H149417   6.737   2.203  13.131 -0.1446  0.5017 -1.1211
 9334TIP3    H249418   6.659   2.102  13.048 -0.1415  0.1449 -0.6892
 9335TIP3   OH249419   4.969   2.399  16.985  0.7046 -0.3136 -0.3176
 9335TIP3    H149420   5.032   2.334  17.019 -0.1722 -1.7744 -1.4332
 9335TIP3    H249421   4.971   2.387  16.890 -2.1015 -1.2254 -0.3205
 9336TIP3   OH249422   0.680   6.717  14.485  0.0621 -0.0421 -0.0047
 9336TIP3    H149423   0.712   6.629  14.507 -0.8910 -0.6167 -0.8781
 9336TIP3    H249424   0.691   6.723  14.390 -0.6361  0.4886 -0.0517
 9337TIP3   OH249425   5.665   5.629   5.418 -0.0627 -0.5993  0.4333
 9337TIP3    H149426   5.659   5.678   5.335  1.2347 -3.0913 -1.1931
 9337TIP3    H249427   5.710   5.689   5.478  0.8813  0.4879 -1.3170
 9338TIP3   OH249428   5.599   3.192   5.467 -0.0964  0.5830  0.1902
 9338TIP3    H149429   5.569   3.103   5.482 -0.8026  0.9233  0.8368
 9338TIP3    H249430   5.689   3.192   5.499 -0.2749  0.2411  0.7078
 9339TIP3   OH249431   3.477   6.385   1.260  0.1914 -0.0693 -0.0895
 9339TIP3    H149432   3.510   6.304   1.300  1.1192  1.0068  1.3699
 9339TIP3    H249433   3.556   6.439   1.249 -0.6666  1.3291  0.5874
 9340TIP3   OH249434   1.177   1.076  13.069 -0.2777 -0.1652  0.4665
 9340TIP3    H149435   1.114   1.112  13.007  0.0661  0.1480  0.2965
 9340TIP3    H249436   1.141   0.990  13.092 -0.1997 -0.4588 -0.4814
 9341TIP3   OH249437   0.662   0.698   2.073  0.6044  0.5508 -0.0762
 9341TIP3    H149438   0.640   0.613   2.035  0.3591  0.8416 -0.5850
 9341TIP3    H249439   0.756   0.693   2.091  0.3987 -0.1917  0.8170
 9342TIP3   OH249440   3.009   1.922   6.331  0.3296 -0.0470  0.1550
 9342TIP3    H149441   3.009   2.012   6.297  2.0378 -0.3854 -0.7950
 9342TIP3    H249442   2.919   1.892   6.317  0.1407  0.9874 -0.9749
 9343TIP3   OH249443   2.029   5.556  10.686 -0.0726 -0.4006  0.4073
 9343TIP3    H149444   2.014   5.644  10.720  2.2121 -0.0394  0.5476
 9343TIP3    H249445   2.087   5.515  10.750 -0.6980 -1.8334  0.0714
 9344TIP3   OH249446   0.108   4.355  15.717 -0.1528 -0.0213 -0.3770
 9344TIP3    H149447   0.053   4.355  15.639 -0.1938  2.8157 -0.4083
 9344TIP3    H249448   0.046   4.355  15.790 -0.1319 -0.7417 -0.3543
 9345TIP3   OH249449   0.027   3.039   3.832 -0.0072  0.0687  0.0980
 9345TIP3    H149450   0.029   3.003   3.744 -1.9300  1.8012 -0.6959
 9345TIP3    H249451   0.119   3.047   3.857  0.5992  0.6287 -2.1929
 9346TIP3   OH249452   0.972   4.769  15.122  0.7162  0.3488 -0.3292
 9346TIP3    H149453   1.062   4.753  15.149  0.6649 -0.7433 -0.7839
 9346TIP3    H249454   0.919   4.717  15.183  0.4812 -0.3069 -1.0834
 9347TIP3   OH249455   6.098   5.093  12.640 -0.3483  0.3615 -0.1719
 9347TIP3    H149456   6.030   5.146  12.681 -0.9748 -0.7120  0.1845
 9347TIP3    H249457   6.177   5.148  12.645 -1.1696  1.5997 -0.5671
 9348TIP3   OH249458   2.762   0.861  13.763 -0.8330  0.0346  0.3617
 9348TIP3    H149459   2.725   0.836  13.678 -0.3165  0.0050  0.1411
 9348TIP3    H249460   2.855   0.876  13.745 -0.8543  0.6963  0.7905
 9349TIP3   OH249461   4.217   1.142   1.470 -0.3246  0.1085  0.0371
 9349TIP3    H149462   4.194   1.210   1.534  1.0369 -0.2978  0.9551
 9349TIP3    H249463   4.288   1.093   1.511 -2.4654 -3.0173  0.1452
 9350TIP3   OH249464   6.153   1.624  11.069  0.3980  0.1449  0.3034
 9350TIP3    H149465   6.085   1.680  11.031  0.8376  0.6208  0.2102
 9350TIP3    H249466   6.190   1.577  10.994  1.4789  1.3148  0.0679
 9351TIP3   OH249467   6.225   4.559   2.604 -0.0869 -0.1496  0.2963
 9351TIP3    H149468   6.212   4.471   2.639 -1.2467 -0.5622 -1.0993
 9351TIP3    H249469   6.147   4.607   2.630 -0.8826 -0.4149 -1.5308
 9352TIP3   OH249470   3.445   5.876   4.398  0.4014  0.0830  0.3380
 9352TIP3    H149471   3.387   5.815   4.442  0.7554 -0.7107 -0.2805
 9352TIP3    H249472   3.437   5.958   4.448 -0.1129 -0.4483  1.1319
 9353TIP3   OH249473   2.558   2.013   3.443  0.5444 -0.4557 -0.0608
 9353TIP3    H149474   2.595   2.072   3.378  0.3755 -0.1865  0.0867
 9353TIP3    H249475   2.585   2.049   3.527  0.2426 -0.4485  0.0369
 9354TIP3   OH249476   5.329   3.714  11.792 -0.5947 -0.5792 -0.1513
 9354TIP3    H149477   5.342   3.760  11.709 -0.0406  0.1570  0.3426
 9354TIP3    H249478   5.325   3.783  11.858  1.2629 -1.2454  0.7172
 9355TIP3   OH249479   3.460   5.808   2.785  0.6428  0.0866  0.0940
 9355TIP3    H149480   3.487   5.799   2.694  0.6765 -1.1918  0.2339
 9355TIP3    H249481   3.409   5.730   2.804  0.6030  0.3595  1.1673
 9356TIP3   OH249482   2.686   4.049  13.685  0.0764 -0.4298  0.0175
 9356TIP3    H149483   2.687   3.971  13.741 -3.9926 -2.3697 -2.3531
 9356TIP3    H249484   2.718   4.120  13.741  0.9161 -3.2035  3.1980
 9357TIP3   OH249485   6.287   0.591  11.607  0.7695 -0.4527 -0.0450
 9357TIP3    H149486   6.225   0.635  11.665 -0.5855 -1.7815 -0.4622
 9357TIP3    H249487   6.265   0.624  11.520  1.3256 -0.1519 -0.0715
 9358TIP3   OH249488   1.726   3.957  14.139  0.1016 -0.1706 -0.5334
 9358TIP3    H149489   1.703   3.920  14.054 -1.0463  1.2995 -0.8954
 9358TIP3    H249490   1.817   3.984  14.130 -0.0292  0.0230 -1.3105
 9359TIP3   OH249491   1.322   6.135  14.321 -0.3257  0.0292  0.2445
 9359TIP3    H149492   1.309   6.043  14.342  0.9657 -0.3361 -0.5528
 9359TIP3    H249493   1.415   6.142  14.298 -0.7642  1.2325 -1.2112
 9360TIP3   OH249494   4.960   6.150  11.559  0.0930 -0.6933  0.2606
 9360TIP3    H149495   4.915   6.226  11.523  1.1364  0.2032  0.8093
 9360TIP3    H249496   4.964   6.088  11.486 -0.1526  0.0512 -0.4002
 9361TIP3   OH249497   1.285   2.460   0.226  0.1379 -0.2135 -0.2717
 9361TIP3    H149498   1.357   2.470   0.288 -1.4667 -0.2350  1.6780
 9361TIP3    H249499   1.267   2.549   0.195 -1.0229  0.2709  1.6759
 9362TIP3   OH249500   3.980   5.921  16.873  0.4865  0.1201  0.0778
 9362TIP3    H149501   4.053   5.859  16.872 -0.1427 -0.6520  0.8133
 9362TIP3    H249502   3.960   5.933  16.966 -1.1881 -0.7075 -0.1633
 9363TIP3   OH249503   4.563   6.039  13.236 -0.1416 -0.4847  0.8502
 9363TIP3    H149504   4.613   6.069  13.311  0.1992  0.4252  0.2784
 9363TIP3    H249505   4.608   5.961  13.205  0.1924 -0.3867  1.0953
 9364TIP3   OH249506   2.700   5.280  12.079 -0.3431  0.7098  0.4704
 9364TIP3    H149507   2.707   5.208  12.015 -3.1464 -0.2715  1.1609
 9364TIP3    H249508   2.787   5.287  12.118  0.5263 -0.9095 -1.1105
 9365TIP3   OH249509   4.840   1.355   2.442 -0.3572  0.1295 -0.4520
 9365TIP3    H149510   4.929   1.326   2.425 -0.1954  0.7982 -0.7421
 9365TIP3    H249511   4.841   1.449   2.423 -1.5077 -0.1555 -2.0142
 9366TIP3   OH249512   3.873   5.729   3.890 -0.7759  0.1184 -0.5784
 9366TIP3    H149513   3.815   5.804   3.897 -1.8017 -0.8245  1.5789
 9366TIP3    H249514   3.936   5.741   3.962  0.3704  0.0046 -1.5420
 9367TIP3   OH249515   2.953   2.712  11.844  0.0121  0.8118 -0.1407
 9367TIP3    H149516   2.944   2.617  11.853 -1.5718  1.0765  1.1869
 9367TIP3    H249517   2.978   2.725  11.753 -0.2001 -0.8545 -0.4491
 9368TIP3   OH249518   2.495   0.788   0.189 -0.2582  0.4069 -0.0082
 9368TIP3    H149519   2.539   0.754   0.267 -1.3657  0.0513  0.4661
 9368TIP3    H249520   2.542   0.869   0.169 -0.1745  0.6768  1.2177
 9369TIP3   OH249521   5.121   2.216  15.267  1.1965 -0.8770 -0.0614
 9369TIP3    H149522   5.087   2.292  15.220  0.7172 -2.2594 -2.0066
 9369TIP3    H249523   5.209   2.203  15.231  0.5802 -2.3396 -1.0670
 9370TIP3   OH249524   5.641   6.749  12.847  0.1222  0.7659 -0.0464
 9370TIP3    H149525   5.709   6.815  12.835 -0.2534  0.9013 -1.4511
 9370TIP3    H249526   5.674   6.672  12.801  0.2055  0.2005  0.9314
 9371TIP3   OH249527   2.318   0.237  13.298 -0.0020 -0.3065  0.2134
 9371TIP3    H149528   2.312   0.295  13.223  0.0643  0.0808  0.5085
 9371TIP3    H249529   2.363   0.288  13.365  0.7313 -0.9557  0.2177
 9372TIP3   OH249530   4.249   0.604  11.033 -0.0038  0.6137 -0.5205
 9372TIP3    H149531   4.337   0.597  10.995  0.8400  1.2099  1.2832
 9372TIP3    H249532   4.262   0.594  11.127 -2.0304 -0.5350 -0.3166
 9373TIP3   OH249533   1.584   4.006   0.722 -0.0511 -0.3447 -0.4482
 9373TIP3    H149534   1.527   3.970   0.790 -1.4685  2.3152 -0.1951
 9373TIP3    H249535   1.587   3.938   0.655 -1.7373 -1.4241  0.5393
 9374TIP3   OH249536   0.825   5.514  10.507  0.1355  0.2914 -0.2926
 9374TIP3    H149537   0.812   5.496  10.600 -1.1959  1.9355 -0.1342
 9374TIP3    H249538   0.754   5.466  10.463  1.7767 -1.9009 -0.6493
 9375TIP3   OH249539   3.671   0.301   2.871  0.0326 -0.1428  0.5157
 9375TIP3    H149540   3.683   0.223   2.816 -0.1159 -0.2543  0.6424
 9375TIP3    H249541   3.629   0.365   2.813 -1.3679 -0.7187  0.8867
 9376TIP3   OH249542   2.755   1.753   3.758  0.0196  0.0879 -0.1417
 9376TIP3    H149543   2.764   1.833   3.809  2.6739 -1.4010  1.8035
 9376TIP3    H249544   2.782   1.778   3.669 -0.4630  1.6379  0.1372
 9377TIP3   OH249545   3.722   3.179  16.773 -0.2637  0.7296 -0.0389
 9377TIP3    H149546   3.741   3.270  16.749 -1.0656  0.6365 -1.0903
 9377TIP3    H249547   3.733   3.130  16.691 -0.4284 -0.0206  0.3862
 9378TIP3   OH249548   5.185   4.124  12.028 -0.0722  0.0169  0.1132
 9378TIP3    H149549   5.227   4.164  11.952  1.6905 -1.8935  0.0549
 9378TIP3    H249550   5.196   4.189  12.098  2.8797 -0.3749  0.0666
 9379TIP3   OH249551   4.162   3.819  16.560  0.6813 -0.4894 -0.7303
 9379TIP3    H149552   4.226   3.887  16.584  0.9182 -0.4070 -1.5895
 9379TIP3    H249553   4.201   3.738  16.594 -1.3606  0.2207  3.6711
 9380TIP3   OH249554   4.895   3.880   0.708 -0.0180  0.5331  0.4584
 9380TIP3    H149555   4.969   3.821   0.691  0.0772  0.1858  2.0294
 9380TIP3    H249556   4.915   3.959   0.657  0.1896 -0.5099 -1.1178
 9381TIP3   OH249557   6.590   0.978  12.853  0.0888  0.0721  0.7044
 9381TIP3    H149558   6.547   0.893  12.840 -1.3045  0.9480 -0.7344
 9381TIP3    H249559   6.518   1.038  12.872  0.8651  1.2771 -0.1078
 9382TIP3   OH249560   4.584   3.752  11.508  0.5921 -0.0996 -0.6586
 9382TIP3    H149561   4.506   3.743  11.563  0.8999  0.4728 -0.1260
 9382TIP3    H249562   4.655   3.714  11.560  1.0329  1.1794 -0.3183
 9383TIP3   OH249563   5.478   1.945   0.148 -0.4484  0.4579  0.0260
 9383TIP3    H149564   5.500   1.853   0.141  0.3718  0.4951  1.7614
 9383TIP3    H249565   5.493   1.981   0.061  0.2750 -0.8121 -0.3794
 9384TIP3   OH249566   1.043   6.175  12.412  0.7464 -0.0623 -0.1805
 9384TIP3    H149567   1.077   6.265  12.411 -0.6017  0.4556  0.0251
 9384TIP3    H249568   0.991   6.169  12.332 -1.1606  0.1344  1.0108
 9385TIP3   OH249569   5.566   4.754  16.979 -0.4693  0.7207 -0.1579
 9385TIP3    H149570   5.587   4.793  17.065 -0.3732  0.6652 -0.1594
 9385TIP3    H249571   5.641   4.775  16.924 -0.4273  0.5562 -0.1642
 9386TIP3   OH249572   0.562   0.208   3.453  0.4486 -0.3059 -0.2123
 9386TIP3    H149573   0.592   0.123   3.485  0.0713 -0.0894  0.7285
 9386TIP3    H249574   0.490   0.232   3.511  0.9085  0.9093 -0.1271
 9387TIP3   OH249575   0.717   5.452   1.204  0.1152  0.2806 -0.3519
 9387TIP3    H149576   0.718   5.466   1.109  1.1280  2.9831  0.0148
 9387TIP3    H249577   0.689   5.536   1.240 -2.9609 -1.5228  1.6499
 9388TIP3   OH249578   0.163   3.777   3.374  0.6714 -0.4418 -0.0091
 9388TIP3    H149579   0.115   3.858   3.354  2.1663  0.6179  0.5630
 9388TIP3    H249580   0.104   3.727   3.430  0.7882  1.4980  1.9108
 9389TIP3   OH249581   3.106   3.483  12.688  0.7379  0.5232  0.4734
 9389TIP3    H149582   3.057   3.491  12.606  1.1447  2.4438  0.4071
 9389TIP3    H249583   3.143   3.394  12.685  1.4877  0.8851 -1.8488
 9390TIP3   OH249584   1.967   2.336   0.095  0.5878  0.7180  0.0798
 9390TIP3    H149585   1.973   2.316   0.002 -0.4718 -1.3529  0.4163
 9390TIP3    H249586   2.008   2.260   0.138 -1.9687  0.0200  1.3813
 9391TIP3   OH249587   0.987   5.095   4.894  0.3369  0.1842  0.8886
 9391TIP3    H149588   0.905   5.142   4.910 -0.7838 -0.7768 -1.7242
 9391TIP3    H249589   1.050   5.164   4.874 -0.7691  0.7230 -0.8063
 9392TIP3   OH249590   0.833   0.030  14.258  0.5725 -0.1575 -0.5005
 9392TIP3    H149591   0.899   0.084  14.302 -0.6504  1.0563 -0.1027
 9392TIP3    H249592   0.784   0.093  14.205 -1.2547 -0.7841  0.4244
 9393TIP3   OH249593   0.380   1.259   4.691  0.1356  0.0574  0.1916
 9393TIP3    H149594   0.434   1.184   4.719  0.8594  0.5724  0.2037
 9393TIP3    H249595   0.357   1.302   4.773 -0.5489 -0.3334  0.2035
 9394TIP3   OH249596   1.702   3.080   3.273 -0.1715 -0.0377  0.0358
 9394TIP3    H149597   1.736   2.991   3.264  0.0922  0.2528 -2.0768
 9394TIP3    H249598   1.629   3.071   3.334 -0.9733 -1.9596 -1.1267
 9395TIP3   OH249599   4.951   3.058  16.164  0.4519  0.0040  0.2251
 9395TIP3    H149600   4.890   3.099  16.225  0.1652  0.6322 -0.4786
 9395TIP3    H249601   4.897   2.999  16.112  0.6488 -0.3245  0.3928
 9396TIP3   OH249602   2.574   2.743  11.480  0.3148 -0.2784  0.4025
 9396TIP3    H149603   2.634   2.794  11.425  1.2954 -0.6324  1.1248
 9396TIP3    H249604   2.589   2.652  11.454  0.0314 -0.3618  0.5354
 9397TIP3   OH249605   5.825   5.906  16.045  0.3869 -0.0230  0.6867
 9397TIP3    H149606   5.831   5.963  16.122 -1.7060  0.0980  0.7804
 9397TIP3    H249607   5.749   5.938  15.997  2.6093  0.9715 -2.3654
 9398TIP3   OH249608   6.087   3.122   2.698 -0.5176  0.0131 -0.3130
 9398TIP3    H149609   6.047   3.082   2.775 -0.1285  1.0228  0.4283
 9398TIP3    H249610   6.061   3.214   2.702  1.1784  0.5052 -0.2644
 9399TIP3   OH249611   6.084   4.729   4.882 -0.3291  0.3530  0.1399
 9399TIP3    H149612   6.152   4.670   4.914  1.2889  1.4578 -1.1973
 9399TIP3    H249613   6.011   4.670   4.859  0.2727 -0.8625  1.2576
 9400TIP3   OH249614   5.969   2.209  13.903  0.5229 -0.4158 -1.1468
 9400TIP3    H149615   5.973   2.155  13.982 -0.2895 -0.4889 -1.1534
 9400TIP3    H249616   6.015   2.158  13.837  1.2279 -0.3440 -0.7180
 9401TIP3   OH249617   4.900   3.153  15.780  0.2821  0.2056  0.4634
 9401TIP3    H149618   4.950   3.166  15.861  0.0973  0.2895  0.5634
 9401TIP3    H249619   4.875   3.241  15.753 -1.0580  0.0684  1.1962
 9402TIP3   OH249620   5.521   4.642   5.017  0.1961 -0.7025 -0.0458
 9402TIP3    H149621   5.489   4.720   4.973 -1.9709 -1.8245 -0.5419
 9402TIP3    H249622   5.611   4.663   5.042 -0.4344  2.0141  0.0537
 9403TIP3   OH249623   3.656   2.658  15.837 -0.3948  0.0949  0.3016
 9403TIP3    H149624   3.685   2.600  15.908  0.8426  1.1827  0.7115
 9403TIP3    H249625   3.577   2.700  15.871 -0.2033  0.0856  0.7658
 9404TIP3   OH249626   2.927   2.187  11.462 -0.2379  0.5792  0.1576
 9404TIP3    H149627   2.853   2.179  11.402 -0.7274 -1.5884  1.0068
 9404TIP3    H249628   2.928   2.279  11.486 -2.0619  0.8267 -0.6220
 9405TIP3   OH249629   0.737   0.119   2.061 -0.3107  0.6027  0.3087
 9405TIP3    H149630   0.805   0.054   2.045 -1.1187  0.2406 -1.8168
 9405TIP3    H249631   0.722   0.114   2.156  1.4501 -0.4554  0.5637
 9406TIP3   OH249632   6.673   3.900  11.374  0.0516  0.6995 -0.3540
 9406TIP3    H149633   6.742   3.871  11.433 -0.0236 -0.6996 -0.9469
 9406TIP3    H249634   6.708   3.980  11.334  0.7624  0.7461  0.3593
 9407TIP3   OH249635   2.832   6.243   0.131 -0.0657  0.1078 -0.9596
 9407TIP3    H149636   2.772   6.199   0.191 -0.2097  1.1777 -0.3071
 9407TIP3    H249637   2.798   6.222   0.044 -0.7729 -0.1500 -0.6272
 9408TIP3   OH249638   3.466   2.357  13.339 -0.1500  0.4174 -0.3731
 9408TIP3    H149639   3.443   2.279  13.389 -1.5510  0.1466 -1.4112
 9408TIP3    H249640   3.552   2.337  13.301 -0.4356 -0.5524 -0.5110
 9409TIP3   OH249641   2.942   5.835  11.567  0.2053  0.0198  0.6095
 9409TIP3    H149642   2.975   5.750  11.596  0.5342 -0.5366 -1.3000
 9409TIP3    H249643   2.848   5.822  11.556  0.2991 -0.2047  0.0253
 9410TIP3   OH249644   0.873   3.969  13.525  0.5517  0.1843  0.3562
 9410TIP3    H149645   0.818   4.009  13.458 -0.0922  0.7832  1.2204
 9410TIP3    H249646   0.882   4.036  13.592  2.9055  0.3264 -0.0597
 9411TIP3   OH249647   5.241   6.154   4.867 -0.3200  0.2942  0.7979
 9411TIP3    H149648   5.289   6.174   4.787 -0.2403 -0.7853  0.5641
 9411TIP3    H249649   5.284   6.076   4.902 -0.6069  0.5206  1.6823
 9412TIP3   OH249650   5.980   6.485  12.305  0.5427  0.3188  0.3988
 9412TIP3    H149651   5.924   6.562  12.298  2.3127  1.7134  1.3165
 9412TIP3    H249652   5.959   6.447  12.391  1.5556  1.2782  1.0704
 9413TIP3   OH249653   2.058   2.576  12.801 -0.1399 -0.0605  0.5905
 9413TIP3    H149654   2.088   2.492  12.837  1.0045  0.0181 -0.1394
 9413TIP3    H249655   1.971   2.557  12.766  0.1928 -1.0031  0.2404
 9414TIP3   OH249656   3.954   0.202   2.183 -0.6097  0.2054  0.5071
 9414TIP3    H149657   3.914   0.220   2.098 -0.2562 -0.4586  0.1915
 9414TIP3    H249658   3.899   0.134   2.221 -0.2801 -0.1025  0.4384
 9415TIP3   OH249659   0.066   5.876  14.184  0.3126  0.2198  0.4376
 9415TIP3    H149660   0.035   5.947  14.127  0.2205 -0.5660 -0.5088
 9415TIP3    H249661   0.159   5.869  14.164  0.6035  0.9638  1.5135
 9416TIP3   OH249662   6.375   2.656  13.705 -0.1416  0.3216  0.2698
 9416TIP3    H149663   6.372   2.606  13.623  2.2329 -1.9308  1.4865
 9416TIP3    H249664   6.287   2.647  13.741 -0.2695 -1.4952 -0.4247
 9417TIP3   OH249665   5.890   1.957  12.903  0.1812  0.3711 -0.0068
 9417TIP3    H149666   5.839   2.005  12.838  2.5001 -0.5172 -2.5753
 9417TIP3    H249667   5.958   2.018  12.930 -0.3511  0.4926  1.0730
 9418TIP3   OH249668   3.479   5.439   2.331  0.2365  0.1434 -0.3816
 9418TIP3    H149669   3.421   5.473   2.263 -1.6307 -1.6163  0.2673
 9418TIP3    H249670   3.440   5.355   2.356  2.2312 -0.3735  1.1651
 9419TIP3   OH249671   1.256   4.870  13.269  0.2805  0.6074  0.8822
 9419TIP3    H149672   1.309   4.943  13.239 -0.7329  0.3865 -1.5166
 9419TIP3    H249673   1.166   4.900  13.262 -0.0547 -0.0857  2.0386
 9420TIP3   OH249674   1.118   1.708   0.546 -0.0364  0.1947 -0.0084
 9420TIP3    H149675   1.077   1.635   0.593  0.1416  0.7186  0.9733
 9420TIP3    H249676   1.201   1.673   0.514  0.7904  0.4175  1.8364
 9421TIP3   OH249677   0.182   0.557   2.643  0.1633  0.2031  0.1171
 9421TIP3    H149678   0.137   0.642   2.650  0.9465  0.6157  0.1764
 9421TIP3    H249679   0.134   0.511   2.574 -0.5699  0.5019  0.4167
 9422TIP3   OH249680   4.726   6.621  14.557  0.0115 -0.3718 -0.4495
 9422TIP3    H149681   4.777   6.666  14.624  0.4710 -0.4101 -0.7807
 9422TIP3    H249682   4.635   6.630  14.587  0.3534 -2.0709  1.2075
 9423TIP3   OH249683   6.444   0.910   5.301 -0.1506 -0.0537  0.0052
 9423TIP3    H149684   6.443   0.931   5.207  0.2587 -1.1011 -0.2377
 9423TIP3    H249685   6.509   0.969   5.338 -0.0138  0.0794 -0.4446
 9424TIP3   OH249686   4.746   2.760   0.969 -0.9529 -0.4980  0.2845
 9424TIP3    H149687   4.738   2.749   1.064 -3.2056 -0.5332  0.1148
 9424TIP3    H249688   4.798   2.685   0.941 -1.8883 -1.5255  1.2502
 9425TIP3   OH249689   4.089   4.980   5.797 -0.1710 -0.0341  0.5562
 9425TIP3    H149690   4.020   4.973   5.862 -0.1291  0.1747  0.6229
 9425TIP3    H249691   4.170   4.973   5.848 -0.1293  0.9350  0.6229
 9426TIP3   OH249692   1.589   4.330   4.927 -0.2539  0.2019 -0.4244
 9426TIP3    H149693   1.527   4.388   4.883 -0.8556 -1.0057 -1.2109
 9426TIP3    H249694   1.553   4.242   4.914  0.8254 -0.3835  0.4344
 9427TIP3   OH249695   1.957   0.841   3.753  0.7764  0.3272  0.1019
 9427TIP3    H149696   1.891   0.886   3.700 -0.8830 -0.6687  1.2870
 9427TIP3    H249697   2.040   0.866   3.713 -0.3500  0.9015 -1.9746
 9428TIP3   OH249698   5.942   0.401   5.722  0.0367  0.0403  0.3967
 9428TIP3    H149699   5.861   0.378   5.767  0.5524 -1.0242  0.8254
 9428TIP3    H249700   6.011   0.377   5.784  0.6585  1.8797  0.4461
 9429TIP3   OH249701   3.396   1.723   4.302  0.2277  0.7970  0.1966
 9429TIP3    H149702   3.412   1.772   4.383 -0.3967  0.3843  0.5737
 9429TIP3    H249703   3.399   1.631   4.329  3.9447  0.4768 -0.9463
 9430TIP3   OH249704   2.603   3.218   5.429  0.2124  0.1079  0.8334
 9430TIP3    H149705   2.673   3.169   5.387  1.0080  1.8205  0.0996
 9430TIP3    H249706   2.575   3.163   5.502  0.4780 -1.8126 -0.4575
 9431TIP3   OH249707   6.038   0.625   3.440 -0.6834 -0.2261  0.0933
 9431TIP3    H149708   6.080   0.709   3.461 -2.9715  1.2764 -1.1064
 9431TIP3    H249709   6.013   0.589   3.525 -0.6627  0.8461  0.5618
 9432TIP3   OH249710   4.621   4.527   1.484 -0.1698 -0.3622  0.4249
 9432TIP3    H149711   4.609   4.511   1.391 -1.4120  0.4047  0.4471
 9432TIP3    H249712   4.533   4.546   1.517  0.3187 -0.2080  1.6732
 9433TIP3   OH249713   4.704   4.116   4.942  0.1461  0.3358  0.6152
 9433TIP3    H149714   4.726   4.053   4.873  0.4438 -1.2189  2.1021
 9433TIP3    H249715   4.665   4.190   4.895  2.0471  0.1095 -1.3995
 9434TIP3   OH249716   0.526   5.814   3.668  0.3929 -0.2793 -0.3042
 9434TIP3    H149717   0.572   5.797   3.751 -3.8572 -2.0714  1.8720
 9434TIP3    H249718   0.503   5.907   3.673 -0.7659 -0.6106  1.1169
 9435TIP3   OH249719   2.134   2.764   5.461 -0.0418 -0.4032 -0.5214
 9435TIP3    H149720   2.136   2.850   5.419  0.0558 -0.3687 -0.4468
 9435TIP3    H249721   2.095   2.706   5.396 -3.8283  0.4733  0.8202
 9436TIP3   OH249722   1.978   5.547   5.316  0.0219 -0.1470 -0.3622
 9436TIP3    H149723   1.969   5.509   5.229 -0.5953 -0.4886 -0.1528
 9436TIP3    H249724   1.998   5.639   5.300  0.8422 -0.4079 -0.8672
 9437TIP3   OH249725   3.412   5.763  10.863 -0.0409  0.2644  0.0522
 9437TIP3    H149726   3.354   5.688  10.875  0.1140  0.1064 -0.1846
 9437TIP3    H249727   3.406   5.784  10.770 -0.4052  0.8087  0.1929
 9438TIP3   OH249728   2.344   0.378   1.628 -0.0080 -0.2717  0.1839
 9438TIP3    H149729   2.255   0.368   1.662 -0.5066 -0.4986 -1.1755
 9438TIP3    H249730   2.386   0.439   1.688 -0.3393 -1.9762  2.2087
 9439TIP3   OH249731   6.132   1.150  10.489 -0.0982 -0.6297 -0.1735
 9439TIP3    H149732   6.127   1.235  10.532 -2.5861 -0.0532 -1.5203
 9439TIP3    H249733   6.222   1.146  10.456  0.2166  1.2346  0.3780
 9440TIP3   OH249734   4.551   4.638  12.970 -0.2910 -0.1950  0.1409
 9440TIP3    H149735   4.475   4.624  13.027 -1.4037 -0.3319 -1.3696
 9440TIP3    H249736   4.580   4.727  12.990 -2.2645  0.7127 -0.9338
 9441TIP3   OH249737   3.186   6.597   5.813 -0.6049  0.4162  0.0972
 9441TIP3    H149738   3.160   6.618   5.902 -1.6894 -0.1425 -0.0837
 9441TIP3    H249739   3.281   6.607   5.813 -0.4541 -0.9706  1.6773
 9442TIP3   OH249740   2.005   0.611   5.066 -0.2733  0.4470 -0.7014
 9442TIP3    H149741   1.969   0.637   5.151 -0.5261 -0.2972 -0.5799
 9442TIP3    H249742   2.066   0.681   5.044 -1.4308  1.4706 -0.6857
 9443TIP3   OH249743   1.501   2.807  11.261 -0.3679  0.0177 -0.3714
 9443TIP3    H149744   1.498   2.890  11.213 -1.0309  0.0609 -0.2557
 9443TIP3    H249745   1.465   2.828  11.347 -1.3953 -0.5814 -0.6400
 9444TIP3   OH249746   0.993   0.951   6.676 -0.3029 -0.5721  0.5823
 9444TIP3    H149747   0.913   0.971   6.724 -0.5077  0.0609 -0.0171
 9444TIP3    H249748   1.064   0.969   6.739 -0.5625  0.3843  0.6009
 9445TIP3   OH249749   4.140   4.324   3.812 -0.9936 -0.2770 -0.3943
 9445TIP3    H149750   4.167   4.373   3.890 -1.5021  0.6753 -0.8051
 9445TIP3    H249751   4.212   4.335   3.750 -1.2241  0.1951 -0.5855
 9446TIP3   OH249752   1.321   5.104  17.217 -0.0428 -0.4953 -0.0682
 9446TIP3    H149753   1.249   5.087  17.277 -0.2970  0.3644 -0.1163
 9446TIP3    H249754   1.287   5.171  17.157  1.3691  1.2457  1.0035
 9447TIP3   OH249755   4.230   6.086   2.594 -0.7231  0.3788 -0.3963
 9447TIP3    H149756   4.222   6.098   2.499  0.3977 -0.9533 -0.6724
 9447TIP3    H249757   4.281   6.161   2.623  1.4799 -0.7290 -1.2903
 9448TIP3   OH249758   4.175   3.619   4.685  0.0126  0.1188  0.0659
 9448TIP3    H149759   4.137   3.600   4.600  0.4623 -0.7426  0.0602
 9448TIP3    H249760   4.147   3.547   4.741  1.9101 -0.7174 -0.0201
 9449TIP3   OH249761   3.899   6.396   3.483  0.2019  0.0478  0.1258
 9449TIP3    H149762   3.963   6.418   3.550 -0.2148  0.8765  0.2519
 9449TIP3    H249763   3.951   6.387   3.403  0.4814  0.6790  0.2319
 9450TIP3   OH249764   4.986   5.496  14.009 -0.2104  0.1521  0.8184
 9450TIP3    H149765   5.026   5.435  13.948 -0.6813 -1.0443  1.6685
 9450TIP3    H249766   4.953   5.567  13.955  1.3038  0.1822 -0.0789
 9451TIP3   OH249767   3.386   2.805   4.331 -0.0796 -0.0023 -0.0647
 9451TIP3    H149768   3.348   2.796   4.419 -0.4308 -0.2678 -0.2392
 9451TIP3    H249769   3.463   2.748   4.332 -1.4950 -2.0309 -0.7130
 9452TIP3   OH249770   5.120   2.341   6.027 -0.1176 -0.7341  0.2279
 9452TIP3    H149771   5.134   2.383   5.942 -0.4142 -1.3746 -0.1370
 9452TIP3    H249772   5.052   2.277   6.011  0.1013 -1.1262  0.8674
 9453TIP3   OH249773   0.434   0.436  11.895 -0.2863 -0.5115  0.2638
 9453TIP3    H149774   0.497   0.504  11.870  0.8392 -0.9960  1.7222
 9453TIP3    H249775   0.485   0.356  11.898 -0.6423 -0.6872  2.8415
 9454TIP3   OH249776   0.388   4.786   6.331 -0.8235  0.2038 -0.4887
 9454TIP3    H149777   0.375   4.873   6.369 -0.0298  0.3632 -0.5700
 9454TIP3    H249778   0.442   4.740   6.395 -0.0936  0.2324 -1.0765
 9455TIP3   OH249779   0.048   2.977   5.845  0.2520  0.7879 -0.6860
 9455TIP3    H149780  -0.045   2.967   5.823  0.1539  0.3768 -0.1138
 9455TIP3    H249781   0.059   3.070   5.862 -0.0724  0.8313 -0.7060
 9456TIP3   OH249782   1.594   2.222  15.140 -0.3325  0.4035  0.0937
 9456TIP3    H149783   1.568   2.151  15.199 -1.3567  1.0743  0.4578
 9456TIP3    H249784   1.649   2.279  15.193 -2.4463  1.7916  0.8556
 9457TIP3   OH249785   3.026   3.812   3.784  0.3871 -0.6378 -0.4255
 9457TIP3    H149786   3.118   3.833   3.765  0.3924  0.6110  0.9302
 9457TIP3    H249787   2.977   3.886   3.749 -0.1408 -1.4695 -1.4569
 9458TIP3   OH249788   1.288   4.827   5.807 -0.4031  0.6746  0.7797
 9458TIP3    H149789   1.382   4.819   5.823 -0.3135  2.2318  1.0476
 9458TIP3    H249790   1.255   4.737   5.816  1.3878 -0.2766 -1.5421
 9459TIP3   OH249791   5.487   3.154  13.826 -0.0745  0.2800 -0.2028
 9459TIP3    H149792   5.523   3.136  13.740 -1.9506 -0.3483 -0.8913
 9459TIP3    H249793   5.529   3.235  13.854  1.9638 -0.5220 -0.8710
 9460TIP3   OH249794   6.686   4.403   5.267  0.0669 -0.2956 -0.1146
 9460TIP3    H149795   6.668   4.476   5.327  2.0098  0.2370 -0.1415
 9460TIP3    H249796   6.675   4.325   5.321  0.0180  0.1042  0.4573
 9461TIP3   OH249797   2.010   6.727  13.218 -0.0904 -1.0126  0.3039
 9461TIP3    H149798   1.997   6.791  13.148  0.8878 -0.7457  0.3471
 9461TIP3    H249799   2.104   6.709  13.215  0.4142  0.8678  3.1604
 9462TIP3   OH249800   6.423   3.700  15.998 -0.2653  0.1681  0.1416
 9462TIP3    H149801   6.330   3.702  16.020 -0.0275  0.5028  1.1437
 9462TIP3    H249802   6.449   3.608  16.011 -0.2742  0.2338  0.6190
 9463TIP3   OH249803   4.721   5.194   6.086  0.3656  0.5659 -0.4835
 9463TIP3    H149804   4.650   5.197   6.150 -1.2480  2.7985 -2.2722
 9463TIP3    H249805   4.783   5.131   6.122 -3.5214 -3.2324  0.0548
 9464TIP3   OH249806   3.881   0.977   3.210  0.5700 -0.2854  0.1562
 9464TIP3    H149807   3.865   0.921   3.286 -1.0832  0.9781  0.7758
 9464TIP3    H249808   3.806   0.961   3.153  0.1465  1.1931  0.2859
 9465TIP3   OH249809   3.039   3.659  14.547  0.6272  1.0833 -0.3404
 9465TIP3    H149810   3.069   3.702  14.467  2.0701  0.4781 -0.1370
 9465TIP3    H249811   3.014   3.731  14.605  0.8984  1.5666 -0.8247
 9466TIP3   OH249812   5.535   5.683   6.265  0.5883  0.6439  0.5955
 9466TIP3    H149813   5.507   5.728   6.185 -1.7799  0.3745  1.2391
 9466TIP3    H249814   5.606   5.625   6.236 -1.9036 -1.3442 -1.8683
 9467TIP3   OH249815   2.826   2.445  15.844 -0.0100 -0.1325  0.2391
 9467TIP3    H149816   2.751   2.409  15.891 -0.6763  0.7120 -0.1593
 9467TIP3    H249817   2.807   2.427  15.752  0.4014 -0.1580  0.1592
 9468TIP3   OH249818   6.035   0.066   2.187 -0.3398 -0.1758 -0.3281
 9468TIP3    H149819   5.993   0.138   2.141 -3.1920 -1.0158  0.8971
 9468TIP3    H249820   6.031  -0.007   2.125  2.2015  0.5334 -1.4166
 9469TIP3   OH249821   2.816   6.455   1.309  0.5668  0.0873  0.0143
 9469TIP3    H149822   2.825   6.397   1.385 -1.2876  1.6724  1.5013
 9469TIP3    H249823   2.727   6.438   1.277  0.8050  0.5179 -0.8802
 9470TIP3   OH249824   5.521   0.459  13.072  0.0537  0.0385 -0.3858
 9470TIP3    H149825   5.528   0.508  12.990  2.8585  1.9671  0.9362
 9470TIP3    H249826   5.510   0.368  13.044  0.0055  0.7631 -2.8952
 9471TIP3   OH249827   3.384   0.662  16.839  0.3090 -0.2292  0.3230
 9471TIP3    H149828   3.334   0.715  16.777 -1.3089 -2.0119  0.0561
 9471TIP3    H249829   3.371   0.705  16.924  0.1616  0.5942 -0.1208
 9472TIP3   OH249830   6.723   6.491   4.137  0.0079 -0.1705  0.0381
 9472TIP3    H149831   6.696   6.419   4.194  3.4011 -1.7472 -0.2273
 9472TIP3    H249832   6.686   6.469   4.051  1.7416 -2.0750 -0.2399
 9473TIP3   OH249833   4.770   4.568  13.435 -0.2050 -0.1682 -0.1431
 9473TIP3    H149834   4.798   4.506  13.503  0.1709  0.0404 -0.1009
 9473TIP3    H249835   4.726   4.515  13.369 -0.5734 -0.3725  0.2669
 9474TIP3   OH249836   5.110   1.321   2.661 -0.2101 -0.4680 -0.0675
 9474TIP3    H149837   5.043   1.387   2.681 -1.7174 -2.1912  0.6488
 9474TIP3    H249838   5.170   1.325   2.735 -0.4638 -0.1177  0.1239
 9475TIP3   OH249839   4.269   4.069  12.674 -0.4226  0.8141  0.6421
 9475TIP3    H149840   4.295   4.026  12.755 -1.3372  1.1547  1.1222
 9475TIP3    H249841   4.351   4.077  12.624  0.1438  0.5918  1.5155
 9476TIP3   OH249842   0.790   4.823   4.870 -0.0802 -0.3148  0.4916
 9476TIP3    H149843   0.743   4.757   4.818 -0.5590  1.2776 -1.1584
 9476TIP3    H249844   0.726   4.850   4.936 -0.5736 -0.1134 -0.0561
 9477TIP3   OH249845   6.694   6.027   0.296 -0.3065  0.0149  0.1918
 9477TIP3    H149846   6.632   6.073   0.352  1.3244 -0.2910  2.2902
 9477TIP3    H249847   6.639   5.983   0.231 -2.0894  2.1074  0.2114
 9478TIP3   OH249848   0.397   3.082  15.686 -0.5214  0.0808  0.0510
 9478TIP3    H149849   0.471   3.079  15.625 -2.1759  2.2733 -2.1985
 9478TIP3    H249850   0.394   3.173  15.715 -1.3378 -0.3761  1.4393
 9479TIP3   OH249851   1.289   6.505  12.997 -0.3124  0.4019  0.1642
 9479TIP3    H149852   1.316   6.413  13.005 -0.7404  0.4203  2.0026
 9479TIP3    H249853   1.224   6.517  13.066 -0.8909  1.8724 -0.6211
 9480TIP3   OH249854   5.410   6.205  11.264  0.5336  0.3636 -0.9555
 9480TIP3    H149855   5.416   6.238  11.174  2.3391  0.6964 -0.7409
 9480TIP3    H249856   5.490   6.238  11.306  1.1918 -2.2527 -0.0758
 9481TIP3   OH249857   6.340   0.334  11.519 -0.0283  0.3064 -0.1306
 9481TIP3    H149858   6.313   0.424  11.534  0.9740  0.8336 -1.3290
 9481TIP3    H249859   6.271   0.281  11.558 -1.3230  1.5917 -0.6300
 9482TIP3   OH249860   6.331   0.155  14.247  0.1853  0.5223  0.4658
 9482TIP3    H149861   6.343   0.087  14.181  2.4421  0.0671  1.3018
 9482TIP3    H249862   6.317   0.107  14.328 -1.2234  1.0816  0.5650
 9483TIP3   OH249863   4.510   4.612   0.839 -0.1984  0.0512  0.0900
 9483TIP3    H149864   4.507   4.627   0.744 -1.3001  0.6574  0.2098
 9483TIP3    H249865   4.524   4.518   0.847 -2.1862 -0.3417 -0.6990
 9484TIP3   OH249866   6.433   3.083  13.884  0.3767  0.0879 -0.5535
 9484TIP3    H149867   6.490   3.114  13.956 -1.2852  1.8479  0.0627
 9484TIP3    H249868   6.487   3.020  13.836  1.3051 -1.6524  2.6325
 9485TIP3   OH249869   3.181   5.817  11.378 -0.3082  0.7212  0.0643
 9485TIP3    H149870   3.194   5.826  11.472 -0.9371 -1.5182  0.4126
 9485TIP3    H249871   3.088   5.797  11.369 -0.0912  0.1369 -0.9578
 9486TIP3   OH249872   1.545   6.204  14.773 -0.3450  0.6669 -0.0143
 9486TIP3    H149873   1.580   6.138  14.833 -1.7345  1.2844  1.5176
 9486TIP3    H249874   1.607   6.206  14.700  1.1221 -0.4312  1.1805
 9487TIP3   OH249875   6.456   2.545   5.831 -0.0629  0.7011  0.5426
 9487TIP3    H149876   6.549   2.535   5.851  0.4016  1.6673 -1.0027
 9487TIP3    H249877   6.414   2.559   5.916  1.2837  0.8376  1.1975
 9488TIP3   OH249878   4.743   0.307  11.351 -0.1731  0.1385  0.2394
 9488TIP3    H149879   4.759   0.223  11.393  0.4046  0.0009 -0.2364
 9488TIP3    H249880   4.670   0.291  11.292  0.8248 -0.4057 -0.8824
 9489TIP3   OH249881   3.550   1.907   5.185  0.5342  0.1410 -0.2240
 9489TIP3    H149882   3.575   1.991   5.145 -0.1549 -0.4627 -1.9573
 9489TIP3    H249883   3.516   1.855   5.112 -0.4057 -1.1237  1.0968
 9490TIP3   OH249884   1.083   5.416   0.155  0.0695  0.0693 -0.2848
 9490TIP3    H149885   1.008   5.449   0.205  0.8560  1.3352  0.1115
 9490TIP3    H249886   1.126   5.355   0.215 -0.1105  0.0780 -0.1460
 9491TIP3   OH249887   0.418   0.519  15.199 -0.2108  0.0203 -0.1100
 9491TIP3    H149888   0.405   0.440  15.147  1.5853 -0.8228  0.6729
 9491TIP3    H249889   0.430   0.487  15.289 -2.5208  1.3990  0.7189
 9492TIP3   OH249890   5.529   5.384  13.071 -0.2688 -0.4303  0.8625
 9492TIP3    H149891   5.563   5.468  13.040 -0.4536 -1.2709 -1.7487
 9492TIP3    H249892   5.444   5.375  13.026 -0.9332 -1.3477  2.2581
 9493TIP3   OH249893   3.567   3.907   6.246 -0.1011 -0.4675  0.7768
 9493TIP3    H149894   3.540   3.905   6.155  1.3747  1.3099  0.2532
 9493TIP3    H249895   3.490   3.938   6.294 -0.0231  1.3973 -0.2541
 9494TIP3   OH249896   3.822   1.678  11.990 -0.1801  0.0155  0.1827
 9494TIP3    H149897   3.820   1.764  11.947 -0.5041 -0.7251 -1.3137
 9494TIP3    H249898   3.768   1.623  11.934 -0.3218 -1.0628  1.3754
 9495TIP3   OH249899   3.759   0.248  14.559  0.6397  0.8007  0.5909
 9495TIP3    H149900   3.705   0.170  14.561 -0.5818  1.6619  1.6678
 9495TIP3    H249901   3.849   0.215  14.550  0.1249 -0.7059  0.9447
 9496TIP3   OH249902   1.895   1.964   6.191  0.3981  0.2386  0.5060
 9496TIP3    H149903   1.962   1.926   6.134 -1.4492  0.5802 -1.9499
 9496TIP3    H249904   1.943   2.021   6.250  2.2915  0.4226 -1.1762
 9497TIP3   OH249905   3.875   5.252  15.575  0.1857  0.2797  0.5789
 9497TIP3    H149906   3.816   5.314  15.534 -1.1429 -0.5327  1.2387
 9497TIP3    H249907   3.830   5.168  15.570  1.6576 -0.5110  0.3140
 9498TIP3   OH249908   2.416   4.237  12.606 -0.0365 -0.3697 -0.3898
 9498TIP3    H149909   2.334   4.267  12.645 -1.0593 -0.6930 -2.2262
 9498TIP3    H249910   2.402   4.143  12.593  0.6301 -0.4197 -0.7179
 9499TIP3   OH249911   3.909   1.906   6.165  0.0809 -0.1829  0.7208
 9499TIP3    H149912   3.820   1.918   6.132  0.9176 -0.4030 -1.7157
 9499TIP3    H249913   3.951   1.991   6.152  0.3726 -0.2183  1.4174
 9500TIP3   OH249914   5.660   4.561  17.205  0.5799  0.3597 -0.3962
 9500TIP3    H149915   5.648   4.654  17.220 -0.5524 -0.0838  1.5070
 9500TIP3    H249916   5.667   4.553  17.110 -1.6061  2.1001 -0.7335
 9501TIP3   OH249917   5.715   0.444   5.423  0.2400 -0.2118 -0.4060
 9501TIP3    H149918   5.728   0.459   5.517  1.9018 -0.9399 -0.5100
 9501TIP3    H249919   5.741   0.353   5.409 -1.7729 -0.6789 -1.2665
 9502TIP3   OH249920   3.070   5.107  11.415  0.0642 -0.2583 -0.2830
 9502TIP3    H149921   3.038   5.023  11.447 -0.4745  0.0036 -0.1345
 9502TIP3    H249922   3.116   5.086  11.333 -0.6582 -0.6070 -0.5977
 9503TIP3   OH249923   0.251   1.468   4.533  0.1478 -0.3460 -0.2928
 9503TIP3    H149924   0.285   1.434   4.615 -1.6437 -0.7716  0.3126
 9503TIP3    H249925   0.258   1.563   4.541 -0.9156 -0.3493  0.7719
 9504TIP3   OH249926   4.831   0.829  13.687 -1.2439 -0.6131  0.0915
 9504TIP3    H149927   4.758   0.839  13.626  0.9650  2.4301 -2.2846
 9504TIP3    H249928   4.888   0.765  13.645 -0.5353  0.2271 -0.2589
 9505TIP3   OH249929   2.043   2.322   0.948 -0.3753 -0.7165 -0.0833
 9505TIP3    H149930   2.076   2.409   0.923  0.6579 -0.6978  1.2651
 9505TIP3    H249931   1.982   2.299   0.878 -2.0760  1.8866  0.4574
 9506TIP3   OH249932   5.727   4.851   6.050  0.4695 -0.0174 -0.3487
 9506TIP3    H149933   5.644   4.899   6.057  0.3338 -0.2800 -0.1424
 9506TIP3    H249934   5.728   4.817   5.961  0.5455  0.3282 -0.4815
 9507TIP3   OH249935   2.966   6.446   5.068 -0.6829  0.2334 -0.6270
 9507TIP3    H149936   2.903   6.397   5.121  0.1150  0.2431  0.3652
 9507TIP3    H249937   2.914   6.511   5.022 -0.9846  2.8374  3.1580
 9508TIP3   OH249938   6.261   0.748  16.096  0.1118 -0.0275 -0.2861
 9508TIP3    H149939   6.338   0.793  16.132  0.3843 -0.1122 -0.7561
 9508TIP3    H249940   6.187   0.784  16.145  0.4679 -0.0685  0.2824
 9509TIP3   OH249941   6.254   5.759  13.740 -0.1050  0.3611  0.6438
 9509TIP3    H149942   6.287   5.745  13.651  0.7558  1.1912  0.8321
 9509TIP3    H249943   6.290   5.844  13.766  1.1618 -0.7299  2.4974
 9510TIP3   OH249944   4.783   4.121   3.318 -0.5606 -0.2251 -0.2832
 9510TIP3    H149945   4.779   4.062   3.394 -2.0722 -0.6967 -0.7139
 9510TIP3    H249946   4.729   4.196   3.343 -0.2993  0.0501 -0.5363
 9511TIP3   OH249947   1.653   5.344  15.753 -0.0147  0.0161  0.6662
 9511TIP3    H149948   1.569   5.374  15.789  0.4977  2.2799  0.0349
 9511TIP3    H249949   1.698   5.424  15.726  1.4645 -1.3193 -0.9646
 9512TIP3   OH249950   4.542   3.030   3.301 -0.2275  1.0899  1.0107
 9512TIP3    H149951   4.524   3.049   3.394 -1.0158  1.9948  0.6829
 9512TIP3    H249952   4.487   3.092   3.253 -0.3492  0.1621 -0.0771
 9513TIP3   OH249953   5.620   6.651   2.867  0.3236  0.0265 -0.1203
 9513TIP3    H149954   5.550   6.715   2.856  0.5147  0.3560  0.5833
 9513TIP3    H249955   5.590   6.574   2.818 -0.6139  0.0960  0.3336
 9514TIP3   OH249956   5.117   2.782  16.760 -0.1394  0.2422  0.1599
 9514TIP3    H149957   5.076   2.852  16.709  0.3932  0.2413 -0.2744
 9514TIP3    H249958   5.043   2.735  16.800 -0.5191  0.7719  0.0926
 9515TIP3   OH249959   2.280   0.577  12.936 -0.3665 -0.4731  0.3746
 9515TIP3    H149960   2.252   0.498  12.982  0.4054 -2.4370 -2.4171
 9515TIP3    H249961   2.372   0.589  12.962 -0.3742 -0.6995  0.5056
 9516TIP3   OH249962   5.501   3.570  12.139  0.8228 -0.2246 -0.2403
 9516TIP3    H149963   5.514   3.664  12.153 -0.2678  0.3191 -2.6495
 9516TIP3    H249964   5.408   3.561  12.122  0.6628 -1.9669  1.4400
 9517TIP3   OH249965   6.255   2.724   4.813 -0.3265  0.2648  0.1169
 9517TIP3    H149966   6.312   2.670   4.867 -0.5510 -0.1871 -0.0919
 9517TIP3    H249967   6.172   2.676   4.810 -0.2391  0.1599 -0.8266
 9518TIP3   OH249968   5.114   5.592  11.137  0.0759 -1.2194 -0.5089
 9518TIP3    H149969   5.149   5.670  11.180  0.8716 -0.1017 -3.0842
 9518TIP3    H249970   5.087   5.535  11.209 -0.1648  1.2508  1.4313
 9519TIP3   OH249971   2.171   5.051  17.177 -0.2444 -0.6119 -0.3227
 9519TIP3    H149972   2.185   5.122  17.115  1.0272 -0.1252  0.4921
 9519TIP3    H249973   2.134   4.980  17.125  1.4546 -0.4598 -1.7820
 9520TIP3   OH249974   0.944   2.418   1.449  0.2642 -0.0526  0.0437
 9520TIP3    H149975   0.957   2.453   1.361  3.8049  0.3959  0.6910
 9520TIP3    H249976   0.980   2.485   1.507 -0.1511 -1.2683  1.7337
 9521TIP3   OH249977   2.060   0.317   1.677  0.1096 -0.3029  0.2068
 9521TIP3    H149978   1.997   0.384   1.703  0.1988 -0.5817  1.1602
 9521TIP3    H249979   2.032   0.291   1.589 -0.5323  0.2526  0.2413
 9522TIP3   OH249980   4.455   1.965   2.418 -0.1963  0.6503 -0.1587
 9522TIP3    H149981   4.436   1.903   2.347 -0.6144  0.0271  0.4825
 9522TIP3    H249982   4.506   2.034   2.377  1.2881 -0.6986 -0.6604
 9523TIP3   OH249983   6.394   5.022  15.195 -0.0393  0.3884 -0.3109
 9523TIP3    H149984   6.359   4.946  15.148  0.0020  0.0147  0.2534
 9523TIP3    H249985   6.316   5.071  15.221 -0.0876  0.2832 -0.2533
 9524TIP3   OH249986   3.294   1.108  11.022  0.4749 -0.1974  0.6150
 9524TIP3    H149987   3.232   1.081  11.090  0.6938 -0.1547  0.8298
 9524TIP3    H249988   3.264   1.062  10.944  1.7491 -2.3095  1.3287
 9525TIP3   OH249989   0.454   0.628  10.324 -0.9980 -0.3518  0.1770
 9525TIP3    H149990   0.425   0.680  10.399 -5.1986 -1.4175 -0.5786
 9525TIP3    H249991   0.388   0.645  10.257  2.2154 -0.0598 -3.0770
 9526TIP3   OH249992   2.039   2.448  13.710  0.1788 -0.2524  0.3720
 9526TIP3    H149993   2.005   2.369  13.751 -0.6680 -0.3992 -0.6144
 9526TIP3    H249994   2.096   2.487  13.777 -0.5455 -0.9162  1.3825
 9527TIP3   OH249995   6.651   5.654  11.852 -0.3786  0.2466  0.2146
 9527TIP3    H149996   6.743   5.635  11.833 -0.0198  0.6726  1.5137
 9527TIP3    H249997   6.606   5.641  11.768  1.2908  2.8169 -1.1449
 9528TIP3   OH249998   1.340   4.190  11.414  0.2459 -0.1349 -0.2383
 9528TIP3    H149999   1.266   4.191  11.475  1.1486  0.9730  0.8566
 9528TIP3    H250000   1.312   4.248  11.342  0.1848  0.5397  0.3301
 9529TIP3   OH250001   3.881   5.328  10.893 -0.3744 -0.4746  0.0334
 9529TIP3    H150002   3.808   5.328  10.954 -0.1179 -0.1495  0.3374
 9529TIP3    H250003   3.943   5.392  10.928  0.3851 -1.2724  0.1594
 9530TIP3   OH250004   1.887   2.706  15.541 -0.0271  0.1177 -0.1574
 9530TIP3    H150005   1.885   2.619  15.503  0.8519  0.3940 -0.8479
 9530TIP3    H250006   1.826   2.757  15.487 -1.1639 -0.2598  0.7479
 9531TIP3   OH250007   2.702   5.654  12.175  0.0856 -0.4141  0.1016
 9531TIP3    H150008   2.667   5.640  12.087  0.7914  1.0522 -0.4278
 9531TIP3    H250009   2.795   5.635  12.167  0.1821 -0.1067  0.4929
 9532TIP3   OH250010   4.159   0.203  13.344 -0.6740  0.1856 -0.1499
 9532TIP3    H150011   4.238   0.241  13.383 -0.9492 -2.5622  3.3904
 9532TIP3    H250012   4.090   0.268  13.359  0.2177  1.1625 -0.2531
 9533TIP3   OH250013   1.340   0.508  11.315  0.3531 -0.6771  0.2132
 9533TIP3    H150014   1.259   0.486  11.361 -0.2125 -0.3459 -0.6112
 9533TIP3    H250015   1.313   0.523  11.225  1.0381  1.2517  0.2862
 9534TIP3   OH250016   0.171   2.927  12.272 -0.1738  0.3951  0.2701
 9534TIP3    H150017   0.228   2.852  12.254 -0.0923  0.8057 -1.2607
 9534TIP3    H250018   0.083   2.890  12.281  0.4152 -0.3597  3.5741
 9535TIP3   OH250019   1.538   6.755   4.274  0.1622  0.7032 -0.2190
 9535TIP3    H150020   1.449   6.744   4.306 -0.0174  1.5467 -0.4087
 9535TIP3    H250021   1.532   6.828   4.211  1.3890  2.3302  1.4840
 9536TIP3   OH250022   1.716   3.069   4.529 -0.3351  0.3622  0.2608
 9536TIP3    H150023   1.787   3.033   4.475 -0.6826  1.1523 -0.7448
 9536TIP3    H250024   1.650   3.000   4.531 -1.0363  0.9317 -1.7267
 9537TIP3   OH250025   2.637   0.076  12.786 -0.3021  0.1948  0.2591
 9537TIP3    H150026   2.684   0.159  12.789  2.7480 -1.4407 -0.1711
 9537TIP3    H250027   2.640   0.043  12.876 -0.2468 -0.1101  0.1478
 9538TIP3   OH250028   3.627   0.965   0.217  0.2009 -0.0426  0.4539
 9538TIP3    H150029   3.532   0.976   0.211  0.1650 -0.9424 -0.9873
 9538TIP3    H250030   3.640   0.910   0.294 -0.5073 -0.5522  0.2212
 9539TIP3   OH250031   3.258   3.866  14.209  0.3609 -0.1933 -0.4073
 9539TIP3    H150032   3.343   3.860  14.164  1.1103 -1.8796  1.1366
 9539TIP3    H250033   3.278   3.910  14.292 -0.5493  0.6950 -0.6513
 9540TIP3   OH250034   0.766   4.372   1.877  0.5103 -0.4807 -0.2249
 9540TIP3    H150035   0.817   4.414   1.808 -0.6416  0.0319 -0.7690
 9540TIP3    H250036   0.800   4.409   1.959 -0.0741  1.0301 -0.6651
 9541TIP3   OH250037   3.992   6.068   4.278 -0.2738  0.0473 -0.0563
 9541TIP3    H150038   4.063   6.124   4.310  0.5100 -0.2103 -1.3298
 9541TIP3    H250039   3.983   6.000   4.345  2.0329 -1.0759 -0.8493
 9542TIP3   OH250040   1.976   4.293   2.712 -0.1113  0.1134 -0.3962
 9542TIP3    H150041   1.978   4.388   2.699 -0.1785  0.1769  0.0459
 9542TIP3    H250042   2.064   4.264   2.687  0.0753  0.3602 -0.0374
 9543TIP3   OH250043   3.898   1.996   4.609 -0.0156 -0.6469  0.1669
 9543TIP3    H150044   3.923   1.972   4.520 -0.7710  0.0652 -0.2426
 9543TIP3    H250045   3.960   2.066   4.633 -1.1495  0.6526 -0.6021
 9544TIP3   OH250046   0.643   6.486  11.195  0.1664  0.4326 -0.3171
 9544TIP3    H150047   0.676   6.566  11.155  0.4116  0.7845  0.5633
 9544TIP3    H250048   0.622   6.512  11.285  2.0751 -0.9179  0.5613
 9545TIP3   OH250049   1.292   6.110  12.512  0.8179  0.1929  0.0699
 9545TIP3    H150050   1.200   6.131  12.498  0.5991 -0.8607 -0.0915
 9545TIP3    H250051   1.321   6.172  12.579  0.1408  0.8848 -0.2639
 9546TIP3   OH250052   6.425   5.656  16.390  0.0298 -0.0988  0.4918
 9546TIP3    H150053   6.410   5.675  16.297 -1.6554 -0.0188  0.7623
 9546TIP3    H250054   6.517   5.631  16.395 -0.0402 -0.7834 -1.3149
 9547TIP3   OH250055   4.202   4.425   5.693  0.1561 -0.6277 -0.1194
 9547TIP3    H150056   4.246   4.340   5.698  0.6061 -0.4073 -0.2352
 9547TIP3    H250057   4.240   4.466   5.615 -0.4341 -0.5266 -0.3575
 9548TIP3   OH250058   0.904   2.599   2.960 -0.2412  0.1744  0.0781
 9548TIP3    H150059   0.905   2.690   2.929 -0.6269  0.3251  0.5091
 9548TIP3    H250060   0.854   2.602   3.041  0.3725 -0.3031  0.4757
 9549TIP3   OH250061   5.371   0.631  11.585 -0.6536 -0.5403 -0.7904
 9549TIP3    H150062   5.447   0.575  11.569 -1.4343 -1.2887 -2.0176
 9549TIP3    H250063   5.370   0.690  11.510 -0.9100 -0.1121 -0.4468
 9550TIP3   OH250064   4.178   5.749  16.777 -0.0516  0.3036  0.0421
 9550TIP3    H150065   4.212   5.687  16.842  0.9729  0.6460 -0.1614
 9550TIP3    H250066   4.109   5.701  16.732  2.0531 -1.3787 -1.4641
 9551TIP3   OH250067   6.104   2.716   2.417  0.0511  0.3869  0.6485
 9551TIP3    H150068   6.031   2.659   2.394  0.5804  0.0881 -0.3159
 9551TIP3    H250069   6.127   2.760   2.336  1.5417 -0.2106  0.7330
 9552TIP3   OH250070   4.582   3.712   1.171 -0.1397 -0.0120 -0.3895
 9552TIP3    H150071   4.578   3.667   1.087 -3.6460  1.0196 -0.8430
 9552TIP3    H250072   4.621   3.797   1.151  1.1305 -0.5982 -0.5187
 9553TIP3   OH250073   2.565   0.676  13.014  0.2214 -0.0542  0.4873
 9553TIP3    H150074   2.587   0.766  13.038 -1.1912  0.0536  1.4235
 9553TIP3    H250075   2.605   0.664  12.929  0.3024  1.5217  0.2829
 9554TIP3   OH250076   5.285   5.779  15.723 -0.5756  0.0249 -0.1660
 9554TIP3    H150077   5.282   5.855  15.781  0.5278  1.2933 -1.7296
 9554TIP3    H250078   5.318   5.708  15.778  1.0550  1.3540  0.6164
 9555TIP3   OH250079   3.229   1.679   2.712 -0.3894  0.4066  0.4361
 9555TIP3    H150080   3.310   1.727   2.730 -0.9263  0.2255  3.5846
 9555TIP3    H250081   3.188   1.727   2.641  2.0772  0.9678 -0.6638
 9556TIP3   OH250082   3.022   0.661   2.664  0.2437 -0.7076 -0.2973
 9556TIP3    H150083   2.948   0.616   2.706 -0.0703 -1.1671 -1.3115
 9556TIP3    H250084   3.051   0.725   2.729 -2.6735  1.2606 -0.8197
 9557TIP3   OH250085   1.773   6.212  16.807  0.6937 -0.5497  0.3769
 9557TIP3    H150086   1.787   6.117  16.808 -2.1171 -1.0075  0.6925
 9557TIP3    H250087   1.800   6.241  16.895  3.5443 -0.6952 -0.4015
 9558TIP3   OH250088   0.567   6.010   1.298  0.0425 -0.1447  0.2927
 9558TIP3    H150089   0.587   6.061   1.220  0.4789 -2.3121 -1.0595
 9558TIP3    H250090   0.551   6.075   1.366 -2.6837  1.8301 -2.1496
 9559TIP3   OH250091   5.920   6.312  12.806 -0.3623  0.2534 -0.2108
 9559TIP3    H150092   5.904   6.253  12.879  0.6562 -0.4175 -0.5095
 9559TIP3    H250093   5.963   6.388  12.845 -1.8345  0.8956  0.2001
 9560TIP3   OH250094   4.659   3.151   5.659  0.1124  0.4345  0.0791
 9560TIP3    H150095   4.646   3.087   5.729  0.0708  1.2756  0.8546
 9560TIP3    H250096   4.717   3.217   5.698  0.0597  0.9242 -0.6722
 9561TIP3   OH250097   4.983   1.523  13.723  0.7831 -0.5393  0.0080
 9561TIP3    H150098   5.030   1.443  13.701  1.6179 -0.3294  0.9675
 9561TIP3    H250099   5.050   1.581  13.758  0.1535  0.5180 -0.5241
 9562TIP3   OH250100   0.067   2.480   1.211  0.2280 -0.2762 -0.0725
 9562TIP3    H150101   0.120   2.510   1.138  1.7317 -0.9348  0.7273
 9562TIP3    H250102   0.066   2.553   1.273  1.5075 -0.8175  0.6005
 9563TIP3   OH250103   6.746   2.671   5.979 -0.3457 -0.7192 -0.0977
 9563TIP3    H150104   6.788   2.590   5.949  1.3571 -0.0139  0.3071
 9563TIP3    H250105   6.737   2.723   5.900  1.7244  0.0684  0.1469
 9564TIP3   OH250106   3.945   4.499  14.805 -0.2889 -0.6602 -0.1455
 9564TIP3    H150107   3.923   4.551  14.728  1.6999 -0.5796 -0.6944
 9564TIP3    H250108   3.920   4.554  14.879  2.9956  1.7256 -0.6889
 9565TIP3   OH250109   5.567   1.608   4.586 -0.1983 -0.7457 -0.6516
 9565TIP3    H150110   5.629   1.620   4.658  1.5299 -0.5702 -2.1544
 9565TIP3    H250111   5.491   1.565   4.627 -0.2488  1.4771  1.7636
 9566TIP3   OH250112   2.076   5.949   5.693 -0.3160 -0.0320 -0.3924
 9566TIP3    H150113   1.991   5.909   5.713  0.2666 -1.8852 -1.4241
 9566TIP3    H250114   2.126   5.878   5.650  2.6051  0.2279  2.3687
 9567TIP3   OH250115   5.494   3.134  13.052  0.4390 -0.3981  0.6310
 9567TIP3    H150116   5.452   3.218  13.038  1.9054 -0.0169 -1.8719
 9567TIP3    H250117   5.566   3.152  13.113 -0.5461 -0.2663  1.7543
 9568TIP3   OH250118   3.940   4.004   3.844  0.0274  0.0618  0.2002
 9568TIP3    H150119   3.928   4.095   3.873 -0.9663  0.4735 -1.4382
 9568TIP3    H250120   3.897   3.952   3.912  0.9288  0.7895  1.3408
 9569TIP3   OH250121   0.175   6.753   0.931  0.1865  0.2858 -0.0099
 9569TIP3    H150122   0.098   6.807   0.950 -0.1569 -0.2456  0.1111
 9569TIP3    H250123   0.144   6.663   0.940  1.0985  0.0755  1.1654
 9570TIP3   OH250124   4.313   6.581   4.057  0.3584 -0.1098 -0.3209
 9570TIP3    H150125   4.232   6.612   4.016 -0.2354 -0.7041  0.3812
 9570TIP3    H250126   4.293   6.579   4.151  1.7742  1.4580  0.0322
 9571TIP3   OH250127   3.708   4.272  10.937  1.0706 -0.2001 -0.6392
 9571TIP3    H150128   3.714   4.365  10.914  1.5832 -0.1237 -0.2238
 9571TIP3    H250129   3.796   4.251  10.970  0.0097  0.0333  2.4940
 9572TIP3   OH250130   1.742   6.069   5.589 -0.3802 -0.1537  0.4833
 9572TIP3    H150131   1.714   6.096   5.677 -0.0055 -2.1159  1.2260
 9572TIP3    H250132   1.736   5.974   5.590 -1.4238 -0.1643 -1.9956
 9573TIP3   OH250133   2.723   3.024  11.691  0.2874  0.3595  0.7545
 9573TIP3    H150134   2.730   3.008  11.597 -1.0744  0.5080  0.6215
 9573TIP3    H250135   2.753   3.114  11.702  1.9365 -0.1537  0.6833
 9574TIP3   OH250136   1.769   4.906  12.691  0.5845 -0.2358 -0.5919
 9574TIP3    H150137   1.861   4.927  12.678  0.1739  1.8805 -0.2701
 9574TIP3    H250138   1.767   4.852  12.770  1.4831  0.1534 -0.2987
 9575TIP3   OH250139   3.827   2.218   4.473  0.3682 -0.3513  0.0804
 9575TIP3    H150140   3.849   2.176   4.556 -0.3994 -1.2266 -0.1428
 9575TIP3    H250141   3.911   2.239   4.433  0.8526 -3.3965 -0.6517
 9576TIP3   OH250142   3.108   6.302  12.864 -0.5747 -0.5181  0.5229
 9576TIP3    H150143   3.086   6.208  12.862  0.1849 -0.7459  2.0092
 9576TIP3    H250144   3.129   6.324  12.773  0.2004 -2.0255  0.3218
 9577TIP3   OH250145   2.695   5.750   5.009  0.5217 -0.0527 -0.1206
 9577TIP3    H150146   2.654   5.741   5.094  0.8727 -1.3858 -0.0665
 9577TIP3    H250147   2.642   5.813   4.962 -0.4006 -0.2500  0.6537
 9578TIP3   OH250148   5.362   4.422  12.906 -0.2590 -0.1459 -0.2355
 9578TIP3    H150149   5.401   4.407  12.820  0.6962 -1.2675  0.3931
 9578TIP3    H250150   5.352   4.335  12.944 -1.5943  0.2700  0.3942
 9579TIP3   OH250151   5.854   6.089   3.378  0.0334 -0.5025  0.0264
 9579TIP3    H150152   5.820   6.091   3.289 -2.7789 -0.0946  1.0621
 9579TIP3    H250153   5.857   6.181   3.405 -2.7171 -0.8364  1.6225
 9580TIP3   OH250154   3.619   1.916   2.161 -0.0649  0.5241 -0.1889
 9580TIP3    H150155   3.540   1.885   2.118  0.1176  0.5826 -0.5701
 9580TIP3    H250156   3.628   2.007   2.131 -0.4096  0.8362  0.6500
 9581TIP3   OH250157   1.838   4.837   1.092 -0.0182  0.3806 -0.0080
 9581TIP3    H150158   1.802   4.759   1.135 -0.3787  0.1621 -0.6949
 9581TIP3    H250159   1.924   4.809   1.059  0.3725  0.6269  0.8049
 9582TIP3   OH250160   6.232   1.358   3.196  0.2774 -0.2932  0.1695
 9582TIP3    H150161   6.151   1.393   3.160  1.6028  1.5611 -1.1428
 9582TIP3    H250162   6.297   1.372   3.126  2.7977  2.8194  2.9981
 9583TIP3   OH250163   2.333   2.110  17.198  0.0072 -0.6993 -0.5114
 9583TIP3    H150164   2.259   2.066  17.155 -0.1658 -1.4142  0.4726
 9583TIP3    H250165   2.376   2.159  17.129 -1.8564  0.3555 -0.9629
 9584TIP3   OH250166   2.375   2.286   0.269 -0.0695 -0.3213  0.4313
 9584TIP3    H150167   2.463   2.259   0.294 -0.7404 -0.8401  2.2952
 9584TIP3    H250168   2.380   2.299   0.174  1.8681 -0.8583  0.4412
 9585TIP3   OH250169   0.321   6.657  15.443 -0.6702 -0.2938  0.0405
 9585TIP3    H150170   0.392   6.719  15.432 -0.4708 -0.0906  2.1742
 9585TIP3    H250171   0.362   6.571  15.438 -0.6643 -0.2280 -1.1140
 9586TIP3   OH250172   1.144   4.190   1.430  0.4653  0.1533  0.2699
 9586TIP3    H150173   1.231   4.222   1.409  0.0573  1.3726  0.4337
 9586TIP3    H250174   1.144   4.099   1.399  2.1701 -0.2331  1.3437
 9587TIP3   OH250175   1.202   5.017   5.395 -0.6984 -0.2775 -0.0205
 9587TIP3    H150176   1.216   4.923   5.390  2.2840  0.1647 -1.2825
 9587TIP3    H250177   1.162   5.039   5.310  0.1364 -0.2021 -0.4024
 9588TIP3   OH250178   0.807   2.786   0.729 -0.1852  0.2769  0.0813
 9588TIP3    H150179   0.856   2.839   0.793  1.3671  0.1824 -0.9854
 9588TIP3    H250180   0.815   2.696   0.762 -2.3770  0.5986  1.6111
 9589TIP3   OH250181   4.262   2.731   0.190  0.4423  0.0058 -0.2687
 9589TIP3    H150182   4.252   2.745   0.096  0.1225  0.2385 -0.2050
 9589TIP3    H250183   4.222   2.809   0.229  0.0929 -0.3414  0.0676
 9590TIP3   OH250184   0.221   2.661   0.769  0.4962 -0.4179 -0.1260
 9590TIP3    H150185   0.198   2.697   0.683 -0.7122  0.5117  0.5854
 9590TIP3    H250186   0.143   2.673   0.823  1.1483 -1.2510  1.0398
 9591TIP3   OH250187   0.435   1.007  15.079 -0.2997  0.2303  0.1689
 9591TIP3    H150188   0.357   1.022  15.025 -1.0473 -1.3001  0.7854
 9591TIP3    H250189   0.506   0.998  15.016 -1.1709 -1.5411 -0.5963
 9592TIP3   OH250190   3.514   4.028  14.833 -0.1319 -0.4390 -0.2742
 9592TIP3    H150191   3.498   4.060  14.921 -0.8201 -0.1280 -0.5144
 9592TIP3    H250192   3.549   4.103  14.785  3.0810 -1.3587  0.5176
 9593TIP3   OH250193   1.822   1.856   5.640  0.8919  0.3710  0.3063
 9593TIP3    H150194   1.875   1.922   5.685  1.8980 -0.5101  0.4385
 9593TIP3    H250195   1.885   1.792   5.607 -0.0971 -0.9073  0.7935
 9594TIP3   OH250196   4.453   5.419   2.543  0.0055 -0.1028 -0.2625
 9594TIP3    H150197   4.539   5.377   2.533 -0.3672 -0.9209 -0.1140
 9594TIP3    H250198   4.390   5.348   2.528 -0.6635  0.8214 -1.8995
 9595TIP3   OH250199   1.663   6.197  11.680 -0.1069 -0.2226 -0.0386
 9595TIP3    H150200   1.698   6.111  11.704 -0.0178 -0.2718 -0.3323
 9595TIP3    H250201   1.733   6.259  11.702 -0.4966 -0.1280  0.9610
 9596TIP3   OH250202   1.967   0.741  17.063 -0.4281 -0.0166  0.5117
 9596TIP3    H150203   1.925   0.747  17.149 -0.1157  2.0906  0.5249
 9596TIP3    H250204   2.057   0.717  17.082 -0.9267 -1.8923  0.6210
 9597TIP3   OH250205   6.694   1.328  11.519 -0.3260 -0.7280 -0.2040
 9597TIP3    H150206   6.724   1.419  11.518 -1.5338 -0.2793  1.5407
 9597TIP3    H250207   6.652   1.315  11.434 -0.7206  0.5470 -0.2116
 9598TIP3   OH250208   1.355   3.090   4.705 -0.1173 -0.2545  0.0243
 9598TIP3    H150209   1.420   3.116   4.771 -2.8237  0.1292  2.6477
 9598TIP3    H250210   1.326   3.003   4.734 -0.5696 -0.5632 -1.3171
 9599TIP3   OH250211   5.348   6.415   4.316  0.6156 -0.1910 -0.2918
 9599TIP3    H150212   5.357   6.507   4.341  0.2627 -0.5111  1.0782
 9599TIP3    H250213   5.376   6.412   4.225 -0.6971  1.5159 -0.7895
 9600TIP3   OH250214   2.060   2.949  15.502 -0.4146  0.5994  0.1438
 9600TIP3    H150215   2.006   2.983  15.573 -0.1007 -1.1786  1.2583
 9600TIP3    H250216   2.097   2.867  15.536  3.3180  1.9427 -0.3821
 9601TIP3   OH250217   4.023   5.170  15.848  0.3861 -0.6237  0.0173
 9601TIP3    H150218   4.015   5.078  15.874 -0.4326 -0.4141  0.5137
 9601TIP3    H250219   3.995   5.219  15.924 -1.3568  0.0040 -0.9961
 9602TIP3   OH250220   2.719   2.896  11.969 -0.3416  0.9818  0.5465
 9602TIP3    H150221   2.688   2.815  12.010  0.2297  0.3947 -0.1612
 9602TIP3    H250222   2.769   2.867  11.893 -1.2409  2.0593 -0.4679
 9603TIP3   OH250223   1.146   1.839  11.841 -0.1966 -0.9431 -0.3765
 9603TIP3    H150224   1.237   1.858  11.865 -0.7024 -0.7824  1.4994
 9603TIP3    H250225   1.130   1.752  11.880 -1.6212  0.1440  1.5463
 9604TIP3   OH250226   2.282   6.748  13.175  0.3981 -0.0351  0.1383
 9604TIP3    H150227   2.349   6.726  13.109 -0.7926  2.0387 -1.8583
 9604TIP3    H250228   2.307   6.835  13.206 -0.6820  0.2305  0.2864
 9605TIP3   OH250229   6.528   0.025   3.599 -0.2949 -0.2959 -0.4175
 9605TIP3    H150230   6.504  -0.003   3.510  0.0382 -3.3658  0.4009
 9605TIP3    H250231   6.449   0.009   3.651 -0.0032  0.0669  0.1428
 9606TIP3   OH250232   5.424   6.418   4.047  0.0951 -0.1682 -0.0233
 9606TIP3    H150233   5.402   6.386   3.960  0.5225 -1.5826  0.3752
 9606TIP3    H250234   5.452   6.509   4.033  0.4212 -0.4715 -1.3816
 9607TIP3   OH250235   4.384   2.347  16.859  0.0211 -0.0827 -0.3401
 9607TIP3    H150236   4.472   2.364  16.827  1.0248 -0.6642  1.9686
 9607TIP3    H250237   4.376   2.252  16.859 -0.1099 -0.0794  0.6674
 9608TIP3   OH250238   4.528   2.294  13.448  0.7173 -0.0932 -0.5196
 9608TIP3    H150239   4.584   2.313  13.373  1.5465 -0.3097  0.0301
 9608TIP3    H250240   4.531   2.374  13.501  0.4552 -0.0819 -0.5202
 9609TIP3   OH250241   0.662   3.753   3.623  0.1207 -0.3898 -0.2009
 9609TIP3    H150242   0.661   3.835   3.672 -2.9714 -0.3488 -0.2331
 9609TIP3    H250243   0.742   3.757   3.570  0.2092  2.4269  0.0780
 9610TIP3   OH250244   1.780   2.234  13.987 -0.3287 -0.2337 -0.2125
 9610TIP3    H150245   1.831   2.308  14.019  0.8337 -0.7734 -0.7994
 9610TIP3    H250246   1.739   2.197  14.065 -0.3816  0.6220  0.1655
 9611TIP3   OH250247   6.212   6.228   6.317 -0.1852  0.6765 -0.7417
 9611TIP3    H150248   6.176   6.268   6.395  1.2622  0.5357  0.0143
 9611TIP3    H250249   6.171   6.274   6.244 -3.5720 -0.9806  0.0491
 9612TIP3   OH250250   3.612   5.670  13.265 -0.1920 -0.3102 -0.0504
 9612TIP3    H150251   3.564   5.600  13.307  0.8389 -0.8036  0.3308
 9612TIP3    H250252   3.704   5.652  13.285  0.0755  1.2918  0.2916
 9613TIP3   OH250253   3.070   0.600  13.954 -0.3895  0.5482 -0.6094
 9613TIP3    H150254   3.079   0.518  14.003  1.7022 -0.1394 -2.0358
 9613TIP3    H250255   3.031   0.661  14.016  0.6430 -0.7502  1.3956
 9614TIP3   OH250256   1.076   3.232  16.494  0.0863  0.0125 -0.2717
 9614TIP3    H150257   1.005   3.171  16.477 -0.0509  0.3799 -1.0245
 9614TIP3    H250258   1.155   3.177  16.496 -0.0894 -0.2472 -0.4852
 9615TIP3   OH250259   1.604   5.493   0.844  0.2003 -0.0844 -0.5767
 9615TIP3    H150260   1.662   5.465   0.773 -1.0831  0.4321 -1.8529
 9615TIP3    H250261   1.646   5.571   0.879  0.7326 -0.2174 -0.9045
 9616TIP3   OH250262   1.397   3.575   0.520  0.6259 -0.3295 -0.1169
 9616TIP3    H150263   1.321   3.590   0.464 -0.2726 -0.2807  1.1173
 9616TIP3    H250264   1.463   3.538   0.461 -0.9980 -2.2321 -0.7771
 9617TIP3   OH250265   1.094   6.766  12.817 -0.0217  0.3430  0.2319
 9617TIP3    H150266   1.126   6.721  12.895 -1.0539 -0.4507  0.2128
 9617TIP3    H250267   1.074   6.855  12.846  3.2417  1.2201 -0.0058
 9618TIP3   OH250268   0.631   6.219   0.676 -0.2899 -0.6406  0.5265
 9618TIP3    H150269   0.666   6.308   0.675  0.3775 -0.9026  0.3492
 9618TIP3    H250270   0.676   6.177   0.749 -0.1026 -1.0362  0.1799
 9619TIP3   OH250271   4.793   1.894   0.859  0.2745 -0.5982 -0.3323
 9619TIP3    H150272   4.718   1.919   0.805  2.0795 -0.8542 -3.0960
 9619TIP3    H250273   4.805   1.968   0.919 -2.3459 -0.7087  0.3879
 9620TIP3   OH250274   1.250   3.678  12.660 -0.2444  0.0036  0.2138
 9620TIP3    H150275   1.208   3.635  12.735 -0.7804  1.9833  1.0862
 9620TIP3    H250276   1.245   3.614  12.589  1.1825 -2.3114  2.1237
 9621TIP3   OH250277   0.506   1.840   4.569  0.0792  0.2358 -0.1318
 9621TIP3    H150278   0.466   1.912   4.521 -0.3727 -0.2366 -0.4658
 9621TIP3    H250279   0.538   1.880   4.650 -1.2815  0.5681  0.2427
 9622TIP3   OH250280   1.546   1.262  11.742 -0.3158  0.5261 -0.0856
 9622TIP3    H150281   1.466   1.210  11.738 -1.1600  1.5977  2.0756
 9622TIP3    H250282   1.602   1.216  11.805 -0.7821  1.7781  1.2885
 9623TIP3   OH250283   5.414   5.493   3.100  0.2911  0.3046 -0.0375
 9623TIP3    H150284   5.448   5.489   3.011  1.9910 -0.3162  0.6289
 9623TIP3    H250285   5.455   5.571   3.138 -0.4782  0.6041  0.1888
 9624TIP3   OH250286   4.228   2.345  12.085  0.1263  0.5816  0.2638
 9624TIP3    H150287   4.186   2.375  12.166 -1.2251  0.7873 -0.4879
 9624TIP3    H250288   4.297   2.286  12.114 -2.7726 -2.3582  1.4569
 9625TIP3   OH250289   6.204   3.913   5.520 -0.4533  0.3288  0.4090
 9625TIP3    H150290   6.179   3.828   5.556 -0.2553 -0.0235 -0.2759
 9625TIP3    H250291   6.266   3.892   5.451  1.2562  1.1686  1.6619
 9626TIP3   OH250292   2.579   2.543   4.386 -0.5086  0.0292  0.1208
 9626TIP3    H150293   2.547   2.470   4.333  0.0204 -0.1241  0.0141
 9626TIP3    H250294   2.546   2.621   4.342 -0.7816 -0.1291  0.0416
 9627TIP3   OH250295   1.376   5.597  14.588 -0.5239  0.3253 -0.1718
 9627TIP3    H150296   1.399   5.571  14.499 -1.1568  0.6124 -0.4188
 9627TIP3    H250297   1.349   5.689  14.580 -0.5035  0.3772  0.3278
 9628TIP3   OH250298   3.418   2.676  15.532 -0.6692 -0.1592  0.3393
 9628TIP3    H150299   3.346   2.651  15.589  0.2028 -0.0549  1.4950
 9628TIP3    H250300   3.494   2.630  15.568  0.3011  1.5657  0.5154
 9629TIP3   OH250301   4.906   4.312  17.141 -0.0129 -0.5693  0.2941
 9629TIP3    H150302   4.970   4.368  17.185  1.2653 -2.0435  0.3358
 9629TIP3    H250303   4.833   4.308  17.203  0.5018 -0.1707  0.9434
 9630TIP3   OH250304   4.862   0.301  16.111 -0.0969 -0.3890  0.2054
 9630TIP3    H150305   4.889   0.392  16.102  0.5394 -0.5834  0.0719
 9630TIP3    H250306   4.864   0.285  16.205  2.6769 -1.0905  0.0793
 9631TIP3   OH250307   2.767   4.518  12.504  0.4668  0.3571  0.2638
 9631TIP3    H150308   2.706   4.484  12.439 -1.5816 -1.5644  3.1060
 9631TIP3    H250309   2.838   4.556  12.452 -1.5340 -0.2644 -3.0802
 9632TIP3   OH250310   5.189   3.285   0.757  0.3734 -0.0378 -0.5852
 9632TIP3    H150311   5.267   3.257   0.710  1.6937 -1.7847  2.4494
 9632TIP3    H250312   5.220   3.352   0.818 -0.8851  0.6835 -0.7072
 9633TIP3   OH250313   3.744   1.043  13.535 -0.0095 -0.6691 -0.0817
 9633TIP3    H150314   3.750   0.948  13.546 -0.3509 -0.3984  2.6482
 9633TIP3    H250315   3.698   1.054  13.452  0.2866 -2.8828 -0.5819
 9634TIP3   OH250316   2.575   1.570   0.012 -0.0857  0.1926 -0.1473
 9634TIP3    H150317   2.484   1.543   0.002 -0.2975  0.1708  1.6499
 9634TIP3    H250318   2.597   1.614  -0.070 -2.0120  1.0855 -0.1907
 9635TIP3   OH250319   3.286   3.591  14.048  0.8552 -0.4869  0.4052
 9635TIP3    H150320   3.312   3.623  13.962 -0.3475  1.1980  0.6416
 9635TIP3    H250321   3.242   3.666  14.089  2.9563 -0.7148  3.1705
 9636TIP3   OH250322   2.671   4.506  13.680  0.4129  0.2236 -0.1019
 9636TIP3    H150323   2.755   4.551  13.690  0.7268  0.1106 -2.1171
 9636TIP3    H250324   2.633   4.507  13.768  1.5766  2.1506  0.4136
 9637TIP3   OH250325   2.545   3.993   1.195 -0.1447  0.0526 -0.4791
 9637TIP3    H150326   2.596   3.957   1.122 -1.0534 -1.1597 -0.5292
 9637TIP3    H250327   2.562   3.934   1.268 -1.6876 -0.5069 -0.5686
 9638TIP3   OH250328   5.956   2.555   0.515  0.2699 -0.5759  0.2989
 9638TIP3    H150329   5.977   2.478   0.462  1.8216  0.1442 -0.1830
 9638TIP3    H250330   5.868   2.580   0.487  0.8618 -0.5166 -1.5724
 9639TIP3   OH250331   5.849   4.392  12.349  0.3241 -0.2125 -0.4299
 9639TIP3    H150332   5.859   4.300  12.373 -0.3966 -0.4046 -0.8323
 9639TIP3    H250333   5.909   4.405  12.276  0.0504 -0.5039 -0.7108
 9640TIP3   OH250334   0.258   2.521  13.540 -0.2426  0.2756  0.6816
 9640TIP3    H150335   0.229   2.435  13.570 -2.5927  1.4013  1.7868
 9640TIP3    H250336   0.350   2.525  13.566 -0.1656 -1.8041  0.8431
 9641TIP3   OH250337   4.231   6.638   2.227 -0.0361  0.4138 -0.0610
 9641TIP3    H150338   4.302   6.586   2.189  1.2590  1.0995  1.3878
 9641TIP3    H250339   4.274   6.699   2.286 -1.9543 -0.1967  2.0574
 9642TIP3   OH250340   6.787   0.793   4.758  0.4610 -0.0629 -0.0886
 9642TIP3    H150341   6.757   0.843   4.835 -0.8771 -1.8334  0.5706
 9642TIP3    H250342   6.795   0.859   4.689 -1.8172  1.0027  0.6169
 9643TIP3   OH250343   4.870   2.266  15.520 -0.1356 -0.3098  0.0298
 9643TIP3    H150344   4.831   2.342  15.563  0.0364 -0.5649  0.6373
 9643TIP3    H250345   4.920   2.302  15.447 -0.9573  0.0736 -0.3535
 9644TIP3   OH250346   3.207   5.793  13.603  0.0482 -0.2701  0.1865
 9644TIP3    H150347   3.201   5.762  13.512  1.5062  0.4119 -0.1520
 9644TIP3    H250348   3.235   5.716  13.652  1.6175 -0.0392 -0.3285
 9645TIP3   OH250349   5.999   3.785   2.960  0.3192  0.4908 -0.6822
 9645TIP3    H150350   6.094   3.797   2.966 -0.0428  2.5983  1.4119
 9645TIP3    H250351   5.975   3.741   3.041 -0.3997 -1.0605 -1.6964
 9646TIP3   OH250352   6.038   1.165   4.921  0.0750 -0.3959  0.0398
 9646TIP3    H150353   6.083   1.231   4.869 -0.2615 -0.9217 -0.9371
 9646TIP3    H250354   6.019   1.094   4.859 -0.4536 -0.9735  0.8454
 9647TIP3   OH250355   1.495   4.002   3.847  0.2043  0.2423 -0.3445
 9647TIP3    H150356   1.487   4.075   3.786  0.8698 -0.2560 -1.0393
 9647TIP3    H250357   1.404   3.976   3.865 -0.0361  1.3354  0.0304
 9648TIP3   OH250358   5.359   5.339  11.492  0.2161  0.1746 -0.2341
 9648TIP3    H150359   5.380   5.432  11.483 -1.6004  0.6127  0.0306
 9648TIP3    H250360   5.301   5.334  11.568  0.7286 -1.2484  0.0757
 9649TIP3   OH250361   5.330   2.026  11.502  0.4477 -0.5563  0.4258
 9649TIP3    H150362   5.331   1.989  11.590  0.4401 -1.0085  0.2399
 9649TIP3    H250363   5.246   1.998  11.466 -0.0257  0.5470  0.6600
 9650TIP3   OH250364   6.545   5.149  14.248 -0.2157  0.0452  0.0123
 9650TIP3    H150365   6.454   5.170  14.227 -0.3805  0.0891  0.7444
 9650TIP3    H250366   6.581   5.232  14.281  0.6972  0.5904 -2.2616
 9651TIP3   OH250367   0.269   0.218   1.568 -0.1970 -0.0436 -0.2825
 9651TIP3    H150368   0.188   0.226   1.617 -0.7279  1.2779 -1.3092
 9651TIP3    H250369   0.338   0.214   1.634 -1.0664 -0.6279  0.5847
 9652TIP3   OH250370   5.636   0.582   0.946 -0.5851 -0.2441  0.6574
 9652TIP3    H150371   5.618   0.595   0.853  0.1330  0.3615  0.5908
 9652TIP3    H250372   5.617   0.667   0.985 -0.2167 -0.3005  0.9537
 9653TIP3   OH250373   6.221   2.378   3.155 -0.2829  0.1447 -0.1196
 9653TIP3    H150374   6.139   2.400   3.198 -0.1342  2.0621 -0.8097
 9653TIP3    H250375   6.196   2.354   3.066  0.0048  1.6925 -0.6214
 9654TIP3   OH250376   6.534   1.175   4.325 -0.1636 -0.5176 -0.4258
 9654TIP3    H150377   6.584   1.095   4.310 -1.3014 -1.4525  0.6334
 9654TIP3    H250378   6.540   1.223   4.243  0.4768 -1.7119 -1.0926
 9655TIP3   OH250379   6.037   0.222   2.649 -0.3118 -0.0276 -0.1184
 9655TIP3    H150380   6.013   0.249   2.561 -2.3339  2.3888  1.1077
 9655TIP3    H250381   5.954   0.209   2.694  0.6892 -0.8410  1.5573
 9656TIP3   OH250382   2.377   1.089   3.092  0.3672 -0.6427  0.0490
 9656TIP3    H150383   2.306   1.038   3.131  0.2633  0.1840  0.9537
 9656TIP3    H250384   2.446   1.025   3.075  0.3963 -1.0321  1.5720
 9657TIP3   OH250385   0.518   5.861   3.319  0.3205 -0.4878  0.9954
 9657TIP3    H150386   0.575   5.786   3.334  1.0195  0.0916  1.2240
 9657TIP3    H250387   0.510   5.867   3.224  0.5650 -0.6181  0.9679
 9658TIP3   OH250388   0.057   6.442   5.262 -0.4266 -0.0368  0.0083
 9658TIP3    H150389   0.109   6.369   5.296 -0.8152 -0.4011 -0.1881
 9658TIP3    H250390  -0.008   6.459   5.330  1.0527  1.5733  1.0506
 9659TIP3   OH250391   5.304   2.800   1.739  0.2143 -0.1082 -0.3576
 9659TIP3    H150392   5.252   2.880   1.731  0.1502 -0.2338 -1.3076
 9659TIP3    H250393   5.272   2.744   1.668 -0.5078 -1.4243  0.9807
 9660TIP3   OH250394   2.871   6.296   0.811 -0.5178 -0.1863  0.2270
 9660TIP3    H150395   2.932   6.370   0.817 -3.1239  2.0789 -0.7843
 9660TIP3    H250396   2.883   6.262   0.723  0.2401 -0.6053  0.4862
 9661TIP3   OH250397   0.341   4.356  16.077 -0.4852 -0.9410 -1.0598
 9661TIP3    H150398   0.422   4.317  16.109 -1.0135  0.9841  2.9229
 9661TIP3    H250399   0.366   4.444  16.050 -1.0566 -0.6923 -0.7840
 9662TIP3   OH250400   4.803   4.069  15.568 -0.3189  0.0050  0.5738
 9662TIP3    H150401   4.819   4.020  15.488 -2.7562 -0.5955  0.4160
 9662TIP3    H250402   4.836   4.156  15.550 -0.8894 -0.1064 -1.1313
 9663TIP3   OH250403   5.218   2.921  12.079 -0.3066 -1.1775 -0.5058
 9663TIP3    H150404   5.148   2.934  12.144  0.0044 -0.5907 -0.2884
 9663TIP3    H250405   5.171   2.894  12.000 -0.7051 -1.6907 -0.1064
 9664TIP3   OH250406   3.978   6.776   4.123 -0.1185  0.4246 -0.3953
 9664TIP3    H150407   3.968   6.689   4.161  0.4137  0.4000 -0.3018
 9664TIP3    H250408   4.052   6.814   4.170 -0.2269  0.8522 -0.5725
 9665TIP3   OH250409   0.117   1.809  14.131 -0.2533  0.3722 -0.2833
 9665TIP3    H150410   0.057   1.757  14.078 -0.7389 -0.1920  0.7897
 9665TIP3    H250411   0.074   1.816  14.216  1.8129 -1.2280  0.9386
 9666TIP3   OH250412   4.443   3.367   3.326 -0.2001 -0.5573 -0.2345
 9666TIP3    H150413   4.503   3.401   3.259 -1.4034  2.9767  0.4100
 9666TIP3    H250414   4.387   3.306   3.278  1.9453 -1.6611 -1.4441
 9667TIP3   OH250415   4.409   4.977   5.629  0.5648 -0.8891  0.2812
 9667TIP3    H150416   4.396   5.069   5.603 -2.4859 -1.7610 -1.4477
 9667TIP3    H250417   4.440   4.982   5.720 -1.4777  1.7897  0.8824
 9668TIP3   OH250418   6.738   5.198   3.704  0.2964 -0.5162  0.1871
 9668TIP3    H150419   6.746   5.291   3.726  2.0757 -0.6663  0.2822
 9668TIP3    H250420   6.706   5.157   3.785  0.1431 -0.0842  0.3478
 9669TIP3   OH250421   0.704   0.525  13.051 -0.4715 -0.0777 -0.0956
 9669TIP3    H150422   0.698   0.434  13.079 -1.2697 -0.1900 -0.6079
 9669TIP3    H250423   0.763   0.566  13.114  0.7248 -1.1834 -0.4872
 9670TIP3   OH250424   4.512   3.440  14.199  0.4569  0.1233  0.4642
 9670TIP3    H150425   4.562   3.496  14.140  0.3993 -0.2223  0.0864
 9670TIP3    H250426   4.421   3.461  14.181  0.4182 -0.4689 -0.0557
 9671TIP3   OH250427   1.715   2.433  16.116  0.1444  0.5506 -0.4164
 9671TIP3    H150428   1.676   2.377  16.050 -1.6997  1.8195 -0.4429
 9671TIP3    H250429   1.751   2.507  16.067  0.3861  0.6114 -0.1538
 9672TIP3   OH250430   2.251   1.805  15.461 -0.0015  0.2657 -0.1629
 9672TIP3    H150431   2.305   1.883  15.453 -3.0024  2.4298  0.0260
 9672TIP3    H250432   2.182   1.816  15.395 -1.4367 -1.3822  1.0121
 9673TIP3   OH250433   5.262   5.181   5.798  0.2661  0.5734 -0.3318
 9673TIP3    H150434   5.248   5.087   5.812  1.6520  0.6292  1.6165
 9673TIP3    H250435   5.210   5.223   5.867  1.6408  1.1319  0.3820
 9674TIP3   OH250436   3.160   4.769   0.821  0.1666  0.0625 -0.5063
 9674TIP3    H150437   3.188   4.712   0.750  3.1809 -0.6255  1.1648
 9674TIP3    H250438   3.117   4.711   0.884  2.3938 -0.2876  0.7496
 9675TIP3   OH250439   0.317   6.415   1.075 -0.1261 -0.1573 -0.0389
 9675TIP3    H150440   0.299   6.449   1.163  2.3121  0.1442  0.3688
 9675TIP3    H250441   0.375   6.480   1.036 -1.2508 -0.2537 -1.9282
 9676TIP3   OH250442   5.424   2.329  11.090  0.3024 -0.1230 -0.2382
 9676TIP3    H150443   5.345   2.343  11.038  0.0168 -1.6150 -0.2322
 9676TIP3    H250444   5.495   2.329  11.025  0.0610 -0.8775 -0.5157
 9677TIP3   OH250445   3.827   1.978   5.033 -0.4698  0.0828  0.0301
 9677TIP3    H150446   3.769   2.000   4.960  0.9062 -0.8002 -1.3657
 9677TIP3    H250447   3.912   1.959   4.991  0.4467 -0.0425  1.8950
 9678TIP3   OH250448   4.470   6.360  11.641  0.5770  0.3493 -0.3548
 9678TIP3    H150449   4.498   6.344  11.731  0.7725  0.7886 -0.3341
 9678TIP3    H250450   4.458   6.273  11.603  0.7044  0.1634  0.0299
 9679TIP3   OH250451   4.277   6.442   6.185 -0.3936  0.3604 -0.2040
 9679TIP3    H150452   4.221   6.483   6.118 -1.2425  0.1023  0.3304
 9679TIP3    H250453   4.245   6.478   6.268 -0.0757 -0.1553  0.1460
 9680TIP3   OH250454   2.366   6.700   3.088 -0.7921  0.0288  0.6610
 9680TIP3    H150455   2.413   6.622   3.117  0.1010 -0.3447 -1.6143
 9680TIP3    H250456   2.276   6.670   3.072 -0.3968 -0.6381 -0.4410
 9681TIP3   OH250457   5.870   1.525   3.650 -0.1118 -0.6414  0.0054
 9681TIP3    H150458   5.857   1.613   3.685 -0.6373 -0.9130  0.5178
 9681TIP3    H250459   5.947   1.532   3.594 -0.5999  0.3129 -0.5609
 9682TIP3   OH250460   0.607   6.368  14.106  0.6629 -0.2537  0.0625
 9682TIP3    H150461   0.602   6.319  14.188  2.1124 -2.4389 -1.1054
 9682TIP3    H250462   0.521   6.410  14.097  0.4320 -0.1487  2.5705
 9683TIP3   OH250463   4.873   4.231  12.524 -1.0269 -0.1877  0.1365
 9683TIP3    H150464   4.953   4.266  12.564 -1.1388  1.0984 -0.7015
 9683TIP3    H250465   4.878   4.137  12.537  0.2835 -0.0444  0.7290
 9684TIP3   OH250466   0.817   4.428   2.175 -0.7312  0.1695 -0.3727
 9684TIP3    H150467   0.814   4.334   2.191 -0.7968  0.1787 -0.3285
 9684TIP3    H250468   0.887   4.460   2.232  0.0309 -0.0085 -1.1902
 9685TIP3   OH250469   6.623   5.066  11.359 -0.0763  0.0571 -0.0325
 9685TIP3    H150470   6.570   5.039  11.283 -1.3426  0.8755  0.5386
 9685TIP3    H250471   6.671   4.987  11.384  0.5356 -0.1654 -1.8198
 9686TIP3   OH250472   2.502   2.889  15.587  0.3227  0.2687 -0.1043
 9686TIP3    H150473   2.459   2.805  15.567  0.4122  0.3500 -0.6564
 9686TIP3    H250474   2.507   2.891  15.683 -2.6411  1.1405  0.0785
 9687TIP3   OH250475   4.628   6.196  13.474 -0.1716  0.5135  0.8589
 9687TIP3    H150476   4.610   6.290  13.480  0.9867  0.8514 -0.8529
 9687TIP3    H250477   4.699   6.182  13.537  1.3436  1.2488 -0.6533
 9688TIP3   OH250478   6.548   6.182   2.821  0.0221 -0.2679  0.6374
 9688TIP3    H150479   6.619   6.176   2.884 -1.0038 -2.2211  1.6650
 9688TIP3    H250480   6.577   6.128   2.747 -0.7855 -1.8624  1.4692
 9689TIP3   OH250481   0.855   6.723  10.731 -0.0689 -0.1557 -0.0891
 9689TIP3    H150482   0.817   6.794  10.679  2.4840  0.1306 -1.6416
 9689TIP3    H250483   0.792   6.651  10.723 -1.9977  1.4416  0.3370
 9690TIP3   OH250484   2.086   0.877  12.972 -0.0870 -0.6977 -0.4593
 9690TIP3    H150485   1.995   0.860  12.994 -0.0471 -0.4318 -0.0993
 9690TIP3    H250486   2.136   0.817  13.028  0.1306  1.6383  1.8988
 9691TIP3   OH250487   0.829   1.021   3.616  0.4723  0.0732  0.3014
 9691TIP3    H150488   0.778   1.001   3.538  1.2242 -0.1058 -0.1522
 9691TIP3    H250489   0.917   0.987   3.596  0.3271 -1.2466  1.7720
 9692TIP3   OH250490   1.808   2.830  14.198  0.5047  0.1146 -0.4154
 9692TIP3    H150491   1.853   2.914  14.188  1.2558 -0.0185  1.6442
 9692TIP3    H250492   1.732   2.849  14.252 -0.3516 -0.1992 -1.4908
 9693TIP3   OH250493   2.564   5.263  15.642  0.0449  0.2067 -0.2070
 9693TIP3    H150494   2.484   5.221  15.611 -0.5663  1.7506 -0.7304
 9693TIP3    H250495   2.633   5.200  15.621 -1.2312 -2.0280  2.0700
 9694TIP3   OH250496   5.424   4.961   3.992  0.4815 -0.5054 -0.6030
 9694TIP3    H150497   5.473   5.043   4.002 -2.6263  1.4101 -0.5409
 9694TIP3    H250498   5.430   4.940   3.899 -0.9624  1.2853 -1.1227
 9695TIP3   OH250499   4.206   5.683   3.444  0.1404 -1.1382 -0.1106
 9695TIP3    H150500   4.263   5.756   3.417 -0.5201 -0.2690  0.8281
 9695TIP3    H250501   4.121   5.723   3.459 -0.4947 -2.2930 -0.6044
 9696TIP3   OH250502   3.278   1.948   5.393  0.1649  0.0858  0.0505
 9696TIP3    H150503   3.226   1.903   5.326 -0.6295 -0.1106  0.7849
 9696TIP3    H250504   3.313   2.025   5.348 -0.3173 -0.0680 -0.6069
 9697TIP3   OH250505   5.023   1.755  14.681  0.6800 -0.0858  0.6876
 9697TIP3    H150506   4.995   1.720  14.597  0.5766 -0.9358  1.0617
 9697TIP3    H250507   4.995   1.846  14.680  0.9574 -0.0076 -0.3197
 9698TIP3   OH250508   2.628   4.980  12.932 -0.1426 -0.0654  0.2531
 9698TIP3    H150509   2.699   5.026  12.886 -0.5078 -0.3300 -0.5937
 9698TIP3    H250510   2.673   4.918  12.989  0.3255 -1.9077 -2.0133
 9699TIP3   OH250511   1.986   1.642   5.606  0.8249 -0.3436  0.2967
 9699TIP3    H150512   2.009   1.663   5.696  0.2640  1.9800 -0.0832
 9699TIP3    H250513   2.021   1.553   5.592  0.4376 -0.9383  2.9401
 9700TIP3   OH250514   1.503   5.159   4.668 -0.0655 -0.0995 -0.5001
 9700TIP3    H150515   1.435   5.143   4.733 -0.5601  0.3753 -0.8890
 9700TIP3    H250516   1.527   5.251   4.681  2.5692 -1.0556  1.5605
 9701TIP3   OH250517   3.514   0.236   1.524  0.3342  0.3541  0.0014
 9701TIP3    H150518   3.474   0.223   1.438 -0.7985 -0.9029  0.6953
 9701TIP3    H250519   3.588   0.176   1.526 -0.0283 -0.0915  0.1423
 9702TIP3   OH250520   1.550   3.518  16.919 -0.5354  0.2507 -0.1484
 9702TIP3    H150521   1.627   3.552  16.964  0.7955 -2.3275 -0.4481
 9702TIP3    H250522   1.487   3.500  16.989 -0.5320  1.3923  0.1713
 9703TIP3   OH250523   3.278   2.931  15.309  0.5625 -0.0269  0.3641
 9703TIP3    H150524   3.210   2.869  15.335 -1.5084  1.6629 -0.8837
 9703TIP3    H250525   3.317   2.893  15.231 -1.5389  0.7428 -1.1239
 9704TIP3   OH250526   0.806   0.376   3.463  0.0562  0.4975 -0.0183
 9704TIP3    H150527   0.727   0.324   3.455  0.2667  0.3386 -1.0407
 9704TIP3    H250528   0.820   0.383   3.558 -1.0603  0.3642  0.1615
 9705TIP3   OH250529   3.402   3.650   4.410  0.2521  0.1767  0.6588
 9705TIP3    H150530   3.392   3.556   4.395 -0.6077  0.0237  2.1296
 9705TIP3    H250531   3.456   3.680   4.336 -1.3697 -1.0520 -1.0938
 9706TIP3   OH250532   3.290   6.089  16.141  0.2049  0.9236  0.4307
 9706TIP3    H150533   3.279   6.122  16.231 -0.2385 -0.1422  0.7803
 9706TIP3    H250534   3.305   5.995  16.152  1.2534  0.9672 -0.5582
 9707TIP3   OH250535   4.825   0.327  13.221  0.1203  0.0354 -0.0402
 9707TIP3    H150536   4.824   0.396  13.156  2.0846  0.1193  0.0046
 9707TIP3    H250537   4.901   0.273  13.199 -0.0649 -0.8053  1.2657
 9708TIP3   OH250538   0.481   4.938  15.525  0.3306 -0.1168  0.0446
 9708TIP3    H150539   0.525   4.946  15.440  0.8388 -0.1755  0.3048
 9708TIP3    H250540   0.400   4.890  15.505 -0.9035  2.2781 -0.8826
 9709TIP3   OH250541   4.305   1.075   2.479 -0.4514 -0.3964  0.3296
 9709TIP3    H150542   4.307   1.017   2.403 -1.4436  1.0923 -0.8554
 9709TIP3    H250543   4.232   1.135   2.462 -0.9600 -0.3162  2.6689
 9710TIP3   OH250544   4.520   5.296  14.838 -0.1180  0.5941 -0.1374
 9710TIP3    H150545   4.484   5.210  14.817  1.0973 -1.0202  3.8212
 9710TIP3    H250546   4.445   5.347  14.867 -0.7364  0.6876 -1.8194
 9711TIP3   OH250547   1.712   2.149   2.725  0.3925 -0.4174 -0.2699
 9711TIP3    H150548   1.634   2.124   2.774 -0.4144  1.0137 -0.7948
 9711TIP3    H250549   1.774   2.078   2.740 -1.1218 -1.7202 -0.0937
 9712TIP3   OH250550   2.343   6.139  11.384  0.3576 -0.5954  0.0246
 9712TIP3    H150551   2.421   6.182  11.348  0.9203 -0.0935  1.7925
 9712TIP3    H250552   2.282   6.135  11.310  1.3282  0.7635 -0.8802
 9713TIP3   OH250553   0.393   0.761  12.844 -0.4108  0.0325 -0.1114
 9713TIP3    H150554   0.404   0.856  12.850  0.2865 -0.0439 -0.1296
 9713TIP3    H250555   0.303   0.749  12.815 -1.1854  0.6288  1.9741
 9714TIP3   OH250556   2.461   2.840  16.988 -0.1890 -0.0563 -0.2439
 9714TIP3    H150557   2.524   2.795  16.931  0.7621 -0.2898  0.9446
 9714TIP3    H250558   2.375   2.813  16.956  0.3616 -1.9255 -0.1831
 9715TIP3   OH250559   4.144   1.260  16.674  0.1426  0.3741  0.9002
 9715TIP3    H150560   4.053   1.253  16.703 -0.0937 -1.8341 -0.2783
 9715TIP3    H250561   4.165   1.173  16.641  2.5388  1.0047  0.6934
 9716TIP3   OH250562   3.080   3.514   0.406 -0.0570 -0.3441  0.2382
 9716TIP3    H150563   3.063   3.519   0.500  1.3416  1.0131  0.4296
 9716TIP3    H250564   3.160   3.463   0.399 -0.5924 -1.1348 -0.2820
 9717TIP3   OH250565   1.966   3.567   3.609 -0.1750  0.0447 -0.1480
 9717TIP3    H150566   1.971   3.661   3.593  0.7845 -0.0958 -0.7016
 9717TIP3    H250567   2.018   3.554   3.688  0.9161 -0.2152 -0.9006
 9718TIP3   OH250568   4.189   4.032   2.160  0.0930  0.3315 -0.4599
 9718TIP3    H150569   4.273   4.009   2.119 -0.5053 -1.0943 -0.9120
 9718TIP3    H250570   4.213   4.064   2.247  0.9888 -1.9136  0.1387
 9719TIP3   OH250571   4.939   0.830   6.025  0.4883 -0.1087 -0.7596
 9719TIP3    H150572   4.884   0.810   6.101  3.4664  0.6878  1.7166
 9719TIP3    H250573   4.971   0.745   5.995 -0.3570 -0.3921 -0.8745
 9720TIP3   OH250574   0.822   4.321   1.479 -0.1704  0.4710 -0.0715
 9720TIP3    H150575   0.802   4.240   1.526 -1.0167  1.3706  1.1433
 9720TIP3    H250576   0.736   4.359   1.460  0.1836  0.4925 -1.7149
 9721TIP3   OH250577   3.502   5.124   2.395 -0.4198 -0.0050 -0.4681
 9721TIP3    H150578   3.448   5.086   2.325 -0.7984 -0.0689 -0.1413
 9721TIP3    H250579   3.485   5.069   2.471  0.2826 -0.1621 -0.4202
 9722TIP3   OH250580   3.408   5.304  14.492 -0.0255  0.1235  0.5905
 9722TIP3    H150581   3.416   5.211  14.468  3.8443  0.5249  0.0103
 9722TIP3    H250582   3.397   5.303  14.587 -0.5853 -0.9302  0.5250
 9723TIP3   OH250583   3.134   4.643   3.915 -0.4978 -0.2733  0.2142
 9723TIP3    H150584   3.147   4.734   3.888 -3.5907  0.6846  1.7795
 9723TIP3    H250585   3.087   4.603   3.842 -1.1639  0.0186  0.4756
 9724TIP3   OH250586   4.701   0.845  15.340 -0.3336  0.4158 -0.2447
 9724TIP3    H150587   4.783   0.818  15.299  0.1576  0.1871  0.8716
 9724TIP3    H250588   4.719   0.842  15.434 -1.7889 -0.2206  0.0319
 9725TIP3   OH250589   6.082   1.685   1.435 -0.5443  0.2990 -0.0741
 9725TIP3    H150590   6.031   1.656   1.510  0.4750 -0.5722  0.2997
 9725TIP3    H250591   6.078   1.612   1.374  0.4350  0.1381  0.0524
 9726TIP3   OH250592   2.731   3.229   0.626  0.2184 -0.1990 -0.5003
 9726TIP3    H150593   2.784   3.165   0.578 -1.2418 -1.4741 -0.4704
 9726TIP3    H250594   2.645   3.223   0.585 -0.6479 -0.2162  1.2867
 9727TIP3   OH250595   4.919   6.535  14.397  0.1758 -0.2773  0.1747
 9727TIP3    H150596   4.995   6.498  14.443  0.5316  0.1223 -0.0881
 9727TIP3    H250597   4.848   6.530  14.461  0.6555  0.2179  0.7585
 9728TIP3   OH250598   5.880   4.434   0.908 -0.3349  0.2350  0.1618
 9728TIP3    H150599   5.847   4.524   0.913  3.2223  1.7057 -0.8644
 9728TIP3    H250600   5.882   4.415   0.814  1.5241  0.1674  0.1914
 9729TIP3   OH250601   0.470   5.919   3.033  0.0199 -0.1380 -0.6600
 9729TIP3    H150602   0.420   5.885   2.959 -0.5966  0.0227 -0.3218
 9729TIP3    H250603   0.434   6.006   3.049  1.1520  0.4210 -1.1034
 9730TIP3   OH250604   0.347   4.794   2.001 -0.7287  0.2975  0.0719
 9730TIP3    H150605   0.431   4.748   2.000 -1.3746 -0.8707  0.0492
 9730TIP3    H250606   0.347   4.844   1.919 -0.8958 -1.2045 -0.8533
 9731TIP3   OH250607   5.579   1.129  13.866 -0.0821 -0.3215 -0.0084
 9731TIP3    H150608   5.512   1.175  13.816 -0.5542  1.4100  2.1669
 9731TIP3    H250609   5.618   1.068  13.803 -2.0689  0.3200 -1.9173
 9732TIP3   OH250610   2.171   3.258  16.039  0.1423  0.8093  0.5196
 9732TIP3    H150611   2.261   3.233  16.060  0.7659  1.4234 -1.3107
 9732TIP3    H250612   2.162   3.346  16.074 -0.0034  0.4543  1.3879
 9733TIP3   OH250613   0.544   6.787   6.207 -0.9093 -0.5389 -0.3415
 9733TIP3    H150614   0.518   6.706   6.252 -2.2565  0.9756  1.7199
 9733TIP3    H250615   0.467   6.811   6.155 -1.3919  0.6000  0.8539
 9734TIP3   OH250616   2.700   6.050   5.600 -0.4840 -0.3845  0.0056
 9734TIP3    H150617   2.679   6.142   5.617  0.4307 -0.4650  1.6582
 9734TIP3    H250618   2.784   6.036   5.644  1.3419 -1.0152 -3.4259
 9735TIP3   OH250619   5.756   3.486   0.994 -0.2364 -0.0072  0.5350
 9735TIP3    H150620   5.772   3.524   1.080  0.2000  0.7712  0.1099
 9735TIP3    H250621   5.678   3.532   0.961 -0.2187 -0.0830  0.3841
 9736TIP3   OH250622   4.664   0.380   4.998  0.5826  0.1431  0.5222
 9736TIP3    H150623   4.755   0.355   4.982  0.0845 -1.5949  0.2587
 9736TIP3    H250624   4.662   0.406   5.090  1.3798  0.3859  0.4787
 9737TIP3   OH250625   3.267   6.156   5.087  0.1488  0.4991  0.7816
 9737TIP3    H150626   3.242   6.078   5.037 -0.2402  1.5978 -0.7346
 9737TIP3    H250627   3.221   6.146   5.170 -0.1750 -0.7094  0.4726
 9738TIP3   OH250628   5.269   0.041  11.643 -0.4140  0.3897  0.4278
 9738TIP3    H150629   5.277  -0.029  11.708 -0.1409 -1.4308 -1.5070
 9738TIP3    H250630   5.184   0.081  11.662 -0.4923 -0.3414  1.6883
 9739TIP3   OH250631   2.378   5.557   3.117  0.4833 -0.6672 -0.1983
 9739TIP3    H150632   2.359   5.614   3.043  1.0641 -1.5954 -1.0701
 9739TIP3    H250633   2.391   5.618   3.191  2.6689  0.4469 -1.4418
 9740TIP3   OH250634   2.975   0.355   0.198 -0.3366 -0.2103 -0.5277
 9740TIP3    H150635   3.027   0.277   0.180 -2.4932 -2.0215  0.8718
 9740TIP3    H250636   2.982   0.367   0.293 -1.9714 -0.1553 -0.4042
 9741TIP3   OH250637   6.067   4.660  16.067  0.0197 -0.0983 -0.3006
 9741TIP3    H150638   6.096   4.600  16.136 -0.4251  0.8073  0.6926
 9741TIP3    H250639   6.094   4.747  16.098 -0.1438  0.3157 -1.2914
 9742TIP3   OH250640   5.968   5.452  10.771 -0.0417 -0.2043  0.0655
 9742TIP3    H150641   5.901   5.434  10.836 -0.6082  0.3391 -0.3632
 9742TIP3    H250642   5.956   5.545  10.749 -0.4559 -0.6297 -1.5075
 9743TIP3   OH250643   5.409   4.293  11.524  0.3726 -0.2936 -0.7236
 9743TIP3    H150644   5.322   4.254  11.510 -0.0781 -1.5082  4.5625
 9743TIP3    H250645   5.403   4.380  11.484 -3.0120 -0.6716 -1.1874
 9744TIP3   OH250646   4.375   1.752  16.480  0.3115 -0.2872  0.5060
 9744TIP3    H150647   4.363   1.800  16.563 -1.9094  0.8174 -0.4020
 9744TIP3    H250648   4.399   1.819  16.417  0.8115 -0.9557 -0.0177
 9745TIP3   OH250649   4.067   5.074  12.366  0.1914 -0.3371  0.0818
 9745TIP3    H150650   4.134   5.020  12.322 -0.8422 -1.9386  0.4188
 9745TIP3    H250651   3.989   5.019  12.365 -0.4590  0.5283  1.8955
 9746TIP3   OH250652   0.292   3.420  16.708  0.2994 -0.2206  0.3666
 9746TIP3    H150653   0.307   3.331  16.676 -1.7040 -0.1696 -0.7709
 9746TIP3    H250654   0.327   3.476  16.639 -2.4196 -0.1267 -1.0107
 9747TIP3   OH250655   6.643   1.255  14.722 -0.5864  0.5026  0.0058
 9747TIP3    H150656   6.651   1.344  14.755  0.3909  0.7154 -0.7661
 9747TIP3    H250657   6.569   1.218  14.769 -0.1285  1.2684  1.3557
 9748TIP3   OH250658   5.951   4.138  13.441  0.7780  0.5640  0.2461
 9748TIP3    H150659   6.033   4.092  13.457 -0.3516 -1.3199  0.7137
 9748TIP3    H250660   5.907   4.139  13.526  0.8613  2.6844  0.2845
 9749TIP3   OH250661   1.781   3.021  15.248 -0.0997  0.3540  0.1459
 9749TIP3    H150662   1.700   3.058  15.214 -0.5631 -0.6436  0.1459
 9749TIP3    H250663   1.755   2.939  15.290  0.7028  0.7526  1.4450
 9750TIP3   OH250664   1.380   2.824  16.615 -0.0730 -0.3067 -0.1228
 9750TIP3    H150665   1.317   2.772  16.565 -0.3181 -0.9214  0.7991
 9750TIP3    H250666   1.335   2.844  16.697  0.2334  0.8915 -0.2378
 9751TIP3   OH250667   5.572   5.325  16.717 -0.2890  0.5644 -0.1608
 9751TIP3    H150668   5.588   5.408  16.672 -1.1301  0.2371 -1.0651
 9751TIP3    H250669   5.509   5.346  16.786  0.3241  0.8866  0.3093
 9752TIP3   OH250670   4.886   2.993  14.309 -0.1659 -0.2672  0.5908
 9752TIP3    H150671   4.937   2.913  14.323  1.3472  0.4290 -0.6662
 9752TIP3    H250672   4.952   3.059  14.285 -1.6110  0.7836 -0.6147
 9753TIP3   OH250673   1.338   1.599   0.373 -0.4496 -0.4754 -0.3483
 9753TIP3    H150674   1.371   1.613   0.462 -1.1930 -1.5157  0.0953
 9753TIP3    H250675   1.295   1.681   0.350  0.1334 -0.0478  0.0854
 9754TIP3   OH250676   3.689   3.112   2.140  0.4859 -0.1259  0.8355
 9754TIP3    H150677   3.776   3.086   2.171  1.4410  0.2019 -1.5010
 9754TIP3    H250678   3.632   3.040   2.166  1.2239  0.1474  3.3612
 9755TIP3   OH250679   5.022   4.164  16.919  0.1077  0.2487 -0.4107
 9755TIP3    H150680   4.991   4.200  17.002  2.0379 -1.5822  1.1595
 9755TIP3    H250681   5.011   4.235  16.856 -1.2126  1.7291  1.4521
 9756TIP3   OH250682   2.073   3.423  16.775 -0.0332 -0.3742 -0.3370
 9756TIP3    H150683   2.118   3.508  16.773 -0.0137 -0.3732  0.1760
 9756TIP3    H250684   2.142   3.359  16.792 -0.3091 -0.3089  1.0995
 9757TIP3   OH250685   1.046   2.256  15.667 -0.0869  0.1972 -0.2489
 9757TIP3    H150686   1.038   2.270  15.761  0.9300  0.5928 -0.2172
 9757TIP3    H250687   0.955   2.251  15.636 -0.4447  1.7326  0.4958
 9758TIP3   OH250688   1.006   2.673   2.614 -0.3794 -0.4229  0.0699
 9758TIP3    H150689   0.942   2.690   2.684  1.1122  0.1886  1.3239
 9758TIP3    H250690   1.012   2.755   2.566 -0.7946 -0.5884 -0.2653
 9759TIP3   OH250691   5.437   0.693   1.378  0.6178 -0.4455  0.6162
 9759TIP3    H150692   5.364   0.674   1.319 -0.7416  1.0532  1.7877
 9759TIP3    H250693   5.402   0.756   1.440  2.8981  0.2427  1.2479
 9760TIP3   OH250694   3.429   3.098   3.248 -0.0349 -0.0189 -0.1865
 9760TIP3    H150695   3.520   3.121   3.264 -0.2483 -0.6065  2.0956
 9760TIP3    H250696   3.433   3.015   3.200  0.6438 -1.1082  1.7010
 9761TIP3   OH250697   0.626   2.489  12.555 -0.6577 -0.0098  0.3968
 9761TIP3    H150698   0.706   2.529  12.520 -0.6201  0.1530  0.6680
 9761TIP3    H250699   0.557   2.515  12.494 -1.0924  2.5796  1.9129
 9762TIP3   OH250700   3.843   2.075   5.808  0.4471 -0.4407 -0.4952
 9762TIP3    H150701   3.821   1.982   5.817 -0.6596 -0.1665 -0.3735
 9762TIP3    H250702   3.819   2.097   5.718  0.5731 -0.2335 -0.4790
 9763TIP3   OH250703   6.173   3.461  13.169  0.0618  0.1498  0.6653
 9763TIP3    H150704   6.222   3.395  13.120  0.0180  0.6950 -0.1337
 9763TIP3    H250705   6.140   3.415  13.246  0.3863 -0.6459  0.3341
 9764TIP3   OH250706   1.460   3.682   5.595  0.1721 -0.1405  0.0264
 9764TIP3    H150707   1.523   3.660   5.526 -2.2133  0.5592 -2.4551
 9764TIP3    H250708   1.393   3.614   5.590 -1.6583  1.6556 -0.4940
 9765TIP3   OH250709   2.068   5.847  12.859  1.0742  0.2802  0.2476
 9765TIP3    H150710   2.024   5.763  12.868 -0.5133  0.9321 -1.1224
 9765TIP3    H250711   2.161   5.825  12.856  0.7303 -1.3361  0.8797
 9766TIP3   OH250712   4.008   2.966   2.758 -0.5195  0.1724 -0.6581
 9766TIP3    H150713   3.931   3.023   2.770 -0.6316  0.1664 -1.3595
 9766TIP3    H250714   4.015   2.918   2.841 -0.2958  1.3605  0.0265
 9767TIP3   OH250715   1.451   0.055   3.473  0.0868  0.0962 -0.0012
 9767TIP3    H150716   1.429   0.132   3.524  1.0695  0.2447  0.2137
 9767TIP3    H250717   1.538   0.029   3.504  0.6884  0.1707 -1.5442
 9768TIP3   OH250718   4.845   3.797   3.798 -0.5619 -0.0253 -0.3170
 9768TIP3    H150719   4.914   3.849   3.757  0.3996  0.4119  1.8087
 9768TIP3    H250720   4.878   3.707   3.794 -1.3776 -0.2812 -2.2612
 9769TIP3   OH250721   3.677   4.032   2.720 -0.0109 -0.4331 -0.5839
 9769TIP3    H150722   3.609   4.031   2.787 -0.1292  3.0733 -0.5578
 9769TIP3    H250723   3.704   3.941   2.712 -1.8331 -1.2973  2.3382
 9770TIP3   OH250724   0.536   0.761  13.212  0.0720  0.2218  0.2982
 9770TIP3    H150725   0.598   0.708  13.161  0.0489  1.2831 -0.8561
 9770TIP3    H250726   0.589   0.802  13.280  0.6579  1.1768 -0.7240
 9771TIP3   OH250727   6.309   2.982   3.171  0.8336  0.0939 -0.4174
 9771TIP3    H150728   6.392   2.950   3.207  0.5000 -0.6201 -0.2713
 9771TIP3    H250729   6.323   2.984   3.076  0.9318 -0.2650 -0.4108
 9772TIP3   OH250730   3.609   2.397   2.913  0.3106  0.0424 -0.0310
 9772TIP3    H150731   3.538   2.425   2.856 -0.0106  2.6068  1.5402
 9772TIP3    H250732   3.581   2.311   2.946 -1.0216  0.0380 -1.1377
 9773TIP3   OH250733   5.848   2.311   2.526 -0.5204 -0.1090 -0.2805
 9773TIP3    H150734   5.823   2.398   2.557 -1.2921 -0.6499  0.6355
 9773TIP3    H250735   5.794   2.297   2.449 -0.9630 -0.0866  0.0200
 9774TIP3   OH250736   4.636   4.115  14.629 -0.5523 -0.0234  0.2599
 9774TIP3    H150737   4.661   4.050  14.563  1.2191  2.0305 -1.1798
 9774TIP3    H250738   4.573   4.171  14.584  1.1619  1.7840  0.0620
 9775TIP3   OH250739   1.895   4.971   6.551 -0.3224  0.1797  0.8535
 9775TIP3    H150740   1.862   4.887   6.519  1.3970 -0.2330  0.1351
 9775TIP3    H250741   1.849   5.036   6.498 -0.6374 -0.3580  0.4637
 9776TIP3   OH250742   4.232   3.109   6.096  0.1526 -0.6174  0.2141
 9776TIP3    H150743   4.196   3.021   6.103 -0.2395 -0.6454 -1.9268
 9776TIP3    H250744   4.155   3.165   6.084  0.5294 -0.1834 -0.1648
 9777TIP3   OH250745   6.531   6.686   5.666 -0.8112 -0.1193 -0.5056
 9777TIP3    H150746   6.586   6.703   5.589 -0.9223 -1.7898 -0.9900
 9777TIP3    H250747   6.454   6.741   5.655  0.4025  1.6625 -0.2187
 9778TIP3   OH250748   6.350   2.026  16.071 -0.0678  0.3970  0.2565
 9778TIP3    H150749   6.343   1.954  16.133 -1.0841  0.7824  0.6065
 9778TIP3    H250750   6.286   2.091  16.102 -1.2061  0.2519 -1.6568
 9779TIP3   OH250751   5.642   4.837  17.221 -0.0330 -0.1707 -0.3258
 9779TIP3    H150752   5.614   4.847  17.312  1.4711 -0.3066  0.1641
 9779TIP3    H250753   5.716   4.896  17.212 -1.5869  1.5598 -2.1155
 9780TIP3   OH250754   4.701   3.871  14.226 -0.0993 -0.2073  0.6795
 9780TIP3    H150755   4.787   3.830  14.239 -0.3485 -0.5911  1.1517
 9780TIP3    H250756   4.714   3.962  14.250  0.6663  0.1861 -1.1779
 9781TIP3   OH250757   3.555   2.978   5.772 -0.0803 -0.4363 -0.0472
 9781TIP3    H150758   3.466   3.014   5.775 -0.1964 -0.6076 -1.1468
 9781TIP3    H250759   3.544   2.884   5.785  0.1098 -0.2573  1.5520
 9782TIP3   OH250760   6.299   5.439  12.916 -0.6154  0.2402  0.5798
 9782TIP3    H150761   6.297   5.429  12.821  0.1736 -0.7355  0.6579
 9782TIP3    H250762   6.347   5.521  12.931  2.0169 -1.1835  0.2109
 9783TIP3   OH250763   2.136   4.246  12.388 -0.6715  0.2762 -0.0599
 9783TIP3    H150764   2.132   4.243  12.484 -0.0489  0.5067 -0.0281
 9783TIP3    H250765   2.197   4.177  12.364 -0.5775  0.4350 -0.2744
 9784TIP3   OH250766   6.154   5.153  15.249 -0.0135 -0.5477 -0.1868
 9784TIP3    H150767   6.069   5.107  15.246 -0.1129 -0.4057  0.3755
 9784TIP3    H250768   6.144   5.226  15.189 -0.3031 -0.5136 -0.0976
 9785TIP3   OH250769   2.129   1.602   0.168 -0.3955 -0.1260 -0.6626
 9785TIP3    H150770   2.063   1.537   0.143  0.2436 -0.7168 -0.8301
 9785TIP3    H250771   2.095   1.684   0.133  0.1186 -0.8220 -2.9119
 9786TIP3   OH250772   5.780   3.025  14.180  0.0066  0.1525 -0.6965
 9786TIP3    H150773   5.758   3.027  14.087  0.8581  1.5840 -0.8939
 9786TIP3    H250774   5.850   3.090  14.189 -0.2332  0.2000  0.9797
 9787TIP3   OH250775   2.627   0.972   0.594  0.2579  0.3988  0.2394
 9787TIP3    H150776   2.689   0.905   0.621 -0.7198  0.0822  1.7737
 9787TIP3    H250777   2.662   1.007   0.512  2.4038  0.1769  1.0487
 9788TIP3   OH250778   5.947   2.449  12.425 -0.3240  0.9297 -0.3669
 9788TIP3    H150779   5.866   2.435  12.476 -1.3935 -1.9950 -2.6874
 9788TIP3    H250780   5.919   2.501  12.350  0.7900  3.2115  0.7444
 9789TIP3   OH250781   1.619   1.927   0.200  0.2264  0.0218  0.3679
 9789TIP3    H150782   1.630   1.834   0.182  2.8068  0.5974 -1.0963
 9789TIP3    H250783   1.526   1.944   0.181 -0.1527 -2.1157  0.1910
 9790TIP3   OH250784   6.538   2.695  15.545 -0.2923  0.8016 -0.3274
 9790TIP3    H150785   6.627   2.726  15.528  0.1379  0.3203  0.9774
 9790TIP3    H250786   6.525   2.711  15.638 -1.7083  1.1883 -0.5872
 9791TIP3   OH250787   1.349   3.191   2.978  0.0591  0.5226 -0.3482
 9791TIP3    H150788   1.405   3.117   3.004  0.1659  0.8092  0.2415
 9791TIP3    H250789   1.394   3.230   2.903  0.1466  0.1624 -0.4867
 9792TIP3   OH250790   4.156   4.118   4.014 -0.4093 -0.5949  0.1286
 9792TIP3    H150791   4.163   4.208   4.043  1.0437 -1.1463  1.5687
 9792TIP3    H250792   4.116   4.123   3.927 -3.8201  1.1567  1.7292
 9793TIP3   OH250793   3.140   3.711   0.889  0.5419  0.5431  0.3701
 9793TIP3    H150794   3.111   3.746   0.973  0.4457 -0.1499  0.6282
 9793TIP3    H250795   3.179   3.786   0.843 -0.7104  1.2437  0.4427
 9794TIP3   OH250796   3.044   1.443   1.671 -0.2419  0.5926 -0.1625
 9794TIP3    H150797   3.056   1.522   1.723 -1.3175  0.8930 -0.3623
 9794TIP3    H250798   2.959   1.409   1.698  0.7952 -1.2347  0.8750
 9795TIP3   OH250799   4.164   6.332   1.022  0.3109 -0.1381  0.0024
 9795TIP3    H150800   4.253   6.368   1.030 -0.1074  1.0599 -0.5001
 9795TIP3    H250801   4.164   6.255   1.078  1.1135  0.9340  1.5203
 9796TIP3   OH250802   3.772   0.170  13.376 -0.2316 -0.4979 -0.1955
 9796TIP3    H150803   3.838   0.102  13.363 -0.7190 -0.6119 -2.2122
 9796TIP3    H250804   3.691   0.121  13.391 -0.1750 -0.3583  0.5726
 9797TIP3   OH250805   3.769   0.758  11.690 -0.0279  0.4350 -0.0022
 9797TIP3    H150806   3.691   0.704  11.685  0.1985  0.2674 -2.2189
 9797TIP3    H250807   3.837   0.698  11.724  0.0184 -0.4650 -1.6264
 9798TIP3   OH250808   0.861   5.299   1.593  0.1338 -0.5910 -0.1714
 9798TIP3    H150809   0.774   5.297   1.552 -0.5739 -2.0646  1.3085
 9798TIP3    H250810   0.913   5.240   1.540  0.1206  0.0019 -0.8442
 9799TIP3   OH250811   5.099   3.953   0.258  0.7005 -0.4462 -0.4307
 9799TIP3    H150812   5.192   3.934   0.276  0.2149 -2.2454  0.2762
 9799TIP3    H250813   5.057   3.867   0.256 -0.9194  0.3405 -1.0157
 9800TIP3   OH250814   4.039   6.543  12.530 -0.2567  0.4699  0.2414
 9800TIP3    H150815   3.947   6.518  12.517 -0.4697  1.5852 -0.5572
 9800TIP3    H250816   4.073   6.481  12.594 -1.1460 -0.9216 -0.6191
 9801TIP3   OH250817   0.922   2.739   1.838  0.2125 -0.5210  0.4179
 9801TIP3    H150818   0.846   2.689   1.866 -1.0930  0.4967 -1.2313
 9801TIP3    H250819   0.911   2.825   1.879  0.3176 -0.2638 -0.0951
 9802TIP3   OH250820   6.410   1.277  14.199  0.1430 -0.0135  0.1493
 9802TIP3    H150821   6.466   1.333  14.145  0.1650 -0.9676 -0.8106
 9802TIP3    H250822   6.340   1.336  14.229  1.4153  1.0798  1.0246
 9803TIP3   OH250823   3.914   2.091   2.078  0.1586 -0.6384 -0.1634
 9803TIP3    H150824   4.009   2.097   2.070  0.4564 -4.1013 -0.1015
 9803TIP3    H250825   3.884   2.065   1.991 -0.9820  2.0885 -0.6595
 9804TIP3   OH250826   2.213   2.384  10.744 -0.6398  0.5217  0.1699
 9804TIP3    H150827   2.131   2.337  10.733  0.7277 -1.9206  0.1668
 9804TIP3    H250828   2.281   2.323  10.716  1.1554  2.7603 -0.5789
 9805TIP3   OH250829   3.166   1.287   3.718  0.0928  0.1901  0.0435
 9805TIP3    H150830   3.160   1.316   3.627  0.3831 -0.4274 -0.1760
 9805TIP3    H250831   3.076   1.265   3.742  0.0849 -0.1107 -0.2540
 9806TIP3   OH250832   3.192   2.292   1.894  0.2189  0.1212  0.5863
 9806TIP3    H150833   3.281   2.274   1.927  0.1855  0.2918  0.7705
 9806TIP3    H250834   3.135   2.270   1.968 -0.0730 -2.2956 -0.3195
 9807TIP3   OH250835   5.045   3.951   5.324 -0.3346 -0.2623 -0.0656
 9807TIP3    H150836   5.017   3.892   5.395 -1.9761  0.0840 -0.4031
 9807TIP3    H250837   5.072   4.030   5.370 -1.3491 -0.0546  0.2030
 9808TIP3   OH250838   0.672   3.887  15.534  0.1881 -0.3188 -0.4845
 9808TIP3    H150839   0.589   3.846  15.558 -0.6873 -1.1714 -4.6123
 9808TIP3    H250840   0.731   3.814  15.516  0.4008  0.2317 -2.1304
 9809TIP3   OH250841   1.022   5.293   2.013 -0.4244 -0.7287 -0.1069
 9809TIP3    H150842   0.931   5.310   1.989 -0.7180 -0.6739  1.0207
 9809TIP3    H250843   1.018   5.223   2.078  0.4341 -1.6180 -0.9974
 9810TIP3   OH250844   6.551   0.911  11.958 -0.3839 -0.1937 -0.2894
 9810TIP3    H150845   6.594   0.943  12.037  0.5142 -1.1237 -0.3861
 9810TIP3    H250846   6.554   0.816  11.966 -1.4701 -0.2770 -0.8165
 9811TIP3   OH250847   5.350   5.017   2.764  0.3243  0.0852  0.3073
 9811TIP3    H150848   5.314   5.031   2.676 -0.6592  0.7676  0.8179
 9811TIP3    H250849   5.278   5.037   2.823  1.4448  1.1969  1.3350
 9812TIP3   OH250850   0.956   3.638   2.126 -0.1400 -0.5487 -0.0571
 9812TIP3    H150851   0.937   3.696   2.053  0.7535 -0.2696 -0.0624
 9812TIP3    H250852   0.879   3.646   2.183  0.2332  1.0953  0.2391
 9813TIP3   OH250853   2.931   4.444   0.108 -0.0843  0.1631  0.6877
 9813TIP3    H150854   2.980   4.378   0.059  0.9319  1.0365  0.5090
 9813TIP3    H250855   2.857   4.467   0.052  0.5872  0.5209 -0.0542
 9814TIP3   OH250856   0.516   2.441   5.686 -0.0357  0.1639 -0.0904
 9814TIP3    H150857   0.485   2.364   5.734 -1.3458  0.4722 -0.3988
 9814TIP3    H250858   0.540   2.504   5.753  1.4295 -0.6538  0.1686
 9815TIP3   OH250859   0.270   6.106   0.837 -0.2801  0.0653 -0.0128
 9815TIP3    H150860   0.324   6.160   0.779  1.6050 -0.6822  1.0060
 9815TIP3    H250861   0.215   6.168   0.884  0.3110  0.9097 -0.4186
 9816TIP3   OH250862   3.497   3.427  13.743  0.2453 -0.6563  0.1932
 9816TIP3    H150863   3.492   3.334  13.767  0.6772 -0.5588  0.6372
 9816TIP3    H250864   3.588   3.441  13.719  0.3320 -0.1630  0.8276
 9817TIP3   OH250865   3.456   3.829  15.136 -0.2020  0.8043  0.1099
 9817TIP3    H150866   3.544   3.838  15.098  0.7441 -1.5916  1.5878
 9817TIP3    H250867   3.469   3.841  15.229 -1.3782  0.1125  0.3757
 9818TIP3   OH250868   4.059   4.835  16.489  0.1051  0.9875  0.2047
 9818TIP3    H150869   4.144   4.794  16.473 -0.4454 -0.7764  1.5589
 9818TIP3    H250870   3.997   4.784  16.437 -0.7162 -0.5573  2.5802
 9819TIP3   OH250871   6.011   1.043   4.497  0.3317 -0.6101 -0.4638
 9819TIP3    H150872   5.988   0.950   4.497 -0.9344 -0.3156  0.4153
 9819TIP3    H250873   6.046   1.060   4.409  0.8316 -1.9691 -0.5292
 9820TIP3   OH250874   0.671   1.374   3.213 -0.3079  0.3242  0.1763
 9820TIP3    H150875   0.686   1.469   3.212 -0.7830  0.3979 -0.6962
 9820TIP3    H250876   0.596   1.362   3.271 -0.2785  0.4852  0.2483
 9821TIP3   OH250877   2.204   6.636  12.028 -0.3434  0.6844  0.4112
 9821TIP3    H150878   2.277   6.695  12.047 -0.8059  0.7742  1.9005
 9821TIP3    H250879   2.241   6.548  12.043  0.3639  0.5473 -1.8671
 9822TIP3   OH250880   2.227   2.230  11.416 -0.2838 -0.4120  0.0897
 9822TIP3    H150881   2.270   2.287  11.480 -0.3443 -0.5322  0.2381
 9822TIP3    H250882   2.165   2.287  11.370  0.1753 -0.1939 -0.2613
 9823TIP3   OH250883   0.961   3.488  13.078 -0.5577 -0.3082  0.0621
 9823TIP3    H150884   1.034   3.460  13.133  0.0580 -0.8671 -1.0180
 9823TIP3    H250885   0.958   3.583  13.088  0.8669 -0.1742 -0.5217
 9824TIP3   OH250886   3.452   1.998  12.371  0.4462  0.3603  0.0469
 9824TIP3    H150887   3.483   1.948  12.296  2.8560 -0.1278  1.3241
 9824TIP3    H250888   3.515   2.069  12.381 -1.3952  2.0641 -0.0473
 9825TIP3   OH250889   1.471   5.881   1.743 -0.5073 -0.8138  0.3181
 9825TIP3    H150890   1.389   5.846   1.707  0.1409 -0.3333 -1.6841
 9825TIP3    H250891   1.452   5.973   1.761 -0.4871 -0.7610  0.0761
 9826TIP3   OH250892   4.392   1.997   4.262 -0.3790 -0.7390  0.2272
 9826TIP3    H150893   4.394   2.081   4.308  1.1321 -1.5940  1.7792
 9826TIP3    H250894   4.300   1.986   4.236 -1.1651  0.0162  2.5878
 9827TIP3   OH250895   2.518   3.846  14.018  0.0670 -0.3102 -0.0322
 9827TIP3    H150896   2.522   3.827  13.924 -4.6807  0.4207 -0.4960
 9827TIP3    H250897   2.528   3.761  14.060  0.4724 -0.8832 -1.2631
 9828TIP3   OH250898   1.698   4.902   4.442 -0.2327 -0.1029 -0.6747
 9828TIP3    H150899   1.665   4.991   4.426  2.9808  1.7691  2.4489
 9828TIP3    H250900   1.634   4.864   4.502 -0.2656  1.0690  0.0552
 9829TIP3   OH250901   0.842   3.751  13.162 -0.0753 -0.5677 -0.0190
 9829TIP3    H150902   0.808   3.774  13.076 -0.1338  1.4630  0.5204
 9829TIP3    H250903   0.782   3.684  13.195 -0.6433 -0.6019 -1.1182
 9830TIP3   OH250904   3.760   3.795  16.134  0.1310 -0.0506 -0.0891
 9830TIP3    H150905   3.777   3.874  16.185  0.8096 -1.0408  1.2362
 9830TIP3    H250906   3.794   3.723  16.187 -0.9389 -1.3019 -1.0370
 9831TIP3   OH250907   4.682   3.846   2.121 -0.1028  0.1870  0.7910
 9831TIP3    H150908   4.689   3.919   2.183 -2.0062  0.4892  0.6866
 9831TIP3    H250909   4.772   3.819   2.105  0.6377  2.6316  0.6959
 9832TIP3   OH250910   2.744   1.006   1.938  0.0768  0.2784 -0.0507
 9832TIP3    H150911   2.822   1.015   1.884  1.6713  1.1067  2.3456
 9832TIP3    H250912   2.745   1.082   1.995 -0.2032 -1.8118  2.8579
 9833TIP3   OH250913   1.220   6.150   5.610 -0.0544  0.0315  0.0076
 9833TIP3    H150914   1.284   6.176   5.544  0.5593 -0.8397  0.2553
 9833TIP3    H250915   1.163   6.087   5.565 -0.0872 -0.0054  0.1011
 9834TIP3   OH250916   4.932   4.392   5.411  0.6320  0.2166 -0.1434
 9834TIP3    H150917   4.851   4.426   5.451 -0.1601  0.3359 -1.8208
 9834TIP3    H250918   4.975   4.469   5.375  0.8678 -0.0184 -0.3661
 9835TIP3   OH250919   4.375   4.374   4.232  0.0636 -0.1198 -0.1614
 9835TIP3    H150920   4.402   4.288   4.264  1.0650  0.0648 -0.4853
 9835TIP3    H250921   4.455   4.411   4.193 -0.6980  0.3538 -1.3162
 9836TIP3   OH250922   6.141   1.156  15.987 -0.1244 -0.3249  0.0913
 9836TIP3    H150923   6.061   1.141  15.936  0.3485  0.3194 -0.8403
 9836TIP3    H250924   6.112   1.210  16.061 -0.4135  0.5566 -0.6622
 9837TIP3   OH250925   0.763   3.689   5.126  0.2959  0.2059  0.1231
 9837TIP3    H150926   0.728   3.693   5.216 -1.9894  0.5642 -0.7435
 9837TIP3    H250927   0.808   3.605   5.122  0.1532  0.0402  1.5188
 9838TIP3   OH250928   0.288   5.046   2.883 -0.0124 -0.3176  0.2970
 9838TIP3    H150929   0.312   4.988   2.810 -1.4811  0.6082 -0.9612
 9838TIP3    H250930   0.335   5.128   2.864 -0.1654 -0.1746  0.5371
 9839TIP3   OH250931   4.916   6.337  13.734 -0.5674  0.1829 -0.0364
 9839TIP3    H150932   4.969   6.333  13.814 -0.1861  1.0644 -0.2348
 9839TIP3    H250933   4.959   6.276  13.674 -1.6988 -1.5958  0.9022
 9840TIP3   OH250934   6.570   0.409   3.609 -0.1771  0.4310  0.5602
 9840TIP3    H150935   6.501   0.461   3.567 -0.7223 -1.5503 -1.0436
 9840TIP3    H250936   6.522   0.345   3.661  0.4661 -0.2510  0.3060
 9841TIP3   OH250937   6.073   4.921  16.176 -0.3535 -0.1561 -0.0157
 9841TIP3    H150938   5.988   4.940  16.213  0.3558  0.7978  1.1583
 9841TIP3    H250939   6.130   4.990  16.210  1.3232 -1.9062  0.8252
 9842TIP3   OH250940   1.219   6.601  15.380 -0.4281 -0.1311  0.2336
 9842TIP3    H150941   1.269   6.561  15.451  2.5825  2.1821 -0.4864
 9842TIP3    H250942   1.201   6.529  15.320  2.4710 -0.9864  0.3078
 9843TIP3   OH250943   0.581   4.878  12.625  0.7385 -0.0048 -0.0432
 9843TIP3    H150944   0.649   4.830  12.577 -0.4830  0.7351 -2.5861
 9843TIP3    H250945   0.531   4.810  12.671  2.1483 -0.6867  0.5248
 9844TIP3   OH250946   2.360   0.955  14.040  0.0086 -0.3991  0.3025
 9844TIP3    H150947   2.401   0.933  13.957 -0.8401 -0.7675 -0.0226
 9844TIP3    H250948   2.408   1.032  14.071  2.8569 -2.5376  1.3320
 9845TIP3   OH250949   5.925   0.301  16.745 -0.0060  0.2698 -0.8009
 9845TIP3    H150950   5.904   0.210  16.724 -0.0760  0.8752 -3.4867
 9845TIP3    H250951   5.886   0.352  16.674  0.5550  2.3606  0.3461
 9846TIP3   OH250952   3.975   2.168   4.087 -0.0004  0.4644  0.1431
 9846TIP3    H150953   4.011   2.243   4.135 -1.1323  0.0724  1.6389
 9846TIP3    H250954   4.023   2.092   4.121  0.7881  0.4303 -1.0066
 9847TIP3   OH250955   3.009   0.417   3.167 -0.4290 -0.6900  0.3569
 9847TIP3    H150956   2.921   0.407   3.130 -0.2260  0.4534 -0.4708
 9847TIP3    H250957   2.994   0.435   3.260 -1.1719  1.2387 -0.0993
 9848TIP3   OH250958   2.537   5.435   5.819  0.1360  0.1719  0.2309
 9848TIP3    H150959   2.527   5.522   5.779  1.5876 -0.2964 -1.2114
 9848TIP3    H250960   2.464   5.428   5.880 -0.9205  1.7725 -0.8054
 9849TIP3   OH250961   4.005   0.614  11.823  0.1856  0.4448  0.7535
 9849TIP3    H150962   3.966   0.528  11.810  1.7559 -0.1175 -0.3038
 9849TIP3    H250963   4.079   0.599  11.881  0.4367  1.0933  0.6113
 9850TIP3   OH250964   5.349   5.566  12.637 -0.0351  0.4176  0.1125
 9850TIP3    H150965   5.444   5.574  12.631 -0.0164 -0.2070 -0.5305
 9850TIP3    H250966   5.317   5.656  12.646  0.6907  0.5472  1.4980
 9851TIP3   OH250967   4.907   5.174   2.824 -0.0035  0.6764 -0.3902
 9851TIP3    H150968   4.925   5.225   2.745 -0.8444  1.6296  0.0096
 9851TIP3    H250969   4.812   5.179   2.833  0.1853  1.5546  1.3089
 9852TIP3   OH250970   3.181   4.177   5.329  0.1837 -0.8473  0.0905
 9852TIP3    H150971   3.223   4.202   5.411 -0.9590 -0.0788  0.4536
 9852TIP3    H250972   3.091   4.153   5.354 -0.7157  1.0982 -1.1478
 9853TIP3   OH250973   1.129   2.640   4.575  0.3736  0.1921 -0.2769
 9853TIP3    H150974   1.160   2.557   4.539  0.0846  0.8591 -2.1282
 9853TIP3    H250975   1.037   2.623   4.597  0.3710 -0.0315 -0.4511
 9854TIP3   OH250976   5.926   4.553  16.276 -0.0789 -0.0221  0.2048
 9854TIP3    H150977   5.876   4.615  16.329  0.1562  1.3020 -1.0889
 9854TIP3    H250978   5.864   4.523  16.210 -0.3969 -1.7337  1.2469
 9855TIP3   OH250979   1.807   1.958  12.580  0.8919  0.0160  0.0973
 9855TIP3    H150980   1.890   1.951  12.627  0.0775  0.2170  1.6119
 9855TIP3    H250981   1.740   1.947  12.648 -0.3385 -1.8108 -1.3375
 9856TIP3   OH250982   5.027   2.963  15.556 -0.4880  0.4680 -0.9050
 9856TIP3    H150983   4.996   3.026  15.621  0.6989  0.1441  0.0023
 9856TIP3    H250984   5.123   2.973  15.557 -0.3400 -0.7764 -1.3356
 9857TIP3   OH250985   3.701   5.902   1.578 -0.4687  0.3976 -0.5959
 9857TIP3    H150986   3.616   5.858   1.571 -0.6152  0.4604  0.5495
 9857TIP3    H250987   3.731   5.913   1.488 -1.3377 -0.2909 -0.9741
 9858TIP3   OH250988   2.205   2.728   3.874  0.3152 -0.0046 -0.3924
 9858TIP3    H150989   2.251   2.684   3.803 -1.6353 -3.6068  0.4595
 9858TIP3    H250990   2.112   2.709   3.859 -0.1337 -1.1480  3.2493
 9859TIP3   OH250991   3.534   5.860  14.752  0.3768 -0.1370 -0.0890
 9859TIP3    H150992   3.589   5.819  14.819  0.6517 -0.7042 -0.6472
 9859TIP3    H250993   3.487   5.787  14.712  1.1231  0.0268 -1.3250
 9860TIP3   OH250994   6.006   0.465  16.236 -0.2714 -0.5779 -0.1815
 9860TIP3    H150995   6.043   0.516  16.308 -1.3556 -1.7681  1.2600
 9860TIP3    H250996   6.075   0.403  16.213  0.5491  0.6345 -1.0381
 9861TIP3   OH250997   5.823   5.420  13.163  0.0015  0.3943  0.1738
 9861TIP3    H150998   5.865   5.334  13.162  0.2255  0.4957 -0.9725
 9861TIP3    H250999   5.742   5.408  13.113 -0.0100  0.8271  0.0833
 9862TIP3   OH251000   6.350   5.566   1.342 -0.3493 -0.1844 -0.5399
 9862TIP3    H151001   6.345   5.544   1.249 -0.5320 -0.4485 -0.4662
 9862TIP3    H251002   6.300   5.498   1.386 -1.7797  0.9248 -0.3994
 9863TIP3   OH251003   5.823   3.633  12.943  0.4222  0.6842  0.3708
 9863TIP3    H151004   5.734   3.648  12.911  0.0218 -0.3411  0.9824
 9863TIP3    H251005   5.852   3.555  12.896  1.1782  1.3055 -0.1894
 9864TIP3   OH251006   5.917   2.766   4.490  0.0856 -0.1461  0.0677
 9864TIP3    H151007   6.002   2.764   4.446 -0.4579  1.2489 -1.1051
 9864TIP3    H251008   5.919   2.846   4.543 -0.9680  0.6169 -1.0009
 9865TIP3   OH251009   6.509   2.080  14.002 -0.0793 -0.1265 -0.2546
 9865TIP3    H151010   6.565   2.094  14.078 -0.9596 -2.8727  0.9653
 9865TIP3    H251011   6.567   2.044  13.935  0.3481  0.6175 -0.2823
 9866TIP3   OH251012   6.265   4.716   4.092  0.4118 -0.1107  0.2047
 9866TIP3    H151013   6.190   4.658   4.109  1.6140 -1.4021  1.1376
 9866TIP3    H251014   6.226   4.804   4.091 -1.2061 -0.7953  0.1769
 9867TIP3   OH251015   3.820   5.979   2.938 -0.1624 -0.3350 -0.0693
 9867TIP3    H151016   3.800   5.887   2.955  0.3449 -1.0440 -3.1656
 9867TIP3    H251017   3.743   6.012   2.892  1.3672 -0.3326 -2.7068
 9868TIP3   OH251018   0.782   5.009   5.192  0.1023  0.3201 -0.5591
 9868TIP3    H151019   0.745   4.923   5.172  0.1061  0.1085  0.3074
 9868TIP3    H251020   0.791   5.009   5.287  0.9180  0.9493 -0.6322
 9869TIP3   OH251021   3.801   0.549  15.142  0.2042  0.0099  0.3783
 9869TIP3    H151022   3.805   0.456  15.118 -0.5680 -0.5309  2.2371
 9869TIP3    H251023   3.733   0.553  15.210  2.4680  1.3936  2.6566
 9870TIP3   OH251024   5.060   4.114   5.887  0.1671 -0.3830  0.2202
 9870TIP3    H151025   5.154   4.100   5.895 -0.1773 -2.1905  1.2037
 9870TIP3    H251026   5.051   4.208   5.871  2.1400 -0.2290 -0.0461
 9871TIP3   OH251027   1.333   2.242   5.834  0.0988 -0.1322  0.0175
 9871TIP3    H151028   1.272   2.176   5.802 -0.8887  0.6685  0.1974
 9871TIP3    H251029   1.307   2.322   5.789 -0.3095  0.6566  1.6185
 9872TIP3   OH251030   6.006   5.894  16.961 -0.5150 -0.3059 -0.1943
 9872TIP3    H151031   5.951   5.954  16.910 -1.3142 -0.1009  0.9077
 9872TIP3    H251032   6.093   5.902  16.921 -0.8609  0.7693 -0.7452
 9873TIP3   OH251033   0.429   1.710  13.864  0.0722 -0.3204  0.1561
 9873TIP3    H151034   0.345   1.734  13.826 -0.5065  0.6866  2.0151
 9873TIP3    H251035   0.438   1.617  13.846 -2.3152 -0.8707  1.5144
 9874TIP3   OH251036   4.448   2.531   6.392  0.0391  0.3059  0.4794
 9874TIP3    H151037   4.381   2.492   6.448  1.5694  1.2663  3.0526
 9874TIP3    H251038   4.410   2.613   6.361  0.3946  1.3771  2.8031
 9875TIP3   OH251039   4.195   1.262   5.202 -0.3018 -0.1345 -0.7619
 9875TIP3    H151040   4.147   1.209   5.266 -1.0294  1.1256 -0.2514
 9875TIP3    H251041   4.134   1.332   5.179  1.0932  1.1473 -0.5634
 9876TIP3   OH251042   4.864   0.893  16.491  0.2733 -0.7554 -0.6673
 9876TIP3    H151043   4.942   0.940  16.461 -0.3962  0.1405 -1.0226
 9876TIP3    H251044   4.812   0.880  16.411 -0.2723 -0.7210 -0.3191
 9877TIP3   OH251045   1.187   3.903   5.393 -0.1173 -0.8450  0.3673
 9877TIP3    H151046   1.271   3.912   5.347  0.6819 -0.9536  1.7757
 9877TIP3    H251047   1.163   3.811   5.381 -0.4981 -0.6100 -0.7910
 9878TIP3   OH251048   0.982   2.557   5.445 -0.0102  0.5517  0.9371
 9878TIP3    H151049   0.935   2.584   5.524 -1.0718 -0.9257  0.8426
 9878TIP3    H251050   1.035   2.482   5.473  0.1763  0.4806  0.4095
 9879TIP3   OH251051   3.354   0.966  13.565  0.4106  0.0380  0.3908
 9879TIP3    H151052   3.412   0.942  13.493  0.7775  4.1186 -0.8150
 9879TIP3    H251053   3.412   0.979  13.640  0.6276  0.5706  0.1327
 9880TIP3   OH251054   1.264   2.866  13.648  0.5287  0.0099 -0.0009
 9880TIP3    H151055   1.312   2.789  13.678 -1.7837 -1.4313  0.1362
 9880TIP3    H251056   1.215   2.895  13.724 -1.7156 -0.8317 -1.0655
 9881TIP3   OH251057   5.134   3.083   5.218  0.0676  0.2797 -0.1017
 9881TIP3    H151058   5.208   3.111   5.271  0.6712 -0.2442 -0.6578
 9881TIP3    H251059   5.173   3.037   5.144 -0.8286 -0.4514 -0.1352
 9882TIP3   OH251060   4.793   2.889  12.940  0.1452  0.0529 -0.2386
 9882TIP3    H151061   4.784   2.807  12.989  0.6833  0.6675  0.9128
 9882TIP3    H251062   4.825   2.862  12.854  1.9717 -0.8160  0.6917
 9883TIP3   OH251063   3.520   4.539  14.295 -0.2291  0.5568  0.7016
 9883TIP3    H151064   3.427   4.524  14.312 -0.3166  0.1386 -0.1222
 9883TIP3    H251065   3.563   4.519  14.378 -0.8041  0.0324  0.8769
 9884TIP3   OH251066   5.655   1.626   0.028  0.3328  0.1430  0.4449
 9884TIP3    H151067   5.569   1.630  -0.012  0.1297  0.1957  0.8871
 9884TIP3    H251068   5.682   1.534   0.019  0.1792  0.1013  0.4185
 9885TIP3   OH251069   0.593   6.542  16.553  0.4391  0.5204  0.1526
 9885TIP3    H151070   0.622   6.517  16.466 -0.8708  2.0531 -0.7285
 9885TIP3    H251071   0.659   6.604  16.584  0.6224  0.3749  0.0540
 9886TIP3   OH251072   0.596   1.248   0.629 -0.5294  0.1295  0.1025
 9886TIP3    H151073   0.651   1.196   0.688 -0.8644  0.8160  1.0384
 9886TIP3    H251074   0.526   1.188   0.602 -1.2715  0.2605  1.6746
 9887TIP3   OH251075   5.458   1.650  13.485 -0.1861 -0.7865 -0.0779
 9887TIP3    H151076   5.501   1.605  13.557  0.0474  0.7467  0.7438
 9887TIP3    H251077   5.479   1.743  13.498 -1.2246 -0.3589 -1.3695
 9888TIP3   OH251078   0.248   1.368  13.809 -0.0608 -0.1749  0.3209
 9888TIP3    H151079   0.253   1.414  13.725 -0.8461  0.0963  0.4189
 9888TIP3    H251080   0.325   1.398  13.857  0.1125  0.0689 -0.0999
 9889TIP3   OH251081   0.007   6.623  15.729  0.3112 -0.0387 -0.1813
 9889TIP3    H151082   0.010   6.716  15.752  0.0233 -0.5601  2.0147
 9889TIP3    H251083  -0.054   6.584  15.792 -0.2995 -1.5682 -1.6594
 9890TIP3   OH251084   0.247   4.931  11.655  0.2930 -0.4679 -0.4708
 9890TIP3    H151085   0.155   4.904  11.666  0.1395 -0.8663 -2.6225
 9890TIP3    H251086   0.291   4.851  11.626  1.6261 -0.6355  1.8705
 9891TIP3   OH251087   0.777   2.642  15.809  0.0465  0.6263 -0.5265
 9891TIP3    H151088   0.832   2.720  15.824  1.9085 -0.2256 -2.6704
 9891TIP3    H251089   0.825   2.571  15.853 -0.1931  0.1698 -1.0078
 9892TIP3   OH251090   6.424   0.296   2.753 -0.1099  0.2720  0.0684
 9892TIP3    H151091   6.502   0.324   2.801 -0.4183  1.2925  0.0007
 9892TIP3    H251092   6.427   0.201   2.755 -0.8737  0.2580  3.3324
 9893TIP3   OH251093   0.062   3.696  15.908 -0.3059  0.3243 -0.3459
 9893TIP3    H151094   0.073   3.615  15.957  3.8029  1.3646  0.6598
 9893TIP3    H251095   0.057   3.764  15.975  0.1638  1.2667 -1.2582
 9894TIP3   OH251096   6.176   1.836   2.836  0.1905 -0.2759  0.3033
 9894TIP3    H151097   6.143   1.879   2.757  0.8218  1.6207  1.0428
 9894TIP3    H251098   6.263   1.805   2.811  1.9964  3.6903  1.3085
 9895TIP3   OH251099   1.663   2.910   0.417 -0.1690  0.2062 -0.3014
 9895TIP3    H151100   1.658   2.840   0.352  2.0133  0.6711 -1.0091
 9895TIP3    H251101   1.600   2.884   0.485 -0.7832 -1.4624 -1.4698
 9896TIP3   OH251102   3.020   5.158  14.514  0.4012 -0.1711  0.1891
 9896TIP3    H151103   2.985   5.184  14.599 -2.2842  0.1197 -0.9436
 9896TIP3    H251104   3.054   5.069  14.528  0.6664  0.1571  1.7157
 9897TIP3   OH251105   0.604   2.493  11.050  0.1426  0.1771  0.3197
 9897TIP3    H151106   0.638   2.409  11.019  1.3808 -0.0244  2.1500
 9897TIP3    H251107   0.614   2.489  11.145 -2.3917  1.2797  0.6856
 9898TIP3   OH251108   4.400   5.055   1.990  0.4067  0.2088 -0.4311
 9898TIP3    H151109   4.308   5.068   2.013  0.0189  0.0733 -1.8669
 9898TIP3    H251110   4.442   5.138   2.013  0.4892 -0.6970  2.8719
 9899TIP3   OH251111   4.218   5.836   0.568 -0.0855  0.0292  0.5685
 9899TIP3    H151112   4.137   5.883   0.552 -0.1095 -0.3155 -0.3428
 9899TIP3    H251113   4.222   5.770   0.499  1.3913  0.5858  0.1137
 9900TIP3   OH251114   0.724   1.277  13.561 -0.3534  0.0086 -0.2165
 9900TIP3    H151115   0.726   1.321  13.476  0.4011  0.4723  0.0343
 9900TIP3    H251116   0.811   1.293  13.598 -0.2172 -1.3312  0.0654
 9901TIP3   OH251117   1.511   5.651  14.927 -0.0044  0.4247 -0.2525
 9901TIP3    H151118   1.425   5.609  14.934  0.5895 -1.1011 -1.7834
 9901TIP3    H251119   1.566   5.586  14.884  2.3115  0.8496  1.9609
 9902TIP3   OH251120   3.705   2.497  16.979 -0.1359  0.0638  0.1391
 9902TIP3    H151121   3.634   2.510  16.916  0.6515 -1.0498 -0.9910
 9902TIP3    H251122   3.785   2.497  16.926  0.4962 -1.4356  1.0495
 9903TIP3   OH251123   5.922   1.705   4.778 -0.3581  0.1913 -0.1374
 9903TIP3    H151124   5.946   1.677   4.690 -1.2908 -3.6074  0.7162
 9903TIP3    H251125   5.826   1.696   4.781 -0.3431  0.3594  1.1915
 9904TIP3   OH251126   4.069   5.288  10.456 -0.3354  0.3784  0.1836
 9904TIP3    H151127   4.024   5.370  10.479  0.5546  1.9153 -3.3236
 9904TIP3    H251128   4.162   5.308  10.465 -0.1150 -0.3631 -0.4058
 9905TIP3   OH251129   4.700   4.146  10.738 -0.1213 -0.1106  0.1147
 9905TIP3    H151130   4.645   4.108  10.807  1.4295 -1.9251  0.3859
 9905TIP3    H251131   4.646   4.216  10.701 -1.3804  0.2256  2.4643
 9906TIP3   OH251132   2.454   1.432  16.190  0.6063 -0.7203 -0.0700
 9906TIP3    H151133   2.535   1.418  16.141  1.1085 -1.8852  1.0802
 9906TIP3    H251134   2.478   1.493  16.259 -0.3073  1.6188 -1.7609
 9907TIP3   OH251135   6.614   3.781  12.557 -0.5318 -1.0082  0.4598
 9907TIP3    H151136   6.565   3.776  12.474 -0.7250  2.7308  0.2583
 9907TIP3    H251137   6.705   3.794  12.530 -0.8101  1.7841  0.8000
 9908TIP3   OH251138   5.119   2.277   1.125 -0.1924 -0.0020 -0.1478
 9908TIP3    H151139   5.164   2.278   1.210 -0.2331  0.2231 -0.1286
 9908TIP3    H251140   5.028   2.257   1.147 -0.3108  0.5971 -0.0861
 9909TIP3   OH251141   2.794   3.205   4.823  0.0740  0.3781 -0.7222
 9909TIP3    H151142   2.890   3.204   4.830  0.1654  3.2924 -0.8782
 9909TIP3    H251143   2.765   3.139   4.886  2.1643  0.0821 -0.0130
 9910TIP3   OH251144   6.133   4.758   1.108  0.1973 -0.0882 -0.3337
 9910TIP3    H151145   6.136   4.666   1.137 -0.6235  0.1823  0.6331
 9910TIP3    H251146   6.221   4.774   1.072  0.1543 -1.4209 -1.0678
 9911TIP3   OH251147   5.172   2.542  15.477 -0.0472  0.0240 -0.2141
 9911TIP3    H151148   5.255   2.545  15.431  0.1132 -0.9001  0.0147
 9911TIP3    H251149   5.151   2.449  15.485 -1.0883  0.2412 -0.2482
 9912TIP3   OH251150   2.378   3.180  11.734 -0.2214 -0.0963 -0.6307
 9912TIP3    H151151   2.373   3.173  11.639 -0.1543  1.0909 -0.7202
 9912TIP3    H251152   2.451   3.239  11.751 -1.5215  1.3298  0.0977
 9913TIP3   OH251153   4.053   5.061  13.794 -0.9856 -0.2796  0.1542
 9913TIP3    H151154   4.081   5.136  13.847 -0.6041  0.1890 -0.6932
 9913TIP3    H251155   4.117   4.993  13.813 -1.0558 -0.2310  0.5651
 9914TIP3   OH251156   0.519   0.052   3.788  0.1709 -0.5318 -0.3042
 9914TIP3    H151157   0.456   0.116   3.755  1.8663  1.9787  1.1774
 9914TIP3    H251158   0.517   0.062   3.883  1.6549 -1.5283 -0.1485
 9915TIP3   OH251159   2.927   3.764   0.447  0.1753 -0.1038 -0.1823
 9915TIP3    H151160   3.014   3.733   0.421  1.0555 -0.4403  3.0186
 9915TIP3    H251161   2.878   3.684   0.466  0.7510  0.2119  2.8200
 9916TIP3   OH251162   1.235   0.333   5.321 -0.3279 -0.3470  0.2996
 9916TIP3    H151163   1.223   0.292   5.406  0.0350 -0.9910  0.0407
 9916TIP3    H251164   1.328   0.357   5.318 -0.4879  0.3065  0.3630
 9917TIP3   OH251165   2.622   0.462   4.988 -0.0199 -0.1546 -0.3699
 9917TIP3    H151166   2.636   0.479   5.082 -1.3236  0.9045 -0.3460
 9917TIP3    H251167   2.528   0.470   4.977  0.2536  0.8390 -1.9938
 9918TIP3   OH251168   4.120   1.485  16.414 -0.4123 -0.3372 -0.1555
 9918TIP3    H151169   4.202   1.450  16.381 -0.0709 -0.0920  0.4222
 9918TIP3    H251170   4.064   1.408  16.426  0.2552 -0.6647  0.8867
 9919TIP3   OH251171   0.309   1.991   6.346  0.3695  0.0402 -0.2044
 9919TIP3    H151172   0.239   2.047   6.382 -0.6786 -1.1382 -0.3704
 9919TIP3    H251173   0.383   2.004   6.406 -0.1268  0.9808  0.2217
 9920TIP3   OH251174   2.430   4.540   0.588 -0.6238  0.2201  0.2621
 9920TIP3    H151175   2.496   4.609   0.590  0.3364 -0.6687  0.4346
 9920TIP3    H251176   2.456   4.481   0.660 -0.1239 -1.4546 -1.2402
 9921TIP3   OH251177   3.448   4.642  12.119  0.6125 -0.0281  0.1443
 9921TIP3    H151178   3.519   4.580  12.101  2.6785  2.2458  0.1966
 9921TIP3    H251179   3.399   4.647  12.037  2.7383  1.1276 -1.1167
 9922TIP3   OH251180   6.380   0.651  15.337  0.0645  0.3182 -0.3415
 9922TIP3    H151181   6.454   0.616  15.387  0.0862 -1.0709 -1.3072
 9922TIP3    H251182   6.332   0.706  15.400  0.6074 -0.6505  0.9459
 9923TIP3   OH251183   0.075   1.064  13.513  0.2417 -0.1192  0.2998
 9923TIP3    H151184   0.061   0.990  13.454 -2.1969  0.0325  0.6414
 9923TIP3    H251185   0.157   1.103  13.482 -0.1549 -0.9731 -1.9943
 9924TIP3   OH251186   0.340   2.763   4.330  0.7842  0.4142 -0.0344
 9924TIP3    H151187   0.370   2.849   4.301 -3.6246  1.4433 -1.9419
 9924TIP3    H251188   0.319   2.717   4.249  0.0599 -1.3030  1.1089
 9925TIP3   OH251189   0.182   3.167  14.786  1.1656 -0.4040 -0.5056
 9925TIP3    H151190   0.178   3.098  14.852  0.9220  0.8729  0.8338
 9925TIP3    H251191   0.104   3.220  14.801  2.0025  0.9077 -0.6855
 9926TIP3   OH251192   0.873   4.956   0.676  0.3842 -0.2845 -0.0906
 9926TIP3    H151193   0.832   5.028   0.724  0.8728 -0.9332  1.2951
 9926TIP3    H251194   0.965   4.960   0.700  0.5815 -0.7973 -0.7502
 9927TIP3   OH251195   0.389   1.298  12.235 -0.4138  0.0796  0.0063
 9927TIP3    H151196   0.383   1.376  12.180  3.2291  0.1927 -0.3251
 9927TIP3    H251197   0.409   1.331  12.322 -1.8746 -0.3443  0.5125
 9928TIP3   OH251198   6.218   4.486  14.525 -0.3842 -0.1064  0.1822
 9928TIP3    H151199   6.199   4.425  14.597  0.0605 -0.6654 -0.1674
 9928TIP3    H251200   6.141   4.480  14.468 -1.7365  2.0221  1.7439
 9929TIP3   OH251201   0.459   4.420   6.379  0.0504 -0.3210 -0.0815
 9929TIP3    H151202   0.470   4.422   6.284  1.1861 -0.6633  0.0256
 9929TIP3    H251203   0.406   4.342   6.395  0.6484 -0.8014 -0.3800
 9930TIP3   OH251204   1.199   1.142  16.606  0.4627  0.1563 -0.1571
 9930TIP3    H151205   1.217   1.057  16.567  1.3564 -0.5819  1.8095
 9930TIP3    H251206   1.224   1.205  16.538  0.0515 -1.1197 -1.5239
 9931TIP3   OH251207   5.468   4.183   0.788  0.6075 -0.3078 -0.0384
 9931TIP3    H151208   5.464   4.163   0.881 -1.4796 -0.8794 -0.2467
 9931TIP3    H251209   5.382   4.217   0.766  0.1192 -2.8207 -2.3536
 9932TIP3   OH251210   0.449   2.364  11.626  0.0944  0.1684  0.0986
 9932TIP3    H151211   0.481   2.278  11.652  0.8671  0.2207 -0.6521
 9932TIP3    H251212   0.354   2.354  11.618  0.0711 -0.3442  1.0173
 9933TIP3   OH251213   5.988   5.207  13.193  0.1085  0.1998  0.2888
 9933TIP3    H151214   6.029   5.205  13.106  0.4950 -1.9819  0.4996
 9933TIP3    H251215   6.060   5.225  13.253  0.2521 -0.5629  0.3573
 9934TIP3   OH251216   1.838   0.526   1.479 -0.5344 -0.2567  0.0348
 9934TIP3    H151217   1.774   0.532   1.550 -0.0135  0.6179  0.4309
 9934TIP3    H251218   1.810   0.592   1.415 -1.0715 -1.1202 -0.6480
 9935TIP3   OH251219   2.304   1.626   2.895  0.0244  0.1027  0.2779
 9935TIP3    H151220   2.309   1.539   2.933 -0.9770  0.1237  0.4714
 9935TIP3    H251221   2.227   1.624   2.838  0.4641  0.6171 -0.3520
 9936TIP3   OH251222   3.982   0.269   5.227  0.4479 -0.1222  0.0264
 9936TIP3    H151223   3.895   0.246   5.258  0.3883 -1.6985 -1.2466
 9936TIP3    H251224   4.030   0.292   5.307 -0.3719 -1.8270  1.0412
 9937TIP3   OH251225   5.713   4.128   2.614 -0.6991 -0.0402 -0.5202
 9937TIP3    H151226   5.806   4.147   2.600 -0.7394  0.1433 -0.5498
 9937TIP3    H251227   5.668   4.178   2.546 -0.7389 -1.2019 -1.3442
 9938TIP3   OH251228   0.110   3.792  12.847  0.3245  0.8804  0.5129
 9938TIP3    H151229   0.183   3.790  12.910  0.9478  0.3529 -0.2241
 9938TIP3    H251230   0.067   3.707  12.858 -2.1537  2.3868  3.2346
 9939TIP3   OH251231   3.346   4.584  16.774  0.0513 -0.4771  0.2158
 9939TIP3    H151232   3.364   4.550  16.687  1.2237 -0.1812  0.3330
 9939TIP3    H251233   3.432   4.590  16.816 -0.6082 -1.5941  1.7512
 9940TIP3   OH251234   3.802   6.515  10.978  0.4719 -0.1280  0.3121
 9940TIP3    H151235   3.846   6.451  10.922  0.5014 -1.4027  1.7624
 9940TIP3    H251236   3.710   6.510  10.953  0.5989 -0.1163 -0.1607
 9941TIP3   OH251237   1.984   5.540   5.704  0.3292  0.4455  0.7698
 9941TIP3    H151238   2.046   5.605   5.670  1.7288 -0.8000  0.9100
 9941TIP3    H251239   1.975   5.476   5.633 -0.1005  0.1438  1.0966
 9942TIP3   OH251240   6.467   4.697  13.822 -0.5081  0.4343 -0.1486
 9942TIP3    H151241   6.517   4.616  13.837  1.1772  1.4924  0.0802
 9942TIP3    H251242   6.427   4.716  13.907  0.4110  0.7078  0.2306
 9943TIP3   OH251243   1.252   4.694  12.260 -0.0092 -0.1500 -0.9159
 9943TIP3    H151244   1.331   4.701  12.313 -0.4561  0.7770 -0.3564
 9943TIP3    H251245   1.275   4.733  12.176  0.5775 -1.2506 -1.2795
 9944TIP3   OH251246   3.769   2.416  10.754 -0.8735 -0.0587  0.4462
 9944TIP3    H151247   3.838   2.422  10.820 -0.7950  0.3629  0.3270
 9944TIP3    H251248   3.756   2.506  10.724 -0.1131 -0.3807 -0.9325
 9945TIP3   OH251249   0.830   1.145   6.469 -0.2880 -0.4174 -0.0104
 9945TIP3    H151250   0.785   1.086   6.409 -0.4146 -1.9723  1.5641
 9945TIP3    H251251   0.760   1.194   6.511 -0.3187 -0.6827  0.2474
 9946TIP3   OH251252   3.413   0.427  12.687 -0.1815  0.3809  0.8917
 9946TIP3    H151253   3.378   0.360  12.746 -1.7777  2.3169  2.1860
 9946TIP3    H251254   3.377   0.405  12.601 -1.7502  0.3142  1.5591
 9947TIP3   OH251255   2.491   2.379  14.414  0.1844  0.3708  0.0935
 9947TIP3    H151256   2.550   2.371  14.489  0.8448  2.6831 -0.1615
 9947TIP3    H251257   2.549   2.382  14.338 -0.4430 -0.9264 -0.4659
 9948TIP3   OH251258   3.111   2.777   3.702 -0.3284  0.0488  0.6194
 9948TIP3    H151259   3.153   2.708   3.652 -1.1966  0.6906 -1.0088
 9948TIP3    H251260   3.182   2.818   3.751  0.3265 -1.3850  0.8872
 9949TIP3   OH251261   4.149   0.332  14.652  0.2276  0.2623 -0.0159
 9949TIP3    H151262   4.098   0.279  14.591 -1.3942 -0.2739  1.7593
 9949TIP3    H251263   4.185   0.269  14.715  1.7081  0.8248 -0.2805
 9950TIP3   OH251264   1.769   3.837  16.227  0.2428  0.2245 -0.3070
 9950TIP3    H151265   1.712   3.891  16.283  1.3438  1.3745 -0.2668
 9950TIP3    H251266   1.753   3.870  16.138 -1.0351 -1.1778 -0.6252
 9951TIP3   OH251267   2.956   1.537   1.407 -0.6974 -0.0499 -0.0779
 9951TIP3    H151268   2.969   1.468   1.472 -2.7609  1.0402  1.5614
 9951TIP3    H251269   2.904   1.496   1.338 -1.7415 -0.2205  0.7905
 9952TIP3   OH251270   3.545   2.917   1.478  0.3498  0.1176  0.7037
 9952TIP3    H151271   3.566   2.895   1.569  1.6703  0.2702  0.4425
 9952TIP3    H251272   3.609   2.984   1.454  1.4877 -1.5262 -1.0575
 9953TIP3   OH251273   0.006   5.753   0.156  0.0433 -0.1909  0.0355
 9953TIP3    H151274  -0.061   5.699   0.199 -0.7154  0.3380 -0.4785
 9953TIP3    H251275   0.089   5.715   0.185 -0.4788 -1.0560  0.4144
 9954TIP3   OH251276   3.872   1.798   5.465 -0.4236  0.5097  0.2031
 9954TIP3    H151277   3.870   1.702   5.475 -1.5952  0.3944 -0.9784
 9954TIP3    H251278   3.932   1.813   5.392  2.2497  0.8962  2.3919
 9955TIP3   OH251279   0.744   3.736  14.376 -0.1026 -0.2651 -0.2560
 9955TIP3    H151280   0.729   3.648  14.412  1.0722 -0.5063 -0.3446
 9955TIP3    H251281   0.756   3.791  14.453  1.6189 -0.6389 -0.2339
 9956TIP3   OH251282   4.964   6.114   2.283 -0.5422 -0.0901  0.2032
 9956TIP3    H151283   5.004   6.201   2.286 -1.2049  0.2663 -1.0749
 9956TIP3    H251284   4.979   6.078   2.371  0.1555  1.1206  0.5937
 9957TIP3   OH251285   3.595   0.154  12.188 -0.2531  0.1426 -0.1442
 9957TIP3    H151286   3.680   0.137  12.227  0.2147 -0.4146 -1.3792
 9957TIP3    H251287   3.545   0.074  12.204 -0.5168  0.4330  0.4973
 9958TIP3   OH251288   2.687   1.509   2.435 -0.1185 -0.3067  0.1691
 9958TIP3    H151289   2.763   1.481   2.486  0.6982  0.6043 -0.5128
 9958TIP3    H251290   2.630   1.552   2.498  1.4275  1.8685  0.1416
 9959TIP3   OH251291   2.370   2.619   5.358  0.5138 -0.0016  0.2405
 9959TIP3    H151292   2.282   2.650   5.336  0.6244 -1.1473 -2.0231
 9959TIP3    H251293   2.427   2.694   5.342  0.2773 -0.1078 -1.1945
 9960TIP3   OH251294   4.951   4.075   0.904  0.1568 -0.0409 -0.0918
 9960TIP3    H151295   4.938   4.072   0.999 -1.4183 -0.2578 -0.3014
 9960TIP3    H251296   4.936   3.985   0.875  2.7308 -0.4392 -0.3125
 9961TIP3   OH251297   5.585   1.101  13.013 -0.6966 -0.0451 -1.4723
 9961TIP3    H151298   5.634   1.182  13.022  0.8017 -0.8977 -1.8626
 9961TIP3    H251299   5.531   1.097  13.092 -0.8871  1.3930 -1.5247
 9962TIP3   OH251300   6.273   3.253   1.547 -0.2696 -0.4621  0.9145
 9962TIP3    H151301   6.260   3.180   1.487  1.0178  0.3441 -0.3981
 9962TIP3    H251302   6.185   3.277   1.576 -0.7975 -1.7061  0.3720
 9963TIP3   OH251303   5.484   0.208  12.950 -0.2160 -0.1087  0.0184
 9963TIP3    H151304   5.477   0.287  12.897  1.2398  0.4784  0.6530
 9963TIP3    H251305   5.512   0.140  12.889 -2.6738 -0.4534 -0.7797
 9964TIP3   OH251306   0.084   4.603   3.839 -0.1684  0.0246  0.3217
 9964TIP3    H151307  -0.004   4.565   3.842 -0.8058  1.4936  0.6531
 9964TIP3    H251308   0.069   4.698   3.838  1.3944  0.2744 -0.3999
 9965TIP3   OH251309   5.108   6.084   6.365  0.1243 -0.2193  0.5175
 9965TIP3    H151310   5.093   6.170   6.402 -0.4708 -0.6563  1.3046
 9965TIP3    H251311   5.053   6.025   6.417 -1.6972 -0.6768 -1.7981
 9966TIP3   OH251312   3.185   6.433  15.060  0.4096 -0.2469 -0.3672
 9966TIP3    H151313   3.257   6.469  15.111  0.0223 -0.4207  0.3113
 9966TIP3    H251314   3.157   6.505  15.004  0.2181  0.2367  0.3477
 9967TIP3   OH251315   0.078   0.696   1.856  0.7712 -0.4910  1.0181
 9967TIP3    H151316   0.144   0.628   1.868 -1.3967 -2.9992 -0.7350
 9967TIP3    H251317   0.049   0.685   1.765 -2.1217  0.4708  1.7818
 9968TIP3   OH251318   1.410   5.718  13.548 -0.5582  0.5679 -0.0761
 9968TIP3    H151319   1.326   5.724  13.593 -0.9697 -0.2951 -0.6986
 9968TIP3    H251320   1.435   5.626  13.555  2.3733  1.4934  3.6504
 9969TIP3   OH251321   1.559   2.955  17.020 -0.3288 -0.0214  0.5279
 9969TIP3    H151322   1.503   3.010  17.075  0.8868  0.6780  1.0861
 9969TIP3    H251323   1.518   2.868  17.024 -2.4490  0.8849 -0.6263
 9970TIP3   OH251324   5.214   5.987   0.800 -0.1881  0.4144  0.3143
 9970TIP3    H151325   5.237   6.069   0.843 -1.1968  0.2578  1.1678
 9970TIP3    H251326   5.121   5.997   0.779  0.2181  0.3673 -1.5589
 9971TIP3   OH251327   3.649   2.756  16.390  0.8381 -0.4070  0.2704
 9971TIP3    H151328   3.564   2.743  16.431 -0.4040  0.2866 -2.0074
 9971TIP3    H251329   3.697   2.675  16.407 -0.5373 -1.0950  0.9421
 9972TIP3   OH251330   4.683   3.200  14.800 -0.4647 -0.3452 -0.1448
 9972TIP3    H151331   4.636   3.218  14.882  0.2969  1.1116 -0.0022
 9972TIP3    H251332   4.631   3.244  14.733 -0.0880  0.0514 -0.1807
 9973TIP3   OH251333   5.926   2.314  16.043 -0.5712  0.0598  0.2829
 9973TIP3    H151334   5.957   2.381  15.982 -0.7308 -0.6665 -0.6183
 9973TIP3    H251335   5.946   2.231  15.999 -0.6945 -0.4780  1.2216
 9974TIP3   OH251336   6.215   1.068   0.494 -0.6026 -0.1596  0.6277
 9974TIP3    H151337   6.252   1.146   0.453  1.7064 -1.3031  0.4748
 9974TIP3    H251338   6.120   1.080   0.487 -0.2992  0.7540 -3.0365
 9975TIP3   OH251339   5.727   3.312   3.939 -0.1384  0.3714  0.0110
 9975TIP3    H151340   5.740   3.407   3.941  0.8898  0.2866 -1.6177
 9975TIP3    H251341   5.715   3.292   3.846 -1.4161 -0.9612  0.4574
 9976TIP3   OH251342   3.120   6.622   3.065  0.0664  0.2407  0.0440
 9976TIP3    H151343   3.213   6.602   3.070  0.1711  1.3018  3.7989
 9976TIP3    H251344   3.076   6.541   3.092 -0.0799  0.0929 -0.6239
 9977TIP3   OH251345   4.336   1.683   5.369  0.1237  0.1222 -0.9583
 9977TIP3    H151346   4.345   1.592   5.341 -1.5500  0.2802 -2.0942
 9977TIP3    H251347   4.419   1.704   5.412  0.3866 -2.0524 -0.3530
 9978TIP3   OH251348   5.546   5.309   2.011  0.1615 -0.0186 -0.7138
 9978TIP3    H151349   5.531   5.216   2.029 -1.5131  0.5609  1.1252
 9978TIP3    H251350   5.458   5.344   1.999  0.6226  1.7377  0.8050
 9979TIP3   OH251351   1.680   0.334   1.668 -0.0780  1.0747  0.2235
 9979TIP3    H151352   1.604   0.392   1.659 -0.9232  0.2819  2.1280
 9979TIP3    H251353   1.678   0.280   1.589 -1.1539  1.4340 -0.0060
 9980TIP3   OH251354   1.037   3.933  13.816 -0.3874  0.4980 -0.1999
 9980TIP3    H151355   0.966   3.869  13.810 -0.9337  0.7704  2.4629
 9980TIP3    H251356   0.993   4.018  13.806 -0.5004  0.6786  1.6702
 9981TIP3   OH251357   3.606   4.109  13.289  0.2264 -0.4537 -0.5748
 9981TIP3    H151358   3.560   4.025  13.284 -0.6239 -0.0747  0.5796
 9981TIP3    H251359   3.591   4.149  13.203  2.5163 -2.4160 -1.9457
 9982TIP3   OH251360   4.713   0.069  13.556  0.5332 -0.4818  0.3213
 9982TIP3    H151361   4.687   0.026  13.475  1.8709 -0.0973 -0.3219
 9982TIP3    H251362   4.759   0.000  13.605 -0.1643 -0.6790  0.7008
 9983TIP3   OH251363   4.342   6.533   4.621 -0.2413  0.3673 -0.0951
 9983TIP3    H151364   4.278   6.555   4.688 -0.4565 -0.7895  0.1007
 9983TIP3    H251365   4.423   6.572   4.651 -0.6220  0.9455  0.1909
 9984TIP3   OH251366   5.025   2.067  13.807  0.0071  0.0694 -0.3207
 9984TIP3    H151367   4.975   2.137  13.850  0.0211  0.8017 -1.4792
 9984TIP3    H251368   4.958   2.007  13.774 -0.0180 -0.2631  0.3298
 9985TIP3   OH251369   2.248   4.513   4.154  0.3838 -0.5415  0.6916
 9985TIP3    H151370   2.223   4.511   4.247  2.9369 -1.8956  1.3857
 9985TIP3    H251371   2.247   4.421   4.128  1.3986 -0.3105 -0.1537
 9986TIP3   OH251372   3.709   2.745   4.305 -0.0635 -0.2597 -0.3061
 9986TIP3    H151373   3.683   2.735   4.396  0.2822  1.6996  0.0283
 9986TIP3    H251374   3.746   2.660   4.282  1.0892 -0.3776  1.8045
 9987TIP3   OH251375   2.363   1.187  12.030 -0.5041  0.5832 -0.8536
 9987TIP3    H151376   2.388   1.268  12.074 -1.5475  0.1690  0.5660
 9987TIP3    H251377   2.267   1.185  12.038 -0.4378 -1.1214 -0.2224
 9988TIP3   OH251378   2.916   0.175   2.213 -0.2607  0.1344 -0.6274
 9988TIP3    H151379   2.972   0.119   2.268  0.7810  1.1691 -0.6057
 9988TIP3    H251380   2.911   0.130   2.129  2.8126  1.2704 -1.5044
 9989TIP3   OH251381   6.753   0.352  12.947 -0.0899  0.1255 -0.1682
 9989TIP3    H151382   6.703   0.417  12.995 -0.7657  0.2033 -0.9667
 9989TIP3    H251383   6.703   0.270  12.958  0.2393 -0.0533  0.0183
 9990TIP3   OH251384   2.169   4.751  11.528  0.3571 -0.4133 -0.3922
 9990TIP3    H151385   2.102   4.685  11.510 -1.0994  0.6514  1.0019
 9990TIP3    H251386   2.238   4.703  11.573 -0.9411 -0.9078  1.1264
 9991TIP3   OH251387   6.338   0.147   4.463 -1.0355  0.0766 -0.2528
 9991TIP3    H151388   6.376   0.103   4.539 -2.8679 -4.4985 -1.8154
 9991TIP3    H251389   6.412   0.167   4.407 -0.2160 -2.3610 -0.1066
 9992TIP3   OH251390   0.411   4.768  16.648 -0.1943  0.4534 -0.7076
 9992TIP3    H151391   0.498   4.808  16.650 -0.1536  0.3519 -0.4656
 9992TIP3    H251392   0.385   4.773  16.556 -0.9696  2.7264 -0.3988
 9993TIP3   OH251393   5.364   6.394  16.026  0.8285 -0.0620 -0.5137
 9993TIP3    H151394   5.432   6.364  15.966  0.8239 -1.0071 -0.0628
 9993TIP3    H251395   5.370   6.335  16.101 -0.3407 -0.0257 -0.3729
 9994TIP3   OH251396   2.565   0.520  13.352 -0.2792 -0.0989 -0.0439
 9994TIP3    H151397   2.582   0.605  13.312  1.0335 -1.3904 -2.3351
 9994TIP3    H251398   2.645   0.501  13.402 -0.4375 -0.1600  0.1886
 9995TIP3   OH251399   5.949   5.558   3.318 -0.2392 -0.6820 -0.1634
 9995TIP3    H151400   5.988   5.575   3.404 -1.1542 -0.9124  0.2986
 9995TIP3    H251401   5.866   5.514   3.337 -1.0381  0.3861 -1.1250
 9996TIP3   OH251402   5.457   4.222   3.278 -0.4050  0.0231  0.2975
 9996TIP3    H151403   5.423   4.137   3.308  0.3302  0.1277  1.4618
 9996TIP3    H251404   5.475   4.270   3.359 -2.5299  1.9978 -0.3450
 9997TIP3   OH251405   2.030   2.840  11.322  0.6944  0.2964  0.2216
 9997TIP3    H151406   1.958   2.854  11.261  2.1921  0.1931 -1.6464
 9997TIP3    H251407   2.011   2.756  11.364 -1.2462  1.2098  1.2174
 9998TIP3   OH251408   2.706   5.939   3.922 -0.2688 -0.5088  0.2611
 9998TIP3    H151409   2.683   5.881   3.995  1.0506 -1.0948  0.2179
 9998TIP3    H251410   2.628   5.940   3.867 -0.4328 -1.9671  0.4520
 9999TIP3   OH251411   3.471   6.672   2.107  0.5074  0.2234  0.0876
 9999TIP3    H151412   3.444   6.632   2.190  0.2003 -1.2260 -0.7087
 9999TIP3    H251413   3.466   6.767   2.124  0.9027 -0.0497  1.8643
10000TIP3   OH251414   5.456   1.567   5.060 -0.1653 -0.3776 -0.3974
10000TIP3    H151415   5.489   1.648   5.098 -0.5714 -0.2147 -0.3970
10000TIP3    H251416   5.399   1.530   5.127  0.4903 -0.9669 -0.1561
10001TIP3   OH251417   3.994   0.741  13.428  0.0205 -0.2041  0.3394
10001TIP3    H151418   3.932   0.748  13.500  1.1131  0.5373  1.2276
10001TIP3    H251419   4.054   0.671  13.455  0.9514  0.6711  0.5559
10002TIP3   OH251420   4.410   1.384   1.958  0.5892 -0.0805 -0.8412
10002TIP3    H151421   4.410   1.332   2.039  0.1077  0.9564 -0.1705
10002TIP3    H251422   4.374   1.325   1.892 -0.8240 -0.2990  0.1164
10003TIP3   OH251423   0.470   5.900  13.486  0.2493  0.0459  0.0875
10003TIP3    H151424   0.436   5.931  13.402 -1.2332 -1.1580  0.2272
10003TIP3    H251425   0.413   5.940  13.551  0.8290  0.2389  0.4841
10004TIP3   OH251426   1.449   0.378  15.491  0.1058  0.2381  0.9191
10004TIP3    H151427   1.493   0.449  15.444 -0.8715 -0.2007 -0.6895
10004TIP3    H251428   1.356   0.395  15.480 -0.1359 -0.7025  1.4281
10005TIP3   OH251429   0.486   4.789   2.265 -0.2551 -0.8962  0.0407
10005TIP3    H151430   0.396   4.788   2.230 -0.5381 -0.1701  0.7186
10005TIP3    H251431   0.482   4.851   2.338  0.9699 -0.3226 -0.3713
10006TIP3   OH251432   5.947   3.136  12.575 -0.4298  0.1232  0.3126
10006TIP3    H151433   5.897   3.156  12.654 -0.5470  1.5580 -0.1020
10006TIP3    H251434   5.924   3.207  12.514 -1.6428 -1.8724 -1.5997
10007TIP3   OH251435   5.828   3.293   3.646  0.2548 -0.2776  0.2246
10007TIP3    H151436   5.860   3.381   3.626  1.1214 -0.6161  0.1321
10007TIP3    H251437   5.733   3.298   3.631  0.2897  0.6691  0.3272
10008TIP3   OH251438   5.455   4.404  16.601  0.1334 -0.2691  0.4877
10008TIP3    H151439   5.466   4.465  16.674  0.7128  1.5110 -1.0348
10008TIP3    H251440   5.538   4.409  16.553 -0.9371  0.1022 -1.3943
10009TIP3   OH251441   0.064   2.381   1.962  0.3328 -0.5126  0.3241
10009TIP3    H151442   0.096   2.324   2.032  3.5479 -0.0780 -0.7137
10009TIP3    H251443   0.026   2.457   2.008  1.9462 -0.4659  1.6166
10010TIP3   OH251444   3.780   2.112   5.536  0.3267 -0.0468 -0.6386
10010TIP3    H151445   3.797   2.159   5.454  1.1574  3.1539  1.2505
10010TIP3    H251446   3.688   2.129   5.554  0.6388  0.9718  0.0687
10011TIP3   OH251447   5.179   6.159  15.261 -0.8379 -0.0020 -0.1283
10011TIP3    H151448   5.229   6.147  15.181  0.0086  1.6443  0.1384
10011TIP3    H251449   5.178   6.072  15.301  3.9057  0.3325  1.0580
10012TIP3   OH251450   2.571   4.800  14.994  0.7012 -0.0630  0.0397
10012TIP3    H151451   2.523   4.814  15.076  0.3677  0.5103 -0.2505
10012TIP3    H251452   2.538   4.717  14.961  1.0130 -0.4189  0.6059
10013TIP3   OH251453   3.729   2.753  13.135  0.0484 -0.0192 -0.3548
10013TIP3    H151454   3.679   2.731  13.056  1.0544 -1.6878 -0.5426
10013TIP3    H251455   3.663   2.760  13.204 -0.6742 -0.0446 -1.0352
10014TIP3   OH251456   3.679   5.137  13.320 -0.1620 -0.4574  0.0706
10014TIP3    H151457   3.632   5.109  13.399  0.2246  2.2441  1.3300
10014TIP3    H251458   3.761   5.175  13.354 -0.8237  2.4800 -1.4180
10015TIP3   OH251459   2.694   2.263   1.868  0.1275 -0.4119 -0.1151
10015TIP3    H151460   2.687   2.246   1.962 -1.0382  1.6606  0.1814
10015TIP3    H251461   2.787   2.279   1.854  0.0205  1.3830  1.0684
10016TIP3   OH251462   6.198   4.328   3.507  0.4102 -0.5003 -0.9108
10016TIP3    H151463   6.135   4.385   3.552 -0.1014 -1.9006  0.1944
10016TIP3    H251464   6.282   4.371   3.518  0.1097 -0.2458  0.4078
10017TIP3   OH251465   4.666   1.234  10.881  0.4088  0.3580 -0.3188
10017TIP3    H151466   4.624   1.178  10.946  0.8356 -0.0688 -0.4068
10017TIP3    H251467   4.675   1.178  10.804 -1.1160  1.1951 -1.1308
10018TIP3   OH251468   5.043   4.614   3.090 -0.2549 -0.3747 -0.3530
10018TIP3    H151469   5.046   4.704   3.121 -0.1337 -0.1404 -1.0447
10018TIP3    H251470   5.063   4.619   2.997 -0.2469 -1.1158 -0.4006
10019TIP3   OH251471   1.340   5.584   1.085  0.3393  0.0051 -0.5878
10019TIP3    H151472   1.307   5.516   1.026  1.1294 -0.1929 -0.8050
10019TIP3    H251473   1.278   5.657   1.074 -1.3863 -1.2150  0.7791
10020TIP3   OH251474   3.973   6.026  13.515 -0.2702 -0.0395  0.6957
10020TIP3    H151475   3.901   5.996  13.460 -2.9846  1.9986  2.9709
10020TIP3    H251476   3.987   6.117  13.488  1.2424 -0.3063  0.5208
10021TIP3   OH251477   0.243   0.353  12.926 -0.4999 -0.6601  0.2046
10021TIP3    H151478   0.277   0.402  13.001  1.6655 -2.5295  0.4933
10021TIP3    H251479   0.148   0.368  12.928 -0.1530  1.5477  1.6545
10022TIP3   OH251480   6.057   6.075  12.239  0.2821  0.6366  0.4159
10022TIP3    H151481   5.974   6.074  12.287  0.9968 -0.9095  1.6471
10022TIP3    H251482   6.035   6.041  12.153 -0.6434  1.6689  0.2227
10023TIP3   OH251483   5.845   3.800   5.727 -0.0235 -0.1831  0.0040
10023TIP3    H151484   5.785   3.728   5.748 -1.4305  0.6689 -1.0001
10023TIP3    H251485   5.864   3.789   5.634 -2.0761  2.0090 -0.7447
10024TIP3   OH251486   5.239   5.091   3.617 -0.7348  0.0929  0.0138
10024TIP3    H151487   5.230   5.178   3.578 -0.2112  0.1646  0.0533
10024TIP3    H251488   5.228   5.104   3.711 -0.6112  0.1240  0.0241
10025TIP3   OH251489   1.877   1.719   0.326  0.2089 -0.4223  0.2202
10025TIP3    H151490   1.867   1.635   0.370 -0.6279 -0.5057 -0.1238
10025TIP3    H251491   1.790   1.739   0.291  0.3297  0.7250  0.5510
10026TIP3   OH251492   4.088   1.306  17.181 -0.8215  0.6894  0.0553
10026TIP3    H151493   4.144   1.334  17.108  1.6943 -0.8079  1.3665
10026TIP3    H251494   4.015   1.261  17.139  0.9612 -0.7905 -1.5650
10027TIP3   OH251495   5.097   2.045  13.507  0.1395  0.4818  0.4517
10027TIP3    H151496   5.112   2.010  13.419 -0.2942  0.8527  0.2307
10027TIP3    H251497   5.178   2.092  13.527  0.2736  0.3260  0.2854
10028TIP3   OH251498   6.452   4.307  12.684 -0.2800  0.3554  0.6482
10028TIP3    H151499   6.501   4.225  12.684 -0.7373  0.0748  0.2895
10028TIP3    H251500   6.401   4.305  12.765  0.0857  0.5133  0.8801
10029TIP3   OH251501   6.642   3.044  11.341 -0.4573  0.1534  0.1162
10029TIP3    H151502   6.657   2.954  11.311  1.4320  0.4902  0.0048
10029TIP3    H251503   6.704   3.056  11.413 -0.5475  1.4389 -0.0127
10030TIP3   OH251504   5.452   2.302  11.951  0.2490  0.0957 -0.6244
10030TIP3    H151505   5.460   2.330  11.860 -0.4697  0.3525 -0.6108
10030TIP3    H251506   5.540   2.277  11.977  0.3648 -0.4541 -1.5539
10031TIP3   OH251507   4.922   6.119   5.836 -0.7779  0.0671  0.5743
10031TIP3    H151508   4.863   6.100   5.908 -0.9353 -0.7845  0.2313
10031TIP3    H251509   4.876   6.184   5.782 -0.8981  0.2750  0.9279
10032TIP3   OH251510   6.248   5.102  16.273 -0.6617 -0.4923 -0.5099
10032TIP3    H151511   6.233   5.196  16.281  0.2765 -0.2746 -1.2283
10032TIP3    H251512   6.343   5.094  16.259 -0.6969 -1.5594 -0.2142
10033TIP3   OH251513   1.581   5.801  13.768 -0.2115  0.0333 -0.8431
10033TIP3    H151514   1.564   5.766  13.681  1.2923  1.0765 -1.5744
10033TIP3    H251515   1.506   5.858  13.785 -0.6070 -0.3208 -1.3798
10034TIP3   OH251516   3.375   1.009  15.248  0.0648  0.0410 -0.2764
10034TIP3    H151517   3.341   0.920  15.258  0.1700  0.1076  0.6755
10034TIP3    H251518   3.463   1.006  15.286 -0.9315  1.2016  2.2032
10035TIP3   OH251519   4.016   1.665   6.234 -0.1095  0.8252 -0.2463
10035TIP3    H151520   3.984   1.750   6.265 -1.3081  0.0591  0.6324
10035TIP3    H251521   4.095   1.687   6.184 -0.0367  2.3976  0.5147
10036TIP3   OH251522   4.686   6.288   1.734 -0.1338  0.2038 -0.1272
10036TIP3    H151523   4.646   6.334   1.808 -0.7348 -0.5377  0.0190
10036TIP3    H251524   4.670   6.195   1.752  1.4115 -0.0890 -0.2262
10037TIP3   OH251525   6.064   1.018  14.966  0.5977  0.2221 -0.3916
10037TIP3    H151526   6.115   1.063  15.034  0.9429 -0.4884 -0.1712
10037TIP3    H251527   5.984   0.991  15.010  0.7985 -0.1920 -0.2726
10038TIP3   OH251528   3.407   5.393   5.073  0.0960  0.4097 -0.7731
10038TIP3    H151529   3.321   5.411   5.110  0.4316 -0.4218  0.4490
10038TIP3    H251530   3.418   5.298   5.083  0.6333  0.3284 -2.0597
10039TIP3   OH251531   5.854   3.247   4.278 -0.2823 -0.4069  0.2126
10039TIP3    H151532   5.818   3.243   4.190 -2.1007  0.8556  0.8730
10039TIP3    H251533   5.832   3.335   4.310  2.2538 -0.0656  1.1357
10040TIP3   OH251534   3.294   2.570  10.712  0.6058  0.1423 -0.2869
10040TIP3    H151535   3.245   2.559  10.631  1.0073  1.1188 -0.6661
10040TIP3    H251536   3.236   2.618  10.770  0.9900  1.0308 -0.6297
10041TIP3   OH251537   2.139   4.119  13.787  0.0265  0.2542 -0.7715
10041TIP3    H151538   2.192   4.071  13.851  0.5934  1.0456 -0.6433
10041TIP3    H251539   2.066   4.060  13.767  0.3051 -0.3453 -0.0370
10042TIP3   OH251540   2.300   4.482  15.511 -0.0602  0.1786  0.3933
10042TIP3    H151541   2.234   4.492  15.581 -0.0917 -0.7162  0.4879
10042TIP3    H251542   2.331   4.393  15.520 -0.8621 -0.3059 -1.4472
10043TIP3   OH251543   2.709   3.583  15.141 -0.0935  0.0420 -0.0636
10043TIP3    H151544   2.619   3.556  15.154 -0.3583 -0.2549 -2.2694
10043TIP3    H251545   2.751   3.508  15.100  0.8323  0.6476 -0.2556
10044TIP3   OH251546   5.878   0.486  11.529 -0.0895 -0.2097  0.0502
10044TIP3    H151547   5.916   0.518  11.447 -0.4326  1.1150  0.3966
10044TIP3    H251548   5.917   0.399  11.542  0.3909 -0.1905 -1.2216
10045TIP3   OH251549   5.366   0.367  15.552 -0.1234 -0.3425  0.7608
10045TIP3    H151550   5.275   0.382  15.530  0.1630  1.0702  0.4748
10045TIP3    H251551   5.415   0.412  15.483  0.7734  0.2156  1.7356
10046TIP3   OH251552   2.901   0.466  14.334 -0.7450 -0.1720  0.0049
10046TIP3    H151553   2.813   0.428  14.334 -0.6817 -0.3726  2.1506
10046TIP3    H251554   2.887   0.560  14.328 -0.9388 -0.3966 -4.1719
10047TIP3   OH251555   0.782   1.529   4.027 -0.3650 -0.0600 -0.0536
10047TIP3    H151556   0.760   1.485   4.109  0.8019 -1.0607 -0.2724
10047TIP3    H251557   0.711   1.592   4.015 -0.9937 -0.4786  1.2907
10048TIP3   OH251558   6.195   1.610   2.305  0.1386  0.3071 -0.0131
10048TIP3    H151559   6.233   1.677   2.362 -0.4643 -0.2540  1.0630
10048TIP3    H251560   6.101   1.629   2.305  0.3026  1.2248 -2.0481
10049TIP3   OH251561   3.534   2.532  14.427 -0.0419 -0.3414  0.1793
10049TIP3    H151562   3.451   2.487  14.442 -0.9526  0.6727 -1.6321
10049TIP3    H251563   3.511   2.625  14.429  1.1235 -0.0477  0.0848
10050TIP3   OH251564   1.372   1.410   5.560  0.2707 -0.0529 -0.3782
10050TIP3    H151565   1.366   1.461   5.479  0.5945  0.8323  0.1452
10050TIP3    H251566   1.441   1.453   5.611 -2.4696  1.7430  1.9828
10051TIP3   OH251567   5.508   6.727  11.116 -0.2211  0.5335 -0.2949
10051TIP3    H151568   5.591   6.717  11.069 -0.3119 -0.5481 -0.2516
10051TIP3    H251569   5.528   6.786  11.189  0.9122 -0.9269  0.6133
10052TIP3   OH251570   0.637   4.930   1.761  0.3569  0.0386 -0.5658
10052TIP3    H151571   0.689   4.862   1.805  1.7561  2.3835  1.5294
10052TIP3    H251572   0.690   4.954   1.684  0.6554 -0.1180 -0.4112
10053TIP3   OH251573   1.800   3.752   3.832 -0.0457 -0.0508 -0.2306
10053TIP3    H151574   1.776   3.787   3.917  1.1243  2.9779 -1.0898
10053TIP3    H251575   1.798   3.657   3.844 -1.8488  0.2684  2.5909
10054TIP3   OH251576   2.577   3.484   4.362  0.2837 -0.6021  0.4116
10054TIP3    H151577   2.524   3.516   4.436  1.0322  0.1484  0.6230
10054TIP3    H251578   2.559   3.545   4.291  2.0434  0.5624  0.9449
10055TIP3   OH251579   0.203   4.127   5.298  0.1932 -0.0553 -0.1663
10055TIP3    H151580   0.298   4.115   5.298  0.3083  0.8005 -0.1974
10055TIP3    H251581   0.187   4.190   5.368 -0.4626 -0.9633  0.5077
10056TIP3   OH251582   2.236   5.952  12.388  0.3268  0.2634 -0.5228
10056TIP3    H151583   2.151   5.952  12.432  0.4234 -0.8120 -0.3259
10056TIP3    H251584   2.290   5.894  12.442  0.9804  0.3997 -1.0351
10057TIP3   OH251585   0.782   3.117  15.371 -0.4900 -0.4015  0.0765
10057TIP3    H151586   0.785   3.182  15.441 -1.2703 -1.3968  1.0602
10057TIP3    H251587   0.845   3.050  15.399 -2.6265 -2.0345  1.1059
10058TIP3   OH251588   3.601   1.109   2.271 -0.1775 -0.0305  0.0366
10058TIP3    H151589   3.514   1.150   2.278 -0.8706 -1.2631 -0.9727
10058TIP3    H251590   3.582   1.016   2.255  1.3341 -0.2337 -0.6570
10059TIP3   OH251591   6.760   5.503  17.053  0.1914  0.7477 -0.3521
10059TIP3    H151592   6.758   5.422  17.104 -1.8994  1.5337  0.8532
10059TIP3    H251593   6.752   5.474  16.962 -1.7030 -0.3438  0.1346
10060TIP3   OH251594   2.523   5.769   3.551  0.1530  0.4198 -0.1966
10060TIP3    H151595   2.586   5.700   3.572 -0.4942  0.0761  0.6228
10060TIP3    H251596   2.538   5.837   3.616  1.5202  1.5535 -1.6446
10061TIP3   OH251597   6.313   4.100   3.054 -0.4700 -0.0103 -0.4981
10061TIP3    H151598   6.229   4.055   3.064 -0.3610 -0.1624 -0.2567
10061TIP3    H251599   6.315   4.163   3.127 -0.5801  0.3217 -0.7781
10062TIP3   OH251600   3.375   0.299   6.160 -0.3651 -0.0836 -0.3081
10062TIP3    H151601   3.317   0.230   6.193 -2.0919  1.6716  0.4073
10062TIP3    H251602   3.333   0.381   6.187  1.0684  1.2880 -2.1040
10063TIP3   OH251603   5.007   2.565  11.547  0.2980 -0.0266  0.3244
10063TIP3    H151604   5.031   2.604  11.463  1.6706 -0.6815  0.4039
10063TIP3    H251605   4.915   2.590  11.560  0.4883  1.2412 -0.7071
10064TIP3   OH251606   4.474   0.652  10.323  0.0432 -0.1585  0.1129
10064TIP3    H151607   4.431   0.606  10.396 -0.1751  0.5973  0.4756
10064TIP3    H251608   4.428   0.736  10.319  1.7200  0.7956  0.7144
10065TIP3   OH251609   0.202   3.450   5.998 -0.0984  0.2155 -0.1337
10065TIP3    H151610   0.247   3.474   6.079  1.9263  0.0003 -1.1491
10065TIP3    H251611   0.127   3.398   6.026  1.1340 -0.6848  1.5484
10066TIP3   OH251612   0.107   0.391  10.924  0.0748 -0.1454  0.2891
10066TIP3    H151613   0.028   0.440  10.897 -0.4070 -1.6938 -1.2055
10066TIP3    H251614   0.172   0.459  10.941 -0.3376  1.0626 -2.5379
10067TIP3   OH251615   3.501   5.874  11.097 -0.0629  0.2054 -0.5308
10067TIP3    H151616   3.462   5.838  11.018 -0.2595 -1.5509  0.3428
10067TIP3    H251617   3.558   5.804  11.130 -0.1014  0.8584  0.9690
10068TIP3   OH251618   2.280   2.097   2.046  0.4885  0.1656  0.3042
10068TIP3    H151619   2.209   2.063   1.992 -0.0353  2.6326 -0.5938
10068TIP3    H251620   2.360   2.075   1.998  0.0966  1.1791 -0.8186
10069TIP3   OH251621   2.923   2.634   5.688 -0.1569  0.1166 -0.0221
10069TIP3    H151622   2.899   2.542   5.692 -1.1506  0.3230 -0.9571
10069TIP3    H251623   2.999   2.637   5.629  0.3389 -0.1895  0.6007
10070TIP3   OH251624   5.537   6.523  12.733  0.1534  0.1428  0.3649
10070TIP3    H151625   5.504   6.445  12.689 -0.4867  0.1894  0.7637
10070TIP3    H251626   5.514   6.511  12.825 -1.0057  1.3527  0.2528
10071TIP3   OH251627   6.213   3.956   2.795  0.1055  0.3469  0.3523
10071TIP3    H151628   6.253   3.905   2.864 -0.1483 -0.7067 -0.2652
10071TIP3    H251629   6.234   3.909   2.714  2.9001  3.1245 -0.6297
10072TIP3   OH251630   5.966   0.907  11.788  0.2008 -0.1632  0.5230
10072TIP3    H151631   6.002   0.989  11.822  3.6659 -0.9580 -1.0265
10072TIP3    H251632   5.919   0.932  11.709 -2.1882  0.7862  2.1690
10073TIP3   OH251633   5.773   3.959   4.749 -0.6505 -0.2605  0.0237
10073TIP3    H151634   5.846   3.946   4.689 -1.3414 -1.0357 -0.6690
10073TIP3    H251635   5.810   3.943   4.836  0.4863  1.4089 -0.1223
10074TIP3   OH251636   2.811   0.828  15.432 -0.5369 -0.1777  0.2428
10074TIP3    H151637   2.881   0.812  15.495  1.3629  3.0965 -0.9705
10074TIP3    H251638   2.731   0.810  15.482  1.0044 -0.1461  2.8322
10075TIP3   OH251639   6.281   3.271   5.244 -0.0550 -0.1401 -0.5132
10075TIP3    H151640   6.300   3.237   5.156 -0.0310  0.1326 -0.6136
10075TIP3    H251641   6.186   3.277   5.247  0.0266  1.9329 -1.3164
10076TIP3   OH251642   4.801   1.563   2.259  0.0454  0.0367 -0.0470
10076TIP3    H151643   4.734   1.577   2.192 -2.3071 -0.3613  2.1428
10076TIP3    H251644   4.876   1.529   2.211 -1.2360  0.6717 -2.6013
10077TIP3   OH251645   0.138   5.352   0.116 -0.1171  0.1813 -0.4888
10077TIP3    H151646   0.056   5.387   0.151 -0.7517 -0.2802 -1.4938
10077TIP3    H251647   0.189   5.328   0.193 -0.5616  1.2966  0.1659
10078TIP3   OH251648   2.215   2.911   2.850 -0.1063 -0.1044 -0.0817
10078TIP3    H151649   2.299   2.957   2.859 -0.2380 -0.0577  1.0553
10078TIP3    H251650   2.229   2.828   2.896  0.5564 -1.8272 -3.2536
10079TIP3   OH251651   1.567   2.757   5.063  0.0836  0.4289 -0.1749
10079TIP3    H151652   1.616   2.695   5.009  1.2260 -0.0031  1.3146
10079TIP3    H251653   1.630   2.828   5.080 -0.6384  1.1211 -0.3780
10080TIP3   OH251654   6.647   4.921  11.693  0.2444 -0.3316  0.0007
10080TIP3    H151655   6.553   4.942  11.692  0.2469 -0.3739 -1.4526
10080TIP3    H251656   6.674   4.940  11.783 -0.6815  1.7240 -0.1309
10081TIP3   OH251657   2.535   3.316  12.778  0.1375 -0.3033 -0.2375
10081TIP3    H151658   2.548   3.260  12.855  0.1681  0.2527  0.1604
10081TIP3    H251659   2.569   3.401  12.804  1.6121 -0.4976 -1.3911
10082TIP3   OH251660   0.531   5.384   3.786  0.4297  0.2866  0.1420
10082TIP3    H151661   0.460   5.322   3.799 -0.2870  1.1514  0.3937
10082TIP3    H251662   0.609   5.330   3.775 -0.0726 -0.6268  1.0800
10083TIP3   OH251663   3.534   4.067   1.589 -0.0084 -0.1907 -0.5941
10083TIP3    H151664   3.522   4.008   1.515  1.4313 -0.9583 -0.2393
10083TIP3    H251665   3.543   4.008   1.665 -1.7088  0.5877  0.2220
10084TIP3   OH251666   5.691   0.637  12.887 -0.2439 -0.0399  0.1416
10084TIP3    H151667   5.779   0.668  12.908  0.2005 -0.7610 -0.6431
10084TIP3    H251668   5.647   0.712  12.848 -0.2824  0.5951  1.3817
10085TIP3   OH251669   4.058   2.062  11.295 -0.0185  0.5654  0.1864
10085TIP3    H151670   3.977   2.092  11.336  1.4328  3.4688  1.0622
10085TIP3    H251671   4.033   2.038  11.206 -1.9711  0.7405  0.6804
10086TIP3   OH251672   1.683   5.807  16.125  0.0352  0.5045 -0.1147
10086TIP3    H151673   1.651   5.717  16.118 -0.3884  0.7576 -1.6354
10086TIP3    H251674   1.671   5.829  16.218  0.5555 -1.1385  0.3712
10087TIP3   OH251675   3.705   6.440   4.756  0.3207 -0.8224  0.9990
10087TIP3    H151676   3.615   6.409   4.755  0.1189 -0.2942 -1.1405
10087TIP3    H251677   3.699   6.531   4.785 -0.1778  0.0269 -1.6068
10088TIP3   OH251678   1.023   5.358  13.385  0.1200 -0.1237  0.2613
10088TIP3    H151679   0.994   5.342  13.474 -0.6380  1.5766  0.3328
10088TIP3    H251680   1.106   5.405  13.395 -0.4900  1.0180  0.1002
10089TIP3   OH251681   2.404   1.580  15.022  0.0492 -0.0468 -0.0439
10089TIP3    H151682   2.478   1.622  15.065  0.6417  0.9678 -1.9789
10089TIP3    H251683   2.333   1.584  15.086  1.4394 -0.3431  1.5481
10090TIP3   OH251684   3.271   3.037   6.052 -0.1860  0.0240  0.2134
10090TIP3    H151685   3.229   3.121   6.035 -0.6137 -0.5849 -1.9484
10090TIP3    H251686   3.241   3.012   6.139 -0.6876  1.7309  0.5437
10091TIP3   OH251687   0.516   5.663   1.099  0.3020 -0.2686 -0.3617
10091TIP3    H151688   0.481   5.587   1.052 -0.9249  0.5409 -0.7820
10091TIP3    H251689   0.568   5.709   1.033  0.2654 -0.2336 -0.3660
10092TIP3   OH251690   1.449   3.967  14.668 -0.3645  0.2073 -0.1809
10092TIP3    H151691   1.393   4.019  14.727  1.4083  0.8405  1.0090
10092TIP3    H251692   1.505   3.916  14.727  0.2302 -0.4958 -1.3335
10093TIP3   OH251693   6.288   0.665  11.333  0.2928 -0.1852  0.0232
10093TIP3    H151694   6.224   0.736  11.340  1.4643  1.0292 -1.3416
10093TIP3    H251695   6.267   0.622  11.250  1.1393  0.1194 -0.3506
10094TIP3   OH251696   3.639   2.232  12.405 -0.0966 -0.0409  0.4060
10094TIP3    H151697   3.686   2.149  12.414  0.1462  0.2126  1.4690
10094TIP3    H251698   3.704   2.293  12.370 -0.9345 -0.9167 -2.9620
10095TIP3   OH251699   1.294   0.907  14.471  0.0568  0.6535 -0.2657
10095TIP3    H151700   1.260   0.993  14.493 -1.0348  0.0908  0.2847
10095TIP3    H251701   1.293   0.905  14.375 -0.1709  1.1519 -0.2744
10096TIP3   OH251702   1.063   5.790  16.495 -0.3804 -0.2758 -0.2328
10096TIP3    H151703   1.006   5.839  16.554 -0.5028 -0.0853 -0.5074
10096TIP3    H251704   1.067   5.844  16.416  3.1667  1.6219  1.1128
10097TIP3   OH251705   1.891   4.449  16.952 -0.0274  0.6859  0.1777
10097TIP3    H151706   1.819   4.392  16.924  0.5704  0.9752 -2.0241
10097TIP3    H251707   1.970   4.400  16.929  0.5532  3.3788 -4.0889
10098TIP3   OH251708   1.759   3.840   4.791  0.3740  0.4515  0.2970
10098TIP3    H151709   1.803   3.868   4.711  0.4816 -0.5440  0.0061
10098TIP3    H251710   1.711   3.761   4.766 -0.5290  0.7940  0.9320
10099TIP3   OH251711   3.453   3.855   5.892 -0.2700  0.3647 -0.3218
10099TIP3    H151712   3.376   3.827   5.843 -2.3068  0.3584  2.7427
10099TIP3    H251713   3.490   3.775   5.929 -0.6173  0.6947  0.7611
10100TIP3   OH251714   6.042   6.527  16.522  0.1786  0.8237 -0.2697
10100TIP3    H151715   5.954   6.565  16.518  0.2709  1.4710  2.4259
10100TIP3    H251716   6.027   6.434  16.534 -0.1468  0.9374  0.2235
10101TIP3   OH251717   5.496   2.958   2.376 -0.1974  0.1405  0.1684
10101TIP3    H151718   5.569   3.003   2.333  1.6786 -2.7834  0.1914
10101TIP3    H251719   5.430   2.948   2.308  0.8371 -0.2670 -0.7804
10102TIP3   OH251720   4.830   1.514  15.481 -0.1418  0.0889  0.1419
10102TIP3    H151721   4.914   1.473  15.457 -0.4256  0.1312 -0.9769
10102TIP3    H251722   4.808   1.569  15.405 -1.1427  0.1339  0.4567
10103TIP3   OH251723   2.091   2.476  16.015 -0.2827 -0.0933  0.1181
10103TIP3    H151724   2.022   2.444  15.956  0.6589 -0.1113 -0.9797
10103TIP3    H251725   2.047   2.542  16.068 -0.6558  1.4509 -2.0357
10104TIP3   OH251726   2.991   0.075   0.304  0.1174  0.3650 -0.5315
10104TIP3    H151727   3.000  -0.004   0.358  0.7768  0.2804 -0.7658
10104TIP3    H251728   2.896   0.088   0.297  0.0264  0.5040  0.8331
10105TIP3   OH251729   2.391   4.803   4.407 -0.1391 -0.7830 -0.3834
10105TIP3    H151730   2.467   4.836   4.360 -1.1236 -0.7115 -1.9454
10105TIP3    H251731   2.402   4.836   4.496  1.3506 -0.2850 -0.7399
10106TIP3   OH251732   5.257   5.632   6.300  0.4870 -0.5161 -0.1927
10106TIP3    H151733   5.205   5.708   6.274  1.2551  1.4487  3.6562
10106TIP3    H251734   5.348   5.662   6.297  0.8058 -1.2671  1.2926
10107TIP3   OH251735   4.034   1.200  13.962 -0.6133 -0.2485 -0.1384
10107TIP3    H151736   3.987   1.186  14.045  0.8275 -0.5847  0.6433
10107TIP3    H251737   4.118   1.157  13.975 -0.1444  0.2068 -1.5817
10108TIP3   OH251738   1.222   6.101   2.687  0.1561  0.0813  0.2956
10108TIP3    H151739   1.148   6.054   2.649  0.1038  0.0261  0.4632
10108TIP3    H251740   1.214   6.190   2.654  0.1105  0.0335  0.1794
10109TIP3   OH251741   0.856   6.065  12.833 -0.2865 -0.0153 -0.0137
10109TIP3    H151742   0.767   6.085  12.804  0.1178 -0.8815 -1.9622
10109TIP3    H251743   0.849   6.051  12.927 -2.6211 -2.3520 -0.4893
10110TIP3   OH251744   1.817   3.570   5.681 -0.1242  0.0470  0.2529
10110TIP3    H151745   1.743   3.631   5.670 -0.3682  0.5262  3.8856
10110TIP3    H251746   1.890   3.626   5.708  0.3538 -0.9828  1.0979
10111TIP3   OH251747   1.021   6.588  15.767 -0.6153 -0.2681 -0.5776
10111TIP3    H151748   1.007   6.494  15.773 -0.8148 -0.6163 -4.8230
10111TIP3    H251749   1.115   6.597  15.752 -0.4373  0.2901  0.8220
10112TIP3   OH251750   2.593   1.428   5.423  0.2752  0.7908  0.3164
10112TIP3    H151751   2.676   1.424   5.376 -0.7649  1.5211 -1.6396
10112TIP3    H251752   2.570   1.336   5.440  1.6268  0.6022  1.1621
10113TIP3   OH251753   6.386   4.274   1.535 -0.1454 -0.4583 -0.1755
10113TIP3    H151754   6.461   4.334   1.540 -1.6982  1.5700 -0.2256
10113TIP3    H251755   6.311   4.327   1.565 -1.5780 -2.3984 -0.2056
10114TIP3   OH251756   0.168   0.042   3.551  0.5379 -0.5593 -0.1500
10114TIP3    H151757   0.118  -0.040   3.556 -0.5816  0.0142 -1.7156
10114TIP3    H251758   0.131   0.088   3.476  1.7600  0.9989  0.1903
10115TIP3   OH251759   4.504   0.874   0.454 -0.1302 -0.0770 -0.1423
10115TIP3    H151760   4.456   0.860   0.536 -2.1496 -0.8290 -1.4250
10115TIP3    H251761   4.559   0.797   0.444  0.1340  0.0248  0.5052
10116TIP3   OH251762   3.155   5.226   0.272  0.5555  0.2534  0.1810
10116TIP3    H151763   3.187   5.264   0.190 -0.1973  1.1458  0.2896
10116TIP3    H251764   3.196   5.140   0.276  0.9360  0.3715 -0.9232
10117TIP3   OH251765   2.840   3.718   2.314  0.3708  0.3918  0.2049
10117TIP3    H151766   2.760   3.680   2.350  0.3959 -0.8275 -0.9676
10117TIP3    H251767   2.849   3.676   2.228  1.3508  1.7857 -0.3847
10118TIP3   OH251768   0.840   5.982   5.572 -0.0419 -0.4229 -0.1946
10118TIP3    H151769   0.922   5.981   5.522  0.0847 -0.1497  0.0123
10118TIP3    H251770   0.847   5.906   5.630  0.7426  0.4987  0.9276
10119TIP3   OH251771   2.386   1.536  10.906  0.3149  0.0543 -0.5853
10119TIP3    H151772   2.372   1.449  10.944  1.1952 -0.5120 -1.5118
10119TIP3    H251773   2.357   1.527  10.815 -2.2880  1.5342  0.0406
10120TIP3   OH251774   3.481   5.466   3.383 -0.8518 -0.3558 -0.4296
10120TIP3    H151775   3.469   5.548   3.432 -0.0364  0.9490 -2.3408
10120TIP3    H251776   3.572   5.441   3.400 -1.3914 -1.4289  0.9582
10121TIP3   OH251777   3.653   4.836  17.061 -0.1723 -0.2179  0.2301
10121TIP3    H151778   3.721   4.878  17.115 -1.3375  0.3291  1.3099
10121TIP3    H251779   3.665   4.742  17.077 -0.9702 -0.0320  2.0501
10122TIP3   OH251780   0.363   0.679  16.604 -0.6021  0.1410 -0.3082
10122TIP3    H151781   0.431   0.715  16.661 -0.9782 -0.3656  0.4821
10122TIP3    H251782   0.405   0.602  16.564 -0.7333 -0.2363  0.2626
10123TIP3   OH251783   3.133   4.689  15.462 -0.6617  0.6259 -0.1019
10123TIP3    H151784   3.090   4.607  15.436 -0.1912  0.2463  0.3050
10123TIP3    H251785   3.145   4.681  15.557  1.5514  0.1164 -0.3877
10124TIP3   OH251786   2.436   6.613  15.275 -0.2873  0.3383  0.2376
10124TIP3    H151787   2.427   6.698  15.232 -0.0072  0.7789  1.0282
10124TIP3    H251788   2.527   6.611  15.306  0.2819 -1.0744 -1.4715
10125TIP3   OH251789   3.617   6.462   1.945  0.7547  0.1327 -0.4826
10125TIP3    H151790   3.663   6.520   1.884 -0.3779  0.3961 -1.1058
10125TIP3    H251791   3.584   6.520   2.013 -2.7352  0.7178 -2.5089
10126TIP3   OH251792   4.339   5.928  16.305 -0.5631  0.2861  0.2398
10126TIP3    H151793   4.392   5.989  16.357  0.2932  0.4341 -0.8170
10126TIP3    H251794   4.291   5.877  16.371 -0.7019  1.5559  1.1594
10127TIP3   OH251795   6.248   1.262   2.024  0.0929  0.8741  0.0667
10127TIP3    H151796   6.304   1.206   2.077 -3.7905 -1.4099  1.9021
10127TIP3    H251797   6.243   1.217   1.940  0.9998  1.1317 -0.1394
10128TIP3   OH251798   0.214   2.456   2.420  0.2270 -0.1481  0.4593
10128TIP3    H151799   0.280   2.424   2.359 -0.5727  2.3959 -1.8367
10128TIP3    H251800   0.145   2.390   2.417  0.8112 -0.7290 -0.3277
10129TIP3   OH251801   4.286   3.091   5.204  0.4332 -0.4491 -0.8257
10129TIP3    H151802   4.362   3.100   5.146  1.4875 -2.1691  0.2497
10129TIP3    H251803   4.324   3.077   5.291 -1.1322  1.1309  0.1421
10130TIP3   OH251804   5.888   6.136   5.324 -0.5432 -0.3893  0.2355
10130TIP3    H151805   5.876   6.185   5.405 -2.5447  2.1758 -1.5295
10130TIP3    H251806   5.804   6.144   5.278  1.0413 -0.3680 -2.8013
10131TIP3   OH251807   3.689   6.678  12.361  0.3577 -0.1109 -0.0639
10131TIP3    H151808   3.742   6.710  12.288  0.8529 -1.2387 -0.2139
10131TIP3    H251809   3.613   6.637  12.319 -0.2614  0.8379  0.1239
10132TIP3   OH251810   4.163   4.853   3.526  0.1269 -0.0423 -0.4678
10132TIP3    H151811   4.102   4.923   3.504  0.8362  0.1414 -1.9146
10132TIP3    H251812   4.249   4.887   3.501  0.7648 -0.5440  0.9465
10133TIP3   OH251813   4.366   1.700   3.674  0.2178 -0.2623  0.5861
10133TIP3    H151814   4.331   1.651   3.749 -0.1367 -0.0994  0.5295
10133TIP3    H251815   4.300   1.688   3.606  0.5108 -0.3596  0.3182
10134TIP3   OH251816   5.960   0.491   4.919 -0.3160  0.2198 -0.0653
10134TIP3    H151817   5.920   0.566   4.963 -0.0060 -0.5176  1.4934
10134TIP3    H251818   6.049   0.487   4.954 -0.5342 -1.2546  0.3461
10135TIP3   OH251819   3.242   6.160   5.360  0.1562  0.2813 -0.7072
10135TIP3    H151820   3.179   6.192   5.424  0.9708  0.9369 -0.2197
10135TIP3    H251821   3.326   6.194   5.390  1.2543 -3.1991  0.4496
10136TIP3   OH251822   6.276   4.392   0.903  0.3554  0.0895  0.4615
10136TIP3    H151823   6.356   4.432   0.868 -1.1068  1.5320 -1.3807
10136TIP3    H251824   6.262   4.315   0.848 -0.9204  1.3143 -0.9925
10137TIP3   OH251825   5.930   5.024  15.137  0.6752  0.5907  0.2221
10137TIP3    H151826   5.856   5.051  15.083  0.7803  1.2668  0.4112
10137TIP3    H251827   5.984   4.971  15.079  1.0447  1.7315 -0.4902
10138TIP3   OH251828   1.316   3.657   1.395  0.2819  0.1708 -0.1434
10138TIP3    H151829   1.407   3.635   1.414  1.1281  3.0161 -0.6921
10138TIP3    H251830   1.270   3.647   1.478  1.2222 -0.5834  0.2920
10139TIP3   OH251831   2.921   3.734  12.065  0.5648 -0.1601 -0.4652
10139TIP3    H151832   2.901   3.821  12.031  0.6929  0.0498 -0.0014
10139TIP3    H251833   2.975   3.693  11.997  1.0076  0.3431 -0.4165
10140TIP3   OH251834   4.976   3.165   5.537  0.4769  0.2710  0.3090
10140TIP3    H151835   5.055   3.183   5.487  0.2301  1.0089  0.1857
10140TIP3    H251836   4.907   3.213   5.492 -0.2829 -1.3627 -0.3154
10141TIP3   OH251837   3.157   6.749   3.722 -0.4660 -0.2852  0.4927
10141TIP3    H151838   3.084   6.705   3.766 -1.5982  2.5339  1.5012
10141TIP3    H251839   3.130   6.840   3.716  2.5562  0.6121 -0.0427
10142TIP3   OH251840   0.952   3.854  16.834  0.1031 -0.0625 -0.5939
10142TIP3    H151841   0.896   3.778  16.818  1.2926 -0.8084 -1.2703
10142TIP3    H251842   0.891   3.927  16.841 -1.0387 -1.0389 -0.1850
10143TIP3   OH251843   3.788   2.521   5.179  0.0987  0.6514 -0.3962
10143TIP3    H151844   3.816   2.439   5.138  2.3673  1.0325  0.2932
10143TIP3    H251845   3.842   2.527   5.259 -1.1963  2.0106  0.3979
10144TIP3   OH251846   1.640   4.322  14.573 -0.2305 -0.1873  0.5839
10144TIP3    H151847   1.648   4.298  14.481 -0.1501 -0.5087  0.6742
10144TIP3    H251848   1.555   4.366  14.579 -0.9069 -1.4548  0.6253
10145TIP3   OH251849   2.540   0.311  15.579  0.4034  0.0346  0.6231
10145TIP3    H151850   2.618   0.288  15.630  1.6002  1.5075 -0.4628
10145TIP3    H251851   2.477   0.343  15.643  2.0286  2.2537  1.1936
10146TIP3   OH251852   6.218   3.332   6.171 -0.2096  0.0487  0.4493
10146TIP3    H151853   6.268   3.342   6.090  0.0796  1.1107  0.7529
10146TIP3    H251854   6.268   3.268   6.222  0.9206  1.1667  0.7919
10147TIP3   OH251855   5.028   1.070   0.828 -0.0127 -0.1852  0.5092
10147TIP3    H151856   4.968   1.143   0.818  1.0904  0.7671  0.7380
10147TIP3    H251857   5.115   1.108   0.814  0.5643 -1.4571  0.5633
10148TIP3   OH251858   0.527   0.631   3.697 -0.2287 -0.4482 -0.0637
10148TIP3    H151859   0.549   0.694   3.766  0.6012 -0.4039 -0.3748
10148TIP3    H251860   0.575   0.661   3.620 -0.7736 -0.7799 -0.5366
10149TIP3   OH251861   4.957   3.860  13.987  0.1543  0.1718 -0.2880
10149TIP3    H151862   4.971   3.944  14.029 -0.6155  1.6649 -2.8828
10149TIP3    H251863   5.046   3.824  13.976  0.3860  0.0149  2.0203
10150TIP3   OH251864   6.007   1.449  12.620 -0.6993  0.0388  0.0521
10150TIP3    H151865   5.943   1.473  12.687 -0.4544 -0.5255  0.4914
10150TIP3    H251866   6.034   1.533  12.582 -0.7944  0.3711  0.7051
10151TIP3   OH251867   3.093   2.207  11.204 -0.8134  0.2620  0.3477
10151TIP3    H151868   3.017   2.185  11.257 -1.1672  0.8680  0.1029
10151TIP3    H251869   3.056   2.243  11.123 -0.4261 -5.5849 -2.6496
10152TIP3   OH251870   3.702   1.179  14.841  0.0037 -0.2322  0.7978
10152TIP3    H151871   3.766   1.139  14.901  1.6758 -0.7696 -1.2672
10152TIP3    H251872   3.654   1.105  14.805 -0.0717 -0.0099  0.4434
10153TIP3   OH251873   6.342   2.799  12.519  0.0676  0.0310 -0.3148
10153TIP3    H151874   6.265   2.852  12.539 -0.4902 -0.2057 -1.7828
10153TIP3    H251875   6.311   2.733  12.457  1.7078  0.6696 -1.8575
10154TIP3   OH251876   3.694   0.255  12.507 -0.5357 -0.0727 -0.1698
10154TIP3    H151877   3.606   0.225  12.527 -0.7649  0.3369 -0.5747
10154TIP3    H251878   3.748   0.220  12.579 -1.2642  0.9005  0.8784
10155TIP3   OH251879   1.281   3.410   1.227  0.0309  0.2236 -0.1683
10155TIP3    H151880   1.292   3.499   1.261  0.4869 -0.2437  0.9037
10155TIP3    H251881   1.353   3.360   1.266 -0.9004 -0.8854  0.1445
10156TIP3   OH251882   2.353   4.810  15.152  0.3567  0.0559 -0.1321
10156TIP3    H151883   2.266   4.849  15.154  0.0707 -0.5107 -1.3178
10156TIP3    H251884   2.338   4.716  15.149  0.9930 -0.0237 -1.1796
10157TIP3   OH251885   3.507   6.228  11.273  0.2655  0.1870  0.1199
10157TIP3    H151886   3.496   6.133  11.277 -0.7064  0.3607  2.8524
10157TIP3    H251887   3.579   6.246  11.334  0.3012  1.2302 -0.2220
10158TIP3   OH251888   2.673   1.348  16.759 -0.6809 -0.0576 -0.2787
10158TIP3    H151889   2.662   1.275  16.820 -0.1049 -1.1734 -1.4780
10158TIP3    H251890   2.685   1.425  16.815 -0.6372 -0.9822  1.0074
10159TIP3   OH251891   5.571   6.331  16.408  0.5646 -0.2112  0.4846
10159TIP3    H151892   5.570   6.395  16.479 -0.0164  0.0328  0.2569
10159TIP3    H251893   5.660   6.337  16.372 -0.1333  2.0790 -0.9903
10160TIP3   OH251894   2.863   6.429  12.901  0.0580 -0.1086 -0.4872
10160TIP3    H151895   2.942   6.374  12.895  1.7094  1.9617  1.1925
10160TIP3    H251896   2.807   6.383  12.964  2.4088  1.1211  2.6856
10161TIP3   OH251897   4.394   0.215   2.767  0.4020 -0.1474 -0.3447
10161TIP3    H151898   4.432   0.255   2.845 -0.9247  0.4469  0.0047
10161TIP3    H251899   4.467   0.209   2.705  1.2639  0.1626  0.6203
10162TIP3   OH251900   3.633   4.198  11.346 -0.1834  0.2883 -0.2747
10162TIP3    H151901   3.624   4.286  11.380  0.1234 -0.3308  1.4513
10162TIP3    H251902   3.544   4.171  11.324  0.0055  1.9676 -3.3111
10163TIP3   OH251903   5.095   4.608  13.339 -0.8771 -0.2398 -0.0349
10163TIP3    H151904   5.031   4.648  13.280  0.6358  2.1395 -0.1320
10163TIP3    H251905   5.086   4.659  13.420  0.5321 -0.2231  0.1085
10164TIP3   OH251906   3.833   1.362  16.117 -0.2740  0.7101  0.0187
10164TIP3    H151907   3.885   1.289  16.151 -1.1412  0.7989  1.6164
10164TIP3    H251908   3.890   1.438  16.125  0.6811  0.1994 -1.7775
10165TIP3   OH251909   2.433   3.954   0.889  0.4886  0.0770 -0.5333
10165TIP3    H151910   2.449   4.048   0.890  2.0780 -0.1876 -0.1914
10165TIP3    H251911   2.425   3.930   0.981  2.8320 -0.5601 -0.4708
10166TIP3   OH251912   2.878   6.229   5.307  1.1828 -0.1909  0.1095
10166TIP3    H151913   2.943   6.277   5.359  1.0116  0.9757 -0.7322
10166TIP3    H251914   2.821   6.297   5.271  1.2088 -0.9855 -1.4798
10167TIP3   OH251915   3.535   4.024   0.536  0.0957 -0.0607  0.7662
10167TIP3    H151916   3.482   3.946   0.556  1.4433 -1.3882 -0.6630
10167TIP3    H251917   3.584   4.040   0.616 -1.0617  0.0249  1.4636
10168TIP3   OH251918   0.178   0.339   1.791  0.1677 -0.1545 -0.0588
10168TIP3    H151919   0.221   0.268   1.839  1.6431  1.2356  0.7064
10168TIP3    H251920   0.238   0.413   1.797 -0.6470  0.7131 -2.1912
10169TIP3   OH251921   4.436   2.584   0.648  0.5941 -0.5623  0.6916
10169TIP3    H151922   4.503   2.653   0.648  1.5244 -1.4435  2.0821
10169TIP3    H251923   4.399   2.586   0.736 -3.3281  1.8583 -0.8336
10170TIP3   OH251924   2.779   4.303   1.817 -0.1967  0.3822  0.5865
10170TIP3    H151925   2.868   4.313   1.783 -0.0797 -0.9953  0.4505
10170TIP3    H251926   2.727   4.367   1.768  0.5538  0.5780  0.0364
10171TIP3   OH251927   1.772   6.174   4.790 -0.4782  0.3246  0.0607
10171TIP3    H151928   1.865   6.182   4.810 -0.5609  0.9284  0.2063
10171TIP3    H251929   1.764   6.204   4.700 -0.6303  0.9260  0.2696
10172TIP3   OH251930   6.040   2.754   5.832 -0.1003 -0.2675 -0.2985
10172TIP3    H151931   6.042   2.822   5.764  0.9709  0.7595  0.7503
10172TIP3    H251932   6.101   2.688   5.801  1.1103  0.6443  0.1036
10173TIP3   OH251933   2.249   5.798   2.159 -0.0285  0.2108  0.0176
10173TIP3    H151934   2.216   5.808   2.248  0.5905  1.3058  0.1371
10173TIP3    H251935   2.175   5.821   2.103 -0.3678 -0.3154  0.2504
10174TIP3   OH251936   0.331   3.022  13.558 -0.8455 -0.3210 -0.2361
10174TIP3    H151937   0.310   3.089  13.493 -0.4360 -1.3662 -1.4531
10174TIP3    H251938   0.416   2.989  13.532  0.1230  0.4593  1.8443
10175TIP3   OH251939   3.399   6.601   4.229 -0.3575 -0.6314 -0.1679
10175TIP3    H151940   3.396   6.691   4.197 -2.1199 -1.4411 -2.3598
10175TIP3    H251941   3.321   6.591   4.282 -0.0644 -0.8176  0.2322
10176TIP3   OH251942   1.006   4.157   2.234 -0.0475  0.5400 -0.7430
10176TIP3    H151943   0.919   4.119   2.218 -0.5537  1.3937 -0.0749
10176TIP3    H251944   1.048   4.157   2.148 -1.1952  1.3148 -1.3209
10177TIP3   OH251945   5.175   2.021  15.001  0.1247 -0.0317  0.1121
10177TIP3    H151946   5.100   2.078  15.019 -0.8432 -0.8518 -1.2736
10177TIP3    H251947   5.176   2.011  14.906  0.2227 -2.3758  0.3245
10178TIP3   OH251948   3.457   3.171  13.217  0.0190  0.5164 -0.2135
10178TIP3    H151949   3.385   3.228  13.245 -1.6043 -1.2730 -0.5960
10178TIP3    H251950   3.465   3.107  13.288  1.9440  1.3014  0.3015
10179TIP3   OH251951   0.846   2.894   0.227 -0.1478  0.3359  0.5495
10179TIP3    H151952   0.761   2.851   0.223 -0.4516  1.0509 -0.6986
10179TIP3    H251953   0.834   2.967   0.287 -0.7217  1.1018 -0.4848
10180TIP3   OH251954   2.339   3.447  16.968 -0.7996 -0.3357  0.1018
10180TIP3    H151955   2.321   3.363  16.925  0.8349 -0.0619 -1.1634
10180TIP3    H251956   2.416   3.429  17.023  0.4182  0.6645 -1.2463
10181TIP3   OH251957   1.961   4.939   2.557 -0.9895 -0.1222  0.0301
10181TIP3    H151958   1.973   4.906   2.646  1.6724  0.0668 -0.2295
10181TIP3    H251959   1.962   5.034   2.566  0.4153 -0.0969 -0.3279
10182TIP3   OH251960   3.989   2.858   3.192  0.0675  0.4117 -0.2574
10182TIP3    H151961   4.081   2.830   3.195 -0.2697 -0.5820  1.2632
10182TIP3    H251962   3.966   2.853   3.099  1.7679  1.4178 -0.7661
10183TIP3   OH251963   4.455   0.573   1.058 -0.0901  0.5223  0.0110
10183TIP3    H151964   4.501   0.602   0.979  1.2936  1.6521  1.2012
10183TIP3    H251965   4.409   0.651   1.088 -1.2368 -0.1101 -0.1026
10184TIP3   OH251966   4.017   5.199   0.707 -0.7380  0.2087  0.1248
10184TIP3    H151967   3.958   5.218   0.780 -1.3748  0.7665 -0.5250
10184TIP3    H251968   4.043   5.286   0.675 -0.6053 -0.0299 -0.4217
10185TIP3   OH251969   4.618   5.255   2.766  0.2339  0.1855  0.1776
10185TIP3    H151970   4.662   5.339   2.752  1.4854 -0.8515 -2.3640
10185TIP3    H251971   4.525   5.275   2.754  0.3585  1.4927  1.1775
10186TIP3   OH251972   3.781   0.731  14.214 -0.4355  0.6049  0.3226
10186TIP3    H151973   3.707   0.770  14.259 -0.0271  2.0023 -0.1845
10186TIP3    H251974   3.853   0.793  14.228  0.1520  0.1810 -0.7310
10187TIP3   OH251975   0.892   5.631  12.284 -0.4469 -0.4863  0.2742
10187TIP3    H151976   0.889   5.550  12.335 -0.9738  0.2184  1.3812
10187TIP3    H251977   0.842   5.610  12.204  1.6457 -2.0592 -0.6904
10188TIP3   OH251978   6.172   3.456  10.780  0.3424 -0.1291 -0.7300
10188TIP3    H151979   6.121   3.505  10.844 -0.3321 -0.7100 -0.8223
10188TIP3    H251980   6.195   3.522  10.713 -1.5096 -0.1543 -1.4241
10189TIP3   OH251981   1.016   6.370   3.512 -0.1685 -0.0067 -0.5220
10189TIP3    H151982   0.937   6.357   3.565 -0.3335 -0.0170 -0.7680
10189TIP3    H251983   1.054   6.282   3.505  0.4120  0.1515  0.4317
10190TIP3   OH251984   6.588   6.567   2.763 -0.4274 -0.4016  0.0480
10190TIP3    H151985   6.609   6.643   2.708 -0.2822 -0.5076 -0.0416
10190TIP3    H251986   6.505   6.590   2.804 -1.3159 -0.9950 -1.4038
10191TIP3   OH251987   4.742   1.906  15.040 -0.6460  0.0997 -0.2673
10191TIP3    H151988   4.696   1.957  15.107 -0.7843 -0.6279  0.1912
10191TIP3    H251989   4.833   1.907  15.068 -0.9340 -1.5036  0.7697
10192TIP3   OH251990   2.595   4.486   1.692  0.0812  0.3900 -0.0778
10192TIP3    H151991   2.588   4.507   1.599  0.1130  0.8326  0.0218
10192TIP3    H251992   2.504   4.469   1.719  0.2574 -1.5285 -0.6110
10193TIP3   OH251993   5.861   5.364  14.987  0.0260  0.1539 -0.1960
10193TIP3    H151994   5.803   5.293  15.014  0.1220 -0.1554 -0.7857
10193TIP3    H251995   5.813   5.409  14.917  0.5056 -0.1176 -0.7021
10194TIP3   OH251996   1.611   4.923   1.352 -0.2679 -0.0792 -0.5396
10194TIP3    H151997   1.601   4.835   1.389  1.5720 -0.3829 -0.7370
10194TIP3    H251998   1.562   4.980   1.412 -0.6280 -1.1056  0.1429
10195TIP3   OH251999   0.784   6.466  14.406 -0.1826  0.0453  0.2338
10195TIP3    H152000   0.824   6.513  14.333  2.4155 -0.7997  1.0873
10195TIP3    H252001   0.799   6.373  14.386  0.9871 -0.1751  2.0622
10196TIP3   OH252002   0.526   0.613   5.240  0.1107 -0.3315  0.0839
10196TIP3    H152003   0.471   0.616   5.318 -0.6157  2.8855 -0.4769
10196TIP3    H252004   0.463   0.614   5.167  0.8426 -0.5424 -0.5549
10197TIP3   OH252005   5.552   5.313  11.698 -0.1728 -0.1920 -0.3147
10197TIP3    H152006   5.640   5.345  11.677  0.2573 -0.5162  0.9772
10197TIP3    H252007   5.494   5.364  11.641  0.8422  0.0546 -1.1429
10198TIP3   OH252008   0.792   0.574   0.393 -0.0178 -0.4663  0.3015
10198TIP3    H152009   0.710   0.552   0.349 -0.2333  0.4121  0.2433
10198TIP3    H252010   0.825   0.491   0.427 -2.3168 -0.4407  2.7284
10199TIP3   OH252011   5.004   6.602  11.440  0.7325 -0.4642 -0.1374
10199TIP3    H152012   5.075   6.666  11.448  0.8905 -0.8270  1.3918
10199TIP3    H252013   5.042   6.532  11.385  1.5789 -0.6689  0.6897
10200TIP3   OH252014   5.560   6.748   4.777 -0.1571 -0.9143  0.0628
10200TIP3    H152015   5.627   6.720   4.714 -1.0365 -1.0893 -0.8151
10200TIP3    H252016   5.477   6.736   4.730 -0.8157 -0.8790  1.2034
10201TIP3   OH252017   3.468   3.602   2.354 -0.1531  0.0454 -0.3753
10201TIP3    H152018   3.420   3.604   2.436 -0.0049 -0.2781 -0.2789
10201TIP3    H252019   3.408   3.638   2.289  0.0724  1.2184  0.0508
10202TIP3   OH252020   5.857   5.737  12.085  0.3819 -0.2014  0.3615
10202TIP3    H152021   5.790   5.719  12.019  0.6120  0.2999 -0.0166
10202TIP3    H252022   5.822   5.699  12.165 -1.0407  1.3429  0.4939
10203TIP3   OH252023   1.679   5.790  13.503  0.6903 -0.0595 -0.3225
10203TIP3    H152024   1.593   5.766  13.469  0.3937  0.4716  0.0543
10203TIP3    H252025   1.733   5.802  13.425 -0.0857  1.5341 -0.6245
10204TIP3   OH252026   4.621   6.096   6.363  0.1379  0.7236  0.4221
10204TIP3    H152027   4.527   6.079   6.361  0.6538 -2.4491 -0.7681
10204TIP3    H252028   4.641   6.109   6.456 -1.0570 -1.5960  1.0555
10205TIP3   OH252029   1.914   2.152   2.388  0.4301  0.0527 -0.3106
10205TIP3    H152030   1.953   2.140   2.302  0.8068 -2.2477  0.1277
10205TIP3    H252031   1.825   2.117   2.379  0.2822  0.3270  0.0766
10206TIP3   OH252032   4.272   5.344   3.075 -0.1140  0.3005 -0.0436
10206TIP3    H152033   4.226   5.428   3.067 -0.9074 -0.1162  0.1022
10206TIP3    H252034   4.207   5.285   3.113  0.2331 -0.5545 -0.7704
10207TIP3   OH252035   2.106   1.135  12.374  0.1695 -0.2820 -0.2386
10207TIP3    H152036   2.066   1.115  12.459  1.5983 -2.7034 -0.0778
10207TIP3    H252037   2.178   1.194  12.395 -0.4730  0.4072  0.0380
10208TIP3   OH252038   3.842   3.511   2.253 -0.5411  0.4871 -0.0758
10208TIP3    H152039   3.784   3.492   2.179 -0.6090  2.6772 -0.6212
10208TIP3    H252040   3.800   3.585   2.298  1.4304  1.6228 -0.0583
10209TIP3   OH252041   0.680   0.517  13.904  0.0560 -0.7580 -0.3707
10209TIP3    H152042   0.660   0.556  13.819  0.2099  0.7723  0.2843
10209TIP3    H252043   0.636   0.573  13.968  1.4122 -0.8699  0.6864
10210TIP3   OH252044   3.427   2.807  12.023  0.0007  0.3097  0.3384
10210TIP3    H152045   3.380   2.752  11.960  0.3661  2.6204 -1.9770
10210TIP3    H252046   3.424   2.756  12.104 -0.5339 -2.6893 -1.4779
10211TIP3   OH252047   1.655   1.838   4.396  0.0746 -0.2207 -0.3973
10211TIP3    H152048   1.574   1.795   4.367 -0.0070  0.1080 -0.6531
10211TIP3    H252049   1.692   1.876   4.317  0.7625 -0.8260 -0.3706
10212TIP3   OH252050   1.315   0.954  16.203 -0.0065 -0.5318 -0.7941
10212TIP3    H152051   1.381   0.929  16.139  0.2596 -0.2791 -0.6174
10212TIP3    H252052   1.243   0.892  16.189  0.3817 -0.9838 -0.7990
10213TIP3   OH252053   3.728   1.303   1.856 -0.0749 -0.1123  0.3733
10213TIP3    H152054   3.700   1.234   1.916 -1.1546 -0.4146 -0.4669
10213TIP3    H252055   3.708   1.384   1.903 -0.1265 -0.3461  0.7644
10214TIP3   OH252056   5.089   3.627  13.798 -0.0004 -0.1291 -0.3572
10214TIP3    H152057   5.051   3.557  13.850  1.1383 -0.1894  0.4108
10214TIP3    H252058   5.176   3.641  13.835  1.1562 -0.7108 -2.7256
10215TIP3   OH252059   2.731   2.395  12.778  0.8991 -0.5849  0.6400
10215TIP3    H152060   2.752   2.399  12.685 -3.8943 -1.0661 -0.5953
10215TIP3    H252061   2.705   2.484  12.801 -2.8869 -1.4795  0.1217
10216TIP3   OH252062   4.958   3.002  14.809  0.0057 -0.2118 -0.4294
10216TIP3    H152063   5.021   2.932  14.791  0.4542  0.6767 -2.4936
10216TIP3    H252064   4.918   2.977  14.892  0.9398 -2.3559 -0.5711
10217TIP3   OH252065   6.373   6.388  12.602  0.3800 -0.3904 -0.1538
10217TIP3    H152066   6.311   6.320  12.629  0.0526 -0.1814 -0.3741
10217TIP3    H252067   6.400   6.362  12.514  1.8378 -1.3455  0.5597
10218TIP3   OH252068   5.651   5.659  12.671 -0.2808  0.4596 -0.3532
10218TIP3    H152069   5.648   5.720  12.745  1.1463 -0.3613  0.4092
10218TIP3    H252070   5.659   5.716  12.594 -0.8208  1.2937  0.2012
10219TIP3   OH252071   5.426   4.472  12.638 -0.0564  0.6605 -0.4330
10219TIP3    H152072   5.390   4.545  12.588 -0.1852  0.5851 -0.4503
10219TIP3    H252073   5.507   4.450  12.592  0.2975  1.1888 -0.0789
10220TIP3   OH252074   5.152   4.475  14.758 -0.4484  0.2548 -0.5169
10220TIP3    H152075   5.184   4.462  14.669 -0.7840  0.5113 -0.6766
10220TIP3    H252076   5.143   4.386  14.793  0.8084  0.1866 -0.3294
10221TIP3   OH252077   2.332   4.000   1.621 -0.2045  0.4895 -0.0205
10221TIP3    H152078   2.302   4.004   1.530  0.4012 -0.0093 -0.2427
10221TIP3    H252079   2.416   4.047   1.621 -0.4795  0.9846  0.3930
10222TIP3   OH252080   1.644   2.784   1.612  0.2280  0.5275  0.0197
10222TIP3    H152081   1.584   2.734   1.668  1.2845 -1.1735 -0.3558
10222TIP3    H252082   1.721   2.728   1.602  1.2179  2.0076 -0.8445
10223TIP3   OH252083   0.467   0.530   4.965 -0.4811  0.5312 -0.2383
10223TIP3    H152084   0.432   0.441   4.954 -0.5780  0.1523  2.6986
10223TIP3    H252085   0.414   0.584   4.907 -1.5139 -1.0712 -0.8273
10224TIP3   OH252086   2.503   2.950   5.110 -0.5283 -0.2493 -0.1841
10224TIP3    H152087   2.475   3.041   5.107 -1.3429 -0.4954 -0.3077
10224TIP3    H252088   2.507   2.929   5.203  0.4114  0.1380 -0.1398
10225TIP3   OH252089   0.635   4.465  13.533 -0.0522  0.0264  0.2989
10225TIP3    H152090   0.691   4.389  13.550  0.1653  0.2214  0.4648
10225TIP3    H252091   0.548   4.429  13.519 -0.2337 -0.1406  1.8003
10226TIP3   OH252092   2.346   5.111   4.878  0.2784  0.3368 -0.3996
10226TIP3    H152093   2.337   5.020   4.850  2.7572 -0.0236 -0.1730
10226TIP3    H252094   2.422   5.111   4.936  1.2292  2.7595 -1.5403
10227TIP3   OH252095   4.132   0.423   6.355 -0.2522  0.4813 -0.2745
10227TIP3    H152096   4.190   0.489   6.317  1.0278 -0.0743  0.6726
10227TIP3    H252097   4.153   0.342   6.308 -2.6598  0.9429 -2.2720
10228TIP3   OH252098   5.822   3.834   0.746  0.2192 -0.0807 -0.0876
10228TIP3    H152099   5.852   3.888   0.672  0.5129 -1.4816 -1.0228
10228TIP3    H252100   5.885   3.762   0.749 -0.6237 -0.7938  0.6269
10229TIP3   OH252101   1.320   3.129  11.142  0.9070  0.4897  0.7280
10229TIP3    H152102   1.411   3.106  11.121  0.6448 -0.2025  0.3483
10229TIP3    H252103   1.272   3.113  11.060  0.5587  1.5330  0.7095
10230TIP3   OH252104   2.679   1.232  10.152 -0.3806 -0.2744 -0.5405
10230TIP3    H152105   2.662   1.241  10.246  0.3927 -0.5116 -0.3731
10230TIP3    H252106   2.750   1.294  10.135 -1.6127  0.9719 -1.2969
10231TIP3   OH252107   3.739   3.610   1.118 -0.0300 -0.8174  0.0294
10231TIP3    H152108   3.779   3.676   1.061 -0.5052 -0.7234 -0.2002
10231TIP3    H252109   3.779   3.528   1.090  0.9568 -0.5672  0.6725
10232TIP3   OH252110   2.353   2.981  12.733  0.0733 -0.3878  0.3374
10232TIP3    H152111   2.282   2.919  12.711 -0.7907  0.3258  1.0711
10232TIP3    H252112   2.308   3.055  12.773  1.1342  0.6306 -0.3544
10233TIP3   OH252113   1.105   4.625  14.112  0.0906 -0.2995  0.0688
10233TIP3    H152114   1.130   4.579  14.032  0.6501 -1.1658  0.7259
10233TIP3    H252115   1.038   4.569  14.152 -2.7682  1.8535 -1.5261
10234TIP3   OH252116   0.064   1.799   1.433  0.1579 -0.2980 -0.1284
10234TIP3    H152117   0.157   1.781   1.441  0.0238 -2.1498 -2.2635
10234TIP3    H252118   0.037   1.751   1.354 -2.7425 -0.4151  0.8902
10235TIP3   OH252119   2.331   5.852   5.038 -0.2181 -0.1738 -0.3014
10235TIP3    H152120   2.296   5.763   5.045 -0.6184  0.0851  1.1144
10235TIP3    H252121   2.414   5.849   5.087  0.8054 -0.2853 -2.0034
10236TIP3   OH252122   5.064   1.780  16.962 -0.9064 -0.7398  0.1275
10236TIP3    H152123   4.980   1.819  16.985 -0.6699  0.4273 -0.9147
10236TIP3    H252124   5.041   1.695  16.923 -1.8338  0.7268 -2.7007
10237TIP3   OH252125   4.141   2.223  15.916 -0.3456  0.1499  0.7992
10237TIP3    H152126   4.181   2.192  15.835  0.4157  0.1008  1.1907
10237TIP3    H252127   4.214   2.256  15.968 -0.7036 -0.6302  1.8265
10238TIP3   OH252128   3.866   5.379  16.582  0.8005 -0.2411  0.0689
10238TIP3    H152129   3.878   5.385  16.487  0.5849 -1.1116 -0.0214
10238TIP3    H252130   3.948   5.342  16.614  1.0156  0.4042  0.2674
10239TIP3   OH252131   5.999   3.071  16.277  0.4367 -0.5802  0.1492
10239TIP3    H152132   5.984   2.977  16.289 -1.2452 -0.5553 -1.5205
10239TIP3    H252133   6.090   3.077  16.248  0.1840 -1.8207 -0.9555
10240TIP3   OH252134   0.930   1.095  12.466  0.3249  0.1584 -0.1671
10240TIP3    H152135   0.856   1.152  12.488 -1.8007 -2.6629  0.2111
10240TIP3    H252136   0.947   1.046  12.546  1.5136 -0.4284 -0.7714
10241TIP3   OH252137   5.069   0.303   0.496 -0.0675 -0.4420 -0.1760
10241TIP3    H152138   5.042   0.348   0.576 -0.3043 -0.2721 -0.3516
10241TIP3    H252139   5.160   0.331   0.482  0.1215 -0.8334  0.2876
10242TIP3   OH252140   5.695   3.395   0.351  0.3816  0.1332  1.0452
10242TIP3    H152141   5.629   3.446   0.399  1.0352  0.9347  1.1162
10242TIP3    H252142   5.777   3.439   0.372  0.5155  1.5191 -2.1364
10243TIP3   OH252143   5.104   1.805   5.331 -0.0606  0.5958 -0.3364
10243TIP3    H152144   5.012   1.805   5.303 -0.8670  1.0676  2.1466
10243TIP3    H252145   5.106   1.746   5.406  1.7130  0.4508 -0.4903
10244TIP3   OH252146   2.144   1.960  16.736 -0.2557 -0.1129 -1.0643
10244TIP3    H152147   2.101   1.883  16.774 -0.6449  0.1018 -1.0720
10244TIP3    H252148   2.236   1.933  16.727 -0.5115 -0.8010 -1.6643
10245TIP3   OH252149   3.047   1.518   4.832 -0.0502  0.2341 -0.2465
10245TIP3    H152150   3.125   1.481   4.872 -0.7369 -0.3111  0.6326
10245TIP3    H252151   3.079   1.568   4.757  1.1177 -0.0837  0.0297
10246TIP3   OH252152   2.144   2.497   5.707  0.1560  0.0934  0.1455
10246TIP3    H152153   2.189   2.498   5.791  0.4931 -0.9043 -0.0218
10246TIP3    H252154   2.214   2.495   5.642 -0.0934  1.4359 -0.1798
10247TIP3   OH252155   4.707   1.382  16.760  0.1728 -0.6547 -0.0306
10247TIP3    H152156   4.662   1.326  16.698  1.3409 -0.5230 -1.0155
10247TIP3    H252157   4.762   1.322  16.811 -0.2986 -0.6812  0.4517
10248TIP3   OH252158   4.224   1.006  16.686 -0.2341  0.3021  0.5229
10248TIP3    H152159   4.218   0.913  16.664  0.6727  0.4605 -0.4220
10248TIP3    H252160   4.316   1.021  16.704 -0.0557  1.4154 -1.2051
10249TIP3   OH252161   5.186   3.242   4.609  0.1541  0.6327 -0.0210
10249TIP3    H152162   5.134   3.320   4.589 -1.8264 -0.5132  0.4962
10249TIP3    H252163   5.274   3.276   4.624 -0.5173  2.6991 -0.4651
10250TIP3   OH252164   6.009   2.342   4.526  0.1975  0.0303 -0.0992
10250TIP3    H152165   6.096   2.382   4.538 -0.0865  0.4170  0.6667
10250TIP3    H252166   6.027   2.248   4.516  0.8219  0.2593 -1.3393
10251TIP3   OH252167   3.848   5.090  12.059 -0.5111  0.1943  0.3198
10251TIP3    H152168   3.849   5.035  12.138  2.3606 -0.4293 -0.0828
10251TIP3    H252169   3.939   5.088  12.028 -1.2524  1.8132 -2.0527
10252TIP3   OH252170   5.540   0.378   2.899  0.0716 -0.2764  0.1079
10252TIP3    H152171   5.596   0.393   2.824  1.3214 -0.8423  0.9095
10252TIP3    H252172   5.593   0.325   2.959 -1.2498 -0.6906  0.9483
10253TIP3   OH252173   5.628   3.169  16.017  0.1495  0.1295  0.9660
10253TIP3    H152174   5.630   3.077  16.043  0.8349  0.3229  1.6170
10253TIP3    H252175   5.717   3.189  15.988 -0.1904  0.3779  0.0618
10254TIP3   OH252176   4.718   4.779  13.824  0.3318 -0.2667 -0.1456
10254TIP3    H152177   4.762   4.785  13.740 -0.0459 -1.5357 -0.4469
10254TIP3    H252178   4.751   4.853  13.874  2.0937 -0.6649 -0.6954
10255TIP3   OH252179   2.514   5.329  14.339  0.2587  0.4462  0.2781
10255TIP3    H152180   2.448   5.356  14.274 -0.3154  1.5552  1.2933
10255TIP3    H252181   2.497   5.386  14.415  0.8123 -0.9446  1.4635
10256TIP3   OH252182   4.737   6.018  14.284 -0.0073 -0.1460  0.7576
10256TIP3    H152183   4.728   6.028  14.379 -0.8327  0.8088  0.5906
10256TIP3    H252184   4.709   6.103  14.249 -0.4458 -0.7586 -0.3836
10257TIP3   OH252185   3.231   4.261  16.581  0.4519 -0.4816  0.3859
10257TIP3    H152186   3.295   4.279  16.650  0.2264  1.0067  0.2189
10257TIP3    H252187   3.146   4.259  16.627  0.4925 -1.2991  0.4313
10258TIP3   OH252188   0.260   3.431   2.153 -0.6741  0.5409  0.4507
10258TIP3    H152189   0.293   3.521   2.154  0.3432  0.1899 -0.0138
10258TIP3    H252190   0.182   3.434   2.099 -0.2318  1.0149 -0.1646
10259TIP3   OH252191   5.134   5.280  16.351  0.0504  0.0820 -0.4181
10259TIP3    H152192   5.040   5.301  16.354  0.1766  0.7111 -0.8991
10259TIP3    H252193   5.152   5.263  16.259  0.3993 -0.0934 -0.3184
10260TIP3   OH252194   3.073   6.257  17.044 -0.2729 -0.2306  0.1013
10260TIP3    H152195   3.066   6.343  17.085 -1.2725 -0.3126  0.1193
10260TIP3    H252196   3.167   6.236  17.047 -0.3095 -0.2093  2.2818
10261TIP3   OH252197   1.717   4.457   0.973  0.1598  0.1436  0.0897
10261TIP3    H152198   1.735   4.363   0.975 -0.6483 -0.0068  0.6125
10261TIP3    H252199   1.636   4.465   0.922 -1.2739  0.2835  2.2941
10262TIP3   OH252200   2.051   6.211   4.019  0.4104  0.5090 -0.0599
10262TIP3    H152201   2.119   6.187   4.082  1.4231  1.6143 -0.7312
10262TIP3    H252202   1.969   6.190   4.064  1.1400  0.5886  1.3380
10263TIP3   OH252203   4.892   4.335  16.699 -0.0869 -0.4372 -0.2670
10263TIP3    H152204   4.854   4.260  16.743 -1.7880  1.9830  2.5534
10263TIP3    H252205   4.838   4.348  16.621 -0.1850 -1.7111 -0.4130
10264TIP3   OH252206   2.383   3.440   2.501  0.1494 -0.4166  0.2153
10264TIP3    H152207   2.388   3.512   2.439 -1.2938 -0.2892  0.2212
10264TIP3    H252208   2.434   3.370   2.461 -0.0489 -0.0414 -0.7039
10265TIP3   OH252209   4.610   6.563   3.094  0.8658  0.2384  0.5189
10265TIP3    H152210   4.691   6.530   3.133 -0.0771 -1.5820  0.9916
10265TIP3    H252211   4.551   6.487   3.094 -0.2001  1.0427 -1.5717
10266TIP3   OH252212   2.833   6.709  10.470  0.1776  0.1133  0.1079
10266TIP3    H152213   2.877   6.777  10.419 -0.0826  0.4335  0.3100
10266TIP3    H252214   2.902   6.672  10.525  0.2924  0.3058  0.0942
10267TIP3   OH252215   4.290   2.844  12.876  0.1818  0.4225  0.1304
10267TIP3    H152216   4.343   2.822  12.799  0.3305  0.2344  0.2856
10267TIP3    H252217   4.354   2.855  12.947 -0.0394 -0.6337  0.5078
10268TIP3   OH252218   4.178   0.603  14.732  0.4199  0.3200  0.2788
10268TIP3    H152219   4.183   0.511  14.706 -1.3745  0.1478  0.5113
10268TIP3    H252220   4.255   0.643  14.691  0.7167 -1.0891 -0.5841
10269TIP3   OH252221   2.043   4.868   2.804  0.1569  0.1802  0.2715
10269TIP3    H152222   2.035   4.774   2.792 -1.7378  0.5119 -1.4967
10269TIP3    H252223   2.087   4.879   2.888  1.2157 -2.2693  0.0617
10270TIP3   OH252224   0.215   2.299  10.987 -0.5760 -0.3697 -0.1937
10270TIP3    H152225   0.285   2.282  10.924 -1.2869 -1.1650 -0.7719
10270TIP3    H252226   0.143   2.333  10.934 -1.3890 -1.6045  0.0975
10271TIP3   OH252227   6.418   4.293   3.730  0.6048 -0.4910  0.4983
10271TIP3    H152228   6.407   4.362   3.665  1.5485 -0.1084  0.7487
10271TIP3    H252229   6.502   4.252   3.709  0.6880 -0.6762  1.1790
10272TIP3   OH252230   2.061   2.663  11.551 -0.0578  0.4006  0.5093
10272TIP3    H152231   2.052   2.571  11.528  1.9545  0.4241 -0.4345
10272TIP3    H252232   2.140   2.668  11.604  1.2019  1.8771 -1.4032
10273TIP3   OH252233   3.634   4.753  15.106 -0.1314  0.1328 -0.1488
10273TIP3    H152234   3.605   4.683  15.164 -0.3426  0.2673 -0.0932
10273TIP3    H252235   3.553   4.791  15.071 -0.1205  1.6683  1.3747
10274TIP3   OH252236   2.256   2.018   1.312  0.2720  0.0963 -0.7231
10274TIP3    H152237   2.294   2.009   1.400 -1.8692  0.8017  0.3212
10274TIP3    H252238   2.319   2.071   1.264  1.7652 -0.7960  0.2079
10275TIP3   OH252239   0.522   4.238   2.981  0.0474 -0.3072 -0.0805
10275TIP3    H152240   0.526   4.164   3.042 -0.3205 -0.2469  0.0155
10275TIP3    H252241   0.513   4.197   2.895  2.0249 -0.4453 -0.2578
10276TIP3   OH252242   1.876   0.214  16.050 -0.0425  0.1309  0.0782
10276TIP3    H152243   1.788   0.219  16.014  0.5684  0.3290 -1.4106
10276TIP3    H252244   1.905   0.305  16.056 -0.4127  0.1469  1.7757
10277TIP3   OH252245   5.894   4.630  13.353 -0.2444 -0.7842 -0.6857
10277TIP3    H152246   5.842   4.568  13.405  0.3137 -1.4902 -0.9574
10277TIP3    H252247   5.831   4.674  13.297 -0.8644 -0.0002  0.6005
10278TIP3   OH252248   4.611   4.006  17.102 -0.4030 -0.1540 -0.0977
10278TIP3    H152249   4.606   4.088  17.151 -0.3148  0.0269 -0.3908
10278TIP3    H252250   4.520   3.986  17.080 -0.5142 -0.5857  0.7101
10279TIP3   OH252251   3.709   1.744  11.581 -0.1118 -0.6085 -0.3188
10279TIP3    H152252   3.804   1.749  11.573 -0.1061 -1.1863 -0.6348
10279TIP3    H252253   3.688   1.652  11.562 -0.6301 -0.7225  0.7666
10280TIP3   OH252254   3.791   3.774   0.913  0.4843  0.1283 -0.0127
10280TIP3    H152255   3.780   3.747   0.822 -1.1433  2.3765 -0.5119
10280TIP3    H252256   3.842   3.855   0.908  0.2428  0.3524  1.0693
10281TIP3   OH252257   3.825   0.028  12.970  0.5221 -0.2054 -0.5743
10281TIP3    H152258   3.812  -0.011  13.057  0.9920  1.3796  0.2289
10281TIP3    H252259   3.906  -0.011  12.938  0.5139 -0.5617 -0.1703
10282TIP3   OH252260   5.274   2.906   4.576  0.1731 -0.2435 -0.0370
10282TIP3    H152261   5.228   2.990   4.575 -1.2172 -0.9765  1.0962
10282TIP3    H252262   5.345   2.917   4.513 -1.0652  1.1798 -1.2109
10283TIP3   OH252263   1.502   2.516  15.503  0.3419 -0.4428 -0.0228
10283TIP3    H152264   1.408   2.523  15.485  0.5304  2.1489 -0.2542
10283TIP3    H252265   1.507   2.482  15.592 -0.8238 -0.5397  0.0190
10284TIP3   OH252266   2.764   2.724   4.456 -0.3360 -0.6906  0.0171
10284TIP3    H152267   2.825   2.661   4.496 -0.2055 -0.6735 -0.1533
10284TIP3    H252268   2.686   2.672   4.437 -0.3782 -0.7118  0.2414
10285TIP3   OH252269   1.651   3.034  12.454 -0.1181  0.8965 -0.0088
10285TIP3    H152270   1.558   3.055  12.450 -0.8335 -1.6807  2.0746
10285TIP3    H252271   1.692   3.114  12.486 -1.6433  1.9112 -0.5159
10286TIP3   OH252272   1.161   0.790  16.692 -0.0552 -0.0788  0.4783
10286TIP3    H152273   1.195   0.796  16.602  1.0608  1.0398  0.9622
10286TIP3    H252274   1.224   0.840  16.745 -0.8255 -0.5405  1.8510
10287TIP3   OH252275   0.429   1.918  12.410  0.4060 -0.0734 -0.5987
10287TIP3    H152276   0.366   1.891  12.478 -0.6843 -0.3882 -1.7196
10287TIP3    H252277   0.432   1.843  12.350  2.2295 -0.2545 -0.2879
10288TIP3   OH252278   1.401   2.281   5.456  0.2168 -0.2506  0.0963
10288TIP3    H152279   1.421   2.348   5.390  0.3082 -0.3815 -0.0088
10288TIP3    H252280   1.487   2.255   5.489  0.2062 -0.6497 -0.1918
10289TIP3   OH252281   5.783   6.748   1.977 -0.4329  0.6299 -0.2736
10289TIP3    H152282   5.728   6.671   1.964  2.7516 -1.5681 -1.2353
10289TIP3    H252283   5.806   6.746   2.070 -1.7164  1.4274  0.0802
10290TIP3   OH252284   4.328   0.143   0.462  0.5925 -0.3319  0.0165
10290TIP3    H152285   4.357   0.129   0.552  1.8934 -1.1493 -0.5202
10290TIP3    H252286   4.243   0.099   0.457  0.7022 -0.6319  0.7424
10291TIP3   OH252287   2.276   2.260   2.374 -0.0018 -0.5745 -0.3340
10291TIP3    H152288   2.337   2.318   2.327 -0.1008 -0.4234 -0.2768
10291TIP3    H252289   2.264   2.302   2.459  1.0788 -1.4490  0.2588
10292TIP3   OH252290   2.745   6.498  13.219 -0.1046  0.1123 -0.4641
10292TIP3    H152291   2.686   6.573  13.226  0.4213  0.6169 -1.3681
10292TIP3    H252292   2.710   6.434  13.281  0.4738  1.7862  1.6592
10293TIP3   OH252293   0.671   0.752   3.486 -0.1206 -0.7058  0.5928
10293TIP3    H152294   0.654   0.733   3.393 -2.0604  5.3634 -0.5341
10293TIP3    H252295   0.765   0.771   3.490 -0.0403 -0.9265 -0.1899
10294TIP3   OH252296   5.142   3.335   1.864  0.1127 -0.0979 -0.5621
10294TIP3    H152297   5.084   3.274   1.910 -0.6821 -0.1563 -1.6128
10294TIP3    H252298   5.170   3.397   1.932 -1.7167  0.3237 -0.1659
10295TIP3   OH252299   3.614   5.394   1.030 -0.0623 -0.2605  0.2766
10295TIP3    H152300   3.607   5.302   1.006 -0.7809 -0.4323  1.1119
10295TIP3    H252301   3.668   5.394   1.109  0.1666  0.0605  0.1223
10296TIP3   OH252302   1.508   6.359   3.812  0.4625 -0.0583 -0.4884
10296TIP3    H152303   1.441   6.339   3.746  1.3627  0.6430 -1.6253
10296TIP3    H252304   1.567   6.284   3.809  0.0884 -0.3759  0.0563
10297TIP3   OH252305   2.718   4.127  11.715  0.1355 -0.2507  0.3075
10297TIP3    H152306   2.732   4.217  11.744 -0.8151 -0.2583  0.8033
10297TIP3    H252307   2.688   4.134  11.625  3.4677 -0.2377 -0.8650
10298TIP3   OH252308   2.467   0.794   1.398 -0.2462 -0.4101 -0.0062
10298TIP3    H152309   2.410   0.823   1.326  1.6616  1.6808 -0.7483
10298TIP3    H252310   2.430   0.836   1.476  0.5070  1.3230 -0.5571
10299TIP3   OH252311   5.231   4.791   5.405 -0.3999  0.8044  0.3877
10299TIP3    H152312   5.292   4.859   5.375 -0.5193 -0.1316 -2.1427
10299TIP3    H252313   5.276   4.749   5.478  1.4663  0.9757 -0.6258
10300TIP3   OH252314   0.338   1.833  15.873  0.3635 -0.2705 -0.4249
10300TIP3    H152315   0.328   1.917  15.917  0.4111 -0.3944 -0.1730
10300TIP3    H252316   0.368   1.854  15.785 -0.8742  0.0499 -0.7901
10301TIP3   OH252317   1.610   5.106   3.124  0.0459 -0.2320  0.4317
10301TIP3    H152318   1.642   5.179   3.072  0.0143  0.1179  0.8966
10301TIP3    H252319   1.578   5.146   3.205 -0.2089 -0.7314  0.5842
10302TIP3   OH252320   4.321   2.240  10.931  0.0711 -0.2398 -0.0177
10302TIP3    H152321   4.416   2.255  10.935  0.2349 -1.1551 -0.4348
10302TIP3    H252322   4.305   2.207  10.843 -0.3141 -2.2544  0.7933
10303TIP3   OH252323   5.310   5.406   0.039 -0.1783 -0.0100  0.2682
10303TIP3    H152324   5.331   5.421   0.131 -0.7352  1.3026  0.1890
10303TIP3    H252325   5.250   5.331   0.041 -1.3689  0.9439  1.1167
10304TIP3   OH252326   0.433   6.246   3.952 -0.4802 -0.0561  0.5418
10304TIP3    H152327   0.480   6.307   3.896  0.9517 -1.0127  0.6710
10304TIP3    H252328   0.359   6.296   3.987  0.3163  1.3915  0.1602
10305TIP3   OH252329   5.771   5.726  16.385  0.5135 -0.0504  0.6510
10305TIP3    H152330   5.843   5.667  16.365 -0.2351 -0.7174 -0.1146
10305TIP3    H252331   5.794   5.808  16.340  0.6485 -0.3597  0.1521
10306TIP3   OH252332   3.930   4.485  12.185  0.0242 -0.0752  0.1216
10306TIP3    H152333   3.963   4.575  12.181  0.3036 -0.2243 -0.9884
10306TIP3    H252334   3.998   4.432  12.144 -0.9284 -0.5617 -0.8515
10307TIP3   OH252335   1.121   4.952  11.553 -0.1359  0.0230  0.0610
10307TIP3    H152336   1.046   5.011  11.551  0.1179  0.4093  1.4297
10307TIP3    H252337   1.116   4.904  11.470 -0.8627  1.3160 -0.6618
10308TIP3   OH252338   5.983   1.230   0.652 -0.5298  0.3089 -0.2570
10308TIP3    H152339   5.947   1.196   0.733  0.6571  0.6402  0.4157
10308TIP3    H252340   5.947   1.173   0.584 -0.0808 -1.1024  0.6750
10309TIP3   OH252341   1.399   1.933   3.533 -0.2510  0.1282  0.3998
10309TIP3    H152342   1.441   1.848   3.517 -4.4600 -1.9884 -0.1174
10309TIP3    H252343   1.390   1.937   3.629 -0.0390  0.0125  0.4255
10310TIP3   OH252344   5.193   0.948   1.683  0.1628  0.2515  0.2043
10310TIP3    H152345   5.279   0.968   1.720  0.9580 -0.1535 -1.3488
10310TIP3    H252346   5.137   0.932   1.758  1.1611  1.6902  1.2782
10311TIP3   OH252347   0.200   2.364   3.858 -0.5578 -0.5757 -0.1605
10311TIP3    H152348   0.210   2.276   3.823  0.0221 -1.5858  2.4008
10311TIP3    H252349   0.260   2.418   3.807 -0.4470 -1.7895 -1.3252
10312TIP3   OH252350   2.302   6.519   4.958 -0.4092 -0.1218 -0.2472
10312TIP3    H152351   2.309   6.424   4.956 -1.2769 -0.2633  2.1291
10312TIP3    H252352   2.230   6.536   5.018 -0.5138  2.0400 -0.9453
10313TIP3   OH252353   6.325   1.845  11.623  0.5611  0.2077  0.3266
10313TIP3    H152354   6.300   1.763  11.666 -0.1530  1.2665  1.9465
10313TIP3    H252355   6.417   1.833  11.600  0.4359 -1.0856  0.4543
10314TIP3   OH252356   3.759   0.638  10.657 -0.2787  0.4846  0.0288
10314TIP3    H152357   3.753   0.603  10.569 -3.0780  0.1189  0.3321
10314TIP3    H252358   3.818   0.578  10.703  1.3336  0.7803 -1.6027
10315TIP3   OH252359   5.584   4.933  15.172 -0.2448  0.1534 -0.6827
10315TIP3    H152360   5.529   4.981  15.109 -1.2369  0.8750  0.7155
10315TIP3    H252361   5.543   4.847  15.178 -0.2819  0.1583 -0.8486
10316TIP3   OH252362   2.821   3.605   6.475 -0.6197 -0.1402 -0.0513
10316TIP3    H152363   2.908   3.601   6.435 -0.3647 -0.8529  0.5552
10316TIP3    H252364   2.835   3.577   6.565 -1.2200  1.2799  0.4976
10317TIP3   OH252365   0.129   4.845   0.158  0.4077 -0.5006  0.0249
10317TIP3    H152366   0.116   4.777   0.092  0.3946  0.0621 -0.5506
10317TIP3    H252367   0.183   4.911   0.115 -0.9239  0.6323  0.0507
10318TIP3   OH252368   4.358   5.082  13.421 -0.7311 -0.6639  0.6601
10318TIP3    H152369   4.338   5.003  13.371 -0.9007 -0.7644  0.8854
10318TIP3    H252370   4.384   5.050  13.508 -0.6415 -0.4789  0.7032
10319TIP3   OH252371   4.807   0.506  12.555 -0.1311 -0.4698  0.1147
10319TIP3    H152372   4.867   0.558  12.610 -0.1222 -0.0236 -0.3186
10319TIP3    H252373   4.723   0.513  12.599  0.1365 -1.1329  0.7501
10320TIP3   OH252374   6.525   2.013  11.341  0.7717  0.5079  0.3006
10320TIP3    H152375   6.574   2.038  11.263  0.0854  0.4371 -0.1607
10320TIP3    H252376   6.493   2.096  11.377  0.2372  0.4623 -0.0650
10321TIP3   OH252377   1.272   4.911  15.854  0.1500 -0.0972 -0.2611
10321TIP3    H152378   1.328   4.973  15.808 -0.7067  0.8176 -0.0880
10321TIP3    H252379   1.328   4.873  15.922  0.4649  1.0867  0.1562
10322TIP3   OH252380   5.488   4.505  11.904  0.3006  0.3274  0.2361
10322TIP3    H152381   5.572   4.540  11.876  0.0206  1.6020  0.9178
10322TIP3    H252382   5.424   4.569  11.871 -0.5640 -1.5285 -1.7926
10323TIP3   OH252383   6.167   6.001   0.876  0.0613  0.1359 -0.2298
10323TIP3    H152384   6.177   5.935   0.945  0.0063 -1.1110 -1.3871
10323TIP3    H252385   6.086   6.047   0.899  0.0492 -0.2611  0.5451
10324TIP3   OH252386   6.291   3.879  14.465  0.2784 -0.2834 -0.0987
10324TIP3    H152387   6.223   3.918  14.410  0.8956 -0.6151 -1.0959
10324TIP3    H252388   6.316   3.799  14.420  1.5568 -0.0086  0.0878
10325TIP3   OH252389   2.611   2.470   5.287  0.2200  0.7345 -0.2918
10325TIP3    H152390   2.613   2.460   5.192 -1.5497  0.3777 -0.3065
10325TIP3    H252391   2.525   2.508   5.306  0.1183 -0.2146  1.2538
10326TIP3   OH252392   5.771   4.582  14.742 -0.7560 -0.6243 -0.7265
10326TIP3    H152393   5.798   4.513  14.803 -0.5146  0.2643  0.1928
10326TIP3    H252394   5.825   4.568  14.665 -0.2854 -1.0980 -0.3168
10327TIP3   OH252395   2.940   1.362  15.173  0.0024 -0.6324  0.3300
10327TIP3    H152396   3.033   1.377  15.188  0.0294  1.0029 -1.2144
10327TIP3    H252397   2.937   1.295  15.105  0.1018  0.6726 -0.9769
10328TIP3   OH252398   0.594   2.798  11.207 -0.0244  0.5429 -0.2632
10328TIP3    H152399   0.516   2.853  11.214  0.1155  0.6547  0.4185
10328TIP3    H252400   0.668   2.858  11.219  0.1475  0.3164 -0.1727
10329TIP3   OH252401   2.914   2.802   2.917 -0.9933  0.1847 -0.0882
10329TIP3    H152402   2.901   2.716   2.958 -1.8236  0.0103 -0.7141
10329TIP3    H252403   2.875   2.863   2.979 -0.9950  0.0501  0.0457
10330TIP3   OH252404   2.645   5.894  11.586  0.6341 -0.1940 -0.1294
10330TIP3    H152405   2.614   5.809  11.557  1.4455 -0.8123  0.7605
10330TIP3    H252406   2.585   5.918  11.657  1.9942 -1.2897  1.4442
10331TIP3   OH252407   0.145   6.524  14.710  0.3915 -0.2938  0.0312
10331TIP3    H152408   0.235   6.524  14.742  0.7613 -0.9620 -0.9928
10331TIP3    H252409   0.137   6.443  14.660 -1.0396 -0.6652  0.8377
10332TIP3   OH252410   0.174   3.868  11.484  0.1484  0.1422  0.0633
10332TIP3    H152411   0.178   3.775  11.462  1.3347  0.2634 -0.2187
10332TIP3    H252412   0.242   3.910  11.432 -2.2825  1.6451 -2.0205
10333TIP3   OH252413   2.085   0.235  13.836  0.0976  0.5306 -0.1256
10333TIP3    H152414   2.168   0.278  13.814  0.1977 -0.4374 -1.6690
10333TIP3    H252415   2.072   0.170  13.767 -1.1141 -0.4771  1.0146
10334TIP3   OH252416   4.582   3.360   4.076 -0.1046 -0.0726 -0.4217
10334TIP3    H152417   4.487   3.352   4.066 -0.1905 -1.5359  1.4391
10334TIP3    H252418   4.593   3.431   4.139 -0.0234 -1.1956  0.8320
10335TIP3   OH252419   5.301   0.102   1.840  0.3456  0.2455  0.4138
10335TIP3    H152420   5.348   0.099   1.757 -1.8907  1.1021 -0.9173
10335TIP3    H252421   5.339   0.031   1.892  1.6313 -0.4229 -1.3954
10336TIP3   OH252422   0.046   1.257   5.233  0.5442  0.2573  0.3634
10336TIP3    H152423   0.128   1.304   5.218  1.2811 -0.9678  0.4860
10336TIP3    H252424   0.047   1.236   5.326  0.1996  0.0250  0.3152
10337TIP3   OH252425   0.427   2.654  15.065 -0.0105 -0.3541  0.6447
10337TIP3    H152426   0.391   2.673  14.979  1.1761  0.8380  0.3886
10337TIP3    H252427   0.373   2.704  15.126 -0.8905 -1.2514  0.5979
10338TIP3   OH252428   0.220   2.267  12.068  0.2046 -0.2992  0.8136
10338TIP3    H152429   0.273   2.196  12.104  1.2119 -0.2456 -0.5456
10338TIP3    H252430   0.272   2.346  12.084  0.1017 -0.1370  0.3635
10339TIP3   OH252431   4.653   5.034  12.105 -0.1943  0.1504  0.1399
10339TIP3    H152432   4.651   5.045  12.200  0.6543 -0.2733  0.2053
10339TIP3    H252433   4.613   4.949  12.090 -1.6164  0.8292  0.0155
10340TIP3   OH252434   1.131   6.414   1.763  0.2409 -0.2419 -0.1057
10340TIP3    H152435   1.058   6.353   1.758 -1.0954  1.4240 -1.3543
10340TIP3    H252436   1.191   6.385   1.694 -0.2427 -0.3312 -0.4894
10341TIP3   OH252437   2.827   3.651  10.846  0.1786 -0.0021 -0.0450
10341TIP3    H152438   2.754   3.689  10.796  0.2978 -1.8432 -1.6664
10341TIP3    H252439   2.900   3.710  10.828 -0.4537  0.8470  0.1286
10342TIP3   OH252440   6.140   2.009  15.135  0.5707 -0.4671  0.2793
10342TIP3    H152441   6.119   1.919  15.161  1.2936 -1.2384 -1.7750
10342TIP3    H252442   6.152   2.005  15.041  2.8233  1.3661  0.4585
10343TIP3   OH252443   4.469   4.610   5.717  0.1596 -0.4152 -0.0975
10343TIP3    H152444   4.455   4.634   5.808  0.0911 -1.2831  0.1252
10343TIP3    H252445   4.471   4.514   5.717  2.6000 -0.4048 -0.6363
10344TIP3   OH252446   2.730   6.394  13.791 -0.2455  0.4899 -0.5273
10344TIP3    H152447   2.666   6.326  13.811 -0.0588  0.6442  0.6555
10344TIP3    H252448   2.815   6.356  13.815 -0.0378  0.7562 -0.8395
10345TIP3   OH252449   1.643   4.922  16.353  0.5473  0.8783 -0.0509
10345TIP3    H152450   1.602   4.984  16.292 -1.7587  0.1051  0.6580
10345TIP3    H252451   1.682   4.977  16.420 -0.2454  1.6154 -0.1824
10346TIP3   OH252452   1.079   2.587  15.220 -0.6086  0.3095  0.7055
10346TIP3    H152453   1.162   2.545  15.240 -1.2441 -0.9015  0.8784
10346TIP3    H252454   1.085   2.611  15.127 -0.0477  0.2958  0.7404
10347TIP3   OH252455   0.608   0.112  14.094 -0.5213  0.2477  0.3049
10347TIP3    H152456   0.523   0.150  14.070  0.8621  2.8366 -0.6476
10347TIP3    H252457   0.594   0.018  14.089 -3.0303  0.6462 -0.9717
10348TIP3   OH252458   0.844   5.153   0.254  0.1311  0.9356  0.1381
10348TIP3    H152459   0.791   5.085   0.211 -0.9405  0.6546  1.8494
10348TIP3    H252460   0.787   5.230   0.254  0.0400  0.8733  1.2155
10349TIP3   OH252461   3.482   5.435  13.265  0.1769  0.2188 -0.6162
10349TIP3    H152462   3.423   5.417  13.192  0.4271 -0.1283 -0.7337
10349TIP3    H252463   3.566   5.397  13.239  0.0789 -0.5523  0.1487
10350TIP3   OH252464   4.103   3.058  16.733  0.1072  0.1994  0.1635
10350TIP3    H152465   4.021   3.062  16.781 -0.0538 -1.1148  0.0153
10350TIP3    H252466   4.160   3.122  16.776 -0.2585 -0.4729  1.6742
10351TIP3   OH252467   2.436   3.107   2.946  0.3022 -0.1895  0.2730
10351TIP3    H152468   2.365   3.109   3.010 -0.0501 -0.0434 -0.1171
10351TIP3    H252469   2.498   3.043   2.980 -0.5389 -1.1242  0.0597
10352TIP3   OH252470   4.052   5.590   0.065  0.2763 -0.0163  0.2947
10352TIP3    H152471   3.988   5.532   0.021  0.9027 -1.5685  1.3906
10352TIP3    H252472   4.090   5.641  -0.006 -1.4408  0.1956 -0.5065
10353TIP3   OH252473   4.788   3.240   3.895 -0.2615 -0.3266  0.2997
10353TIP3    H152474   4.740   3.311   3.938 -0.3721 -0.3908  0.2808
10353TIP3    H252475   4.765   3.248   3.803  0.1640 -0.0399  0.2162
10354TIP3   OH252476   1.609   3.809  14.851 -0.1881  0.1768  0.0029
10354TIP3    H152477   1.640   3.728  14.893 -0.8524  0.0996  0.3405
10354TIP3    H252478   1.514   3.803  14.854 -0.2612 -0.3746 -2.5508
10355TIP3   OH252479   4.001   0.017  15.502 -0.6597 -0.1736  0.0188
10355TIP3    H152480   3.996   0.031  15.596 -0.3518 -0.8501  0.1375
10355TIP3    H252481   4.082  -0.033  15.489  0.1496  1.2963 -0.7657
10356TIP3   OH252482   1.207   5.157   4.552  0.2948  0.2120  0.2283
10356TIP3    H152483   1.246   5.071   4.568 -0.0538  0.2088  1.0768
10356TIP3    H252484   1.125   5.138   4.507 -0.2945  0.0278  1.3513
10357TIP3   OH252485   5.644   4.463  10.820 -0.1195 -0.3085  0.4446
10357TIP3    H152486   5.648   4.375  10.781 -1.2910 -0.7378  1.2792
10357TIP3    H252487   5.648   4.522  10.745  1.0347 -1.0585 -0.1060
10358TIP3   OH252488   3.978   4.870   4.521  0.1380 -0.0976  0.1302
10358TIP3    H152489   3.986   4.965   4.513  1.5705 -0.2785 -0.7432
10358TIP3    H252490   4.018   4.850   4.605  2.3388 -0.1996 -0.9070
10359TIP3   OH252491   1.508   3.604   4.057 -0.1487  0.5763 -0.0969
10359TIP3    H152492   1.447   3.586   4.128 -0.7225  2.9419  0.0464
10359TIP3    H252493   1.474   3.554   3.983 -0.7337 -0.2460  0.7129
10360TIP3   OH252494   0.229   2.520  15.202  0.4445  0.4985 -0.4967
10360TIP3    H152495   0.263   2.511  15.113  0.5865  0.1296 -0.4051
10360TIP3    H252496   0.136   2.539  15.191  0.2207 -0.6606 -0.7038
10361TIP3   OH252497   0.404   2.946  15.929  0.4678  0.2096 -0.0650
10361TIP3    H152498   0.410   2.994  15.846  0.7729  0.6863  0.2321
10361TIP3    H252499   0.434   2.857  15.907  1.9647  0.7096 -0.1589
10362TIP3   OH252500   3.141   2.919   3.194 -0.0421 -0.5409 -0.2122
10362TIP3    H152501   3.097   2.846   3.236  2.3008 -1.0287  1.5217
10362TIP3    H252502   3.092   2.996   3.221 -0.4434 -1.1604  0.8598
10363TIP3   OH252503   1.302   6.245   4.748  0.3492  0.3741 -0.3313
10363TIP3    H152504   1.214   6.256   4.714 -0.1749  1.4063  1.3073
10363TIP3    H252505   1.297   6.274   4.839  1.7533 -2.0893  0.5835
10364TIP3   OH252506   0.177   5.676  16.465 -0.2742  0.4522 -0.6069
10364TIP3    H152507   0.260   5.725  16.462 -0.3830  0.6990  0.1100
10364TIP3    H252508   0.199   5.589  16.434 -0.1896  1.1120 -2.4526
10365TIP3   OH252509   5.963   6.184  13.053  0.1640 -0.5728  0.0124
10365TIP3    H152510   5.876   6.154  13.081  0.0627 -0.8791 -0.6164
10365TIP3    H252511   6.024   6.126  13.098  0.0509 -0.3303  0.4903
10366TIP3   OH252512   3.770   6.471   1.573  0.1880 -0.4743  0.2411
10366TIP3    H152513   3.765   6.566   1.581  0.7004 -0.5252  1.4172
10366TIP3    H252514   3.769   6.454   1.479 -0.7184  0.6437  0.0390
10367TIP3   OH252515   5.956   4.495  16.982  0.1962  0.3397  0.4526
10367TIP3    H152516   5.895   4.482  17.054 -0.6661  1.3631 -0.0658
10367TIP3    H252517   5.970   4.408  16.946  1.7094 -0.3727  2.6897
10368TIP3   OH252518   4.662   1.757   3.941 -0.2563 -0.4002 -0.3453
10368TIP3    H152519   4.582   1.730   3.985 -0.1299 -3.0745 -1.6605
10368TIP3    H252520   4.705   1.815   4.003 -1.5674 -1.6500  1.7935
10369TIP3   OH252521   3.144   1.259  13.359 -0.0194  0.2261 -0.2065
10369TIP3    H152522   3.152   1.232  13.450  1.6109 -0.8635 -0.6444
10369TIP3    H252523   3.210   1.328  13.349  0.2501 -0.1074 -0.7257
10370TIP3   OH252524   5.855   6.023  15.717  0.3460  0.3872  0.2702
10370TIP3    H152525   5.948   6.007  15.700 -0.0285 -0.2397 -1.2608
10370TIP3    H252526   5.817   5.936  15.730 -0.0811  0.6179  0.5976
10371TIP3   OH252527   0.864   2.508   4.513  0.0263  0.2861  0.4252
10371TIP3    H152528   0.788   2.553   4.476  1.5221  2.0285 -0.5561
10371TIP3    H252529   0.846   2.415   4.498 -0.3536  0.8370 -2.8705
10372TIP3   OH252530   3.055   2.473   1.375  0.2135  0.7817 -0.4025
10372TIP3    H152531   3.094   2.539   1.318 -0.3871  0.9090 -0.6624
10372TIP3    H252532   2.982   2.517   1.419 -1.4007 -0.2230 -2.0197
10373TIP3   OH252533   5.907   6.113  10.744  0.3014  0.2099  0.2286
10373TIP3    H152534   5.942   6.024  10.732 -1.0308 -0.2002 -0.8684
10373TIP3    H252535   5.843   6.122  10.673  1.5626  2.6575 -0.6498
10374TIP3   OH252536   4.260   6.769  12.546 -0.3318 -0.0219 -0.3066
10374TIP3    H152537   4.295   6.681  12.530  0.8491  0.8418 -2.7038
10374TIP3    H252538   4.165   6.759  12.541 -0.3509 -1.7536  2.7700
10375TIP3   OH252539   3.061   0.627   2.952  0.1365 -0.3069  0.0650
10375TIP3    H152540   2.979   0.662   2.985  0.0749  0.3356 -0.7569
10375TIP3    H252541   3.083   0.556   3.013  0.6810  1.6650  2.2569
10376TIP3   OH252542   0.850   4.733   5.655 -0.6383  0.1871  0.3031
10376TIP3    H152543   0.897   4.773   5.728 -1.7346  0.5996  0.8039
10376TIP3    H252544   0.897   4.652   5.637  0.7048  0.9527  0.2840
10377TIP3   OH252545   6.504   2.249   2.383  0.2858 -0.7815  0.1633
10377TIP3    H152546   6.418   2.226   2.348 -0.1317  0.6633  0.1998
10377TIP3    H252547   6.495   2.340   2.409  1.2453 -1.2005  2.0374
10378TIP3   OH252548   5.588   2.914   5.583 -0.6664 -0.0477  0.1907
10378TIP3    H152549   5.570   2.957   5.666 -0.2089  0.0124  0.2573
10378TIP3    H252550   5.509   2.864   5.564 -1.9981  2.3118 -0.8148
10379TIP3   OH252551   0.454   1.146   5.016  0.0494  0.3615  0.1990
10379TIP3    H152552   0.494   1.071   5.059 -0.6871 -1.9517 -2.9286
10379TIP3    H252553   0.521   1.179   4.956 -0.4131  0.7184 -0.1327
10380TIP3   OH252554   1.451   5.465  13.797 -0.0877  0.3831  0.3712
10380TIP3    H152555   1.389   5.392  13.794 -0.4395  0.6809  0.3817
10380TIP3    H252556   1.430   5.511  13.878  0.9621 -0.2303  1.0007
10381TIP3   OH252557   6.703   5.377  14.322  0.4729 -0.2790 -0.4685
10381TIP3    H152558   6.708   5.353  14.230  2.0998 -1.8862  0.0130
10381TIP3    H252559   6.779   5.433  14.337  0.2361 -0.0523 -0.0802
10382TIP3   OH252560   0.287   5.296  17.134  0.7262  0.0501  0.2418
10382TIP3    H152561   0.316   5.387  17.126 -0.8641  0.5011 -0.6597
10382TIP3    H252562   0.223   5.298  17.206 -0.9672  0.0990 -1.2306
10383TIP3   OH252563   5.526   5.409  14.093 -0.0717  0.3640  0.2526
10383TIP3    H152564   5.439   5.411  14.134 -0.4566 -1.3067 -0.4170
10383TIP3    H252565   5.587   5.420  14.165 -0.8443  2.3797  0.6384
10384TIP3   OH252566   4.173   4.083  15.179  0.0421 -0.2959 -0.7780
10384TIP3    H152567   4.084   4.117  15.185 -0.1726 -1.1615  1.5379
10384TIP3    H252568   4.202   4.076  15.270  2.8074  0.8101 -1.4927
10385TIP3   OH252569   1.156   5.897  15.116 -0.1123  0.5752  0.1151
10385TIP3    H152570   1.171   5.907  15.210  0.4351  1.2004 -0.0369
10385TIP3    H252571   1.129   5.805  15.105  0.5513  0.3041  0.7827
10386TIP3   OH252572   6.459   1.263   1.835  0.0221  0.2624  0.3299
10386TIP3    H152573   6.470   1.168   1.836 -0.4794  0.2130  1.2590
10386TIP3    H252574   6.380   1.277   1.782 -0.6268  0.0815  1.2372
10387TIP3   OH252575   1.249   4.045   0.065  0.6046 -0.2073 -0.5037
10387TIP3    H152576   1.253   4.141   0.070 -0.1418 -0.2665  1.5634
10387TIP3    H252577   1.170   4.022   0.112  0.9377 -1.8862 -0.7444
10388TIP3   OH252578   4.582   0.087   2.599  0.2102 -0.1789  0.1460
10388TIP3    H152579   4.660   0.110   2.650  0.7784  0.3480 -0.9271
10388TIP3    H252580   4.615   0.028   2.531 -0.1432  0.7832 -0.8835
10389TIP3   OH252581   5.993   6.769  12.039 -0.2940 -0.1989 -0.2102
10389TIP3    H152582   5.965   6.854  12.004  0.1197  0.8385  1.9107
10389TIP3    H252583   5.932   6.752  12.111  1.6397 -0.0783  1.5168
10390TIP3   OH252584   4.085   6.304  10.921  0.6323  0.2370 -0.5866
10390TIP3    H152585   4.104   6.346  10.837  2.4223 -1.9106 -1.3179
10390TIP3    H252586   4.126   6.360  10.986  1.5087  0.5170 -1.3722
10391TIP3   OH252587   1.628   4.492   6.180 -0.1520 -0.1079 -0.2992
10391TIP3    H152588   1.708   4.492   6.127 -0.9690  0.7364 -1.5593
10391TIP3    H252589   1.557   4.485   6.116 -1.1410  0.5608  0.7166
10392TIP3   OH252590   0.839   6.655   0.717 -0.1264 -0.4073  0.4036
10392TIP3    H152591   0.755   6.663   0.763 -0.1685 -0.0296  0.2661
10392TIP3    H252592   0.824   6.590   0.649  0.4601 -2.3585  2.1023
10393TIP3   OH252593   1.077   4.128   1.975 -0.1164 -0.0621  0.0655
10393TIP3    H152594   1.019   4.055   1.997  1.6392 -2.0861 -1.8254
10393TIP3    H252595   1.073   4.134   1.880  0.6306  1.6283  0.1111
10394TIP3   OH252596   0.641   4.305  16.102  0.6607 -0.0455 -0.0341
10394TIP3    H152597   0.660   4.396  16.126 -1.3256  0.0047  1.5179
10394TIP3    H252598   0.638   4.305  16.007 -0.0554  1.6729 -0.0267
10395TIP3   OH252599   1.434   0.383  13.675 -0.5276  0.0640 -0.1797
10395TIP3    H152600   1.523   0.418  13.671 -0.4399 -0.1055  0.2963
10395TIP3    H252601   1.441   0.294  13.640 -0.4723 -0.0248  0.0581
10396TIP3   OH252602   0.738   3.058   1.722 -0.2536 -0.0278  0.7818
10396TIP3    H152603   0.682   2.984   1.701 -0.2643  0.6818 -1.8522
10396TIP3    H252604   0.799   3.064   1.648  1.6791  0.7701  2.3720
10397TIP3   OH252605   6.009   3.418  15.829  0.4582 -0.3350 -0.2087
10397TIP3    H152606   5.971   3.506  15.823  0.4934 -0.2999  0.0637
10397TIP3    H252607   6.046   3.414  15.917 -0.2120 -0.8992  0.0470
10398TIP3   OH252608   2.997   2.874  12.371 -0.1011 -0.8227  0.0311
10398TIP3    H152609   2.925   2.901  12.314 -0.3540 -0.7534  0.3844
10398TIP3    H252610   2.988   2.928  12.450  1.0812  0.0927 -0.4325
10399TIP3   OH252611   3.255   3.829  15.569 -0.3666  0.4953  0.5861
10399TIP3    H152612   3.338   3.788  15.595  0.9476  2.1117 -0.9835
10399TIP3    H252613   3.207   3.759  15.525 -0.2465 -0.7065  2.3124
10400TIP3   OH252614   1.541   5.171   2.525 -0.3645 -0.1447  0.2928
10400TIP3    H152615   1.484   5.232   2.572 -0.4634  0.5114 -0.6426
10400TIP3    H252616   1.549   5.095   2.582 -0.0144  0.8674  1.5940
10401TIP3   OH252617   2.500   1.422   6.222  0.2126 -0.5414  0.4666
10401TIP3    H152618   2.413   1.421   6.262 -0.2368 -0.0846 -0.4779
10401TIP3    H252619   2.505   1.507   6.178  0.5405 -1.1927 -0.7805
10402TIP3   OH252620   5.343   1.958  14.402 -0.2077  0.0289  0.0593
10402TIP3    H152621   5.351   1.939  14.308 -2.7466  0.1360 -0.2108
10402TIP3    H252622   5.358   2.052  14.409 -1.2503  0.2469 -0.4338
10403TIP3   OH252623   0.124   5.458  15.210  0.3447  0.6133  0.5662
10403TIP3    H152624   0.200   5.479  15.264 -0.3960 -0.3434  2.0079
10403TIP3    H252625   0.053   5.444  15.273 -0.5136 -0.5963 -0.6517
10404TIP3   OH252626   5.037   5.935  13.901  0.7029  0.0784 -0.2237
10404TIP3    H152627   4.972   5.995  13.936  0.1868 -0.2446 -0.6169
10404TIP3    H252628   5.114   5.990  13.882  1.0545  0.2174  1.5718
10405TIP3   OH252629   5.874   4.464   0.128 -0.5408 -0.2043 -0.6038
10405TIP3    H152630   5.827   4.475   0.211  1.1876 -0.0414  0.3845
10405TIP3    H252631   5.825   4.516   0.065 -0.3103  1.9754  0.9487
10406TIP3   OH252632   0.328   1.613  14.255 -0.1106 -0.3439 -0.4858
10406TIP3    H152633   0.258   1.673  14.229 -1.0108 -1.1352  0.1078
10406TIP3    H252634   0.334   1.621  14.350  0.4587 -0.4410 -0.5075
10407TIP3   OH252635   4.301   1.111   2.995 -0.1943  0.3882 -0.1743
10407TIP3    H152636   4.286   1.081   2.905  0.8735  0.8581 -0.5137
10407TIP3    H252637   4.261   1.042   3.050 -0.0943 -0.3279 -0.9881
10408TIP3   OH252638   5.555   0.977   6.625 -0.4440  0.3028  0.3987
10408TIP3    H152639   5.543   1.022   6.542  2.7884 -0.9912 -0.8821
10408TIP3    H252640   5.538   0.885   6.605 -1.4402  0.2024  1.6351
10409TIP3   OH252641   4.107   0.296   2.392 -0.5567  0.3940  0.4361
10409TIP3    H152642   4.201   0.294   2.374 -0.4418  0.0289  1.0628
10409TIP3    H252643   4.067   0.249   2.318 -0.0075 -1.9578  1.6020
10410TIP3   OH252644   6.270   5.302  13.380 -1.3242 -0.5432  0.3843
10410TIP3    H152645   6.329   5.376  13.369 -2.3201  0.1512 -0.4946
10410TIP3    H252646   6.314   5.244  13.441 -0.7982  1.0654  1.5619
10411TIP3   OH252647   1.863   0.215  15.052  0.0409 -0.0399 -0.3512
10411TIP3    H152648   1.786   0.185  15.100 -0.3050  0.9383 -0.2873
10411TIP3    H252649   1.845   0.307  15.033  1.9253  0.6789  1.1388
10412TIP3   OH252650   3.313   3.623  12.182 -0.1581  0.5893  0.2523
10412TIP3    H152651   3.223   3.636  12.212 -0.3931 -1.8670  0.6497
10412TIP3    H252652   3.365   3.621  12.262 -0.1100 -0.6856  0.1977
10413TIP3   OH252653   4.664   3.486   5.183  0.1687  0.3679  0.3605
10413TIP3    H152654   4.713   3.517   5.107 -1.4028  1.6990 -0.1501
10413TIP3    H252655   4.668   3.559   5.245  0.5199 -0.2901  1.1183
10414TIP3   OH252656   3.737   6.479  13.087  0.1762 -0.6057 -0.2201
10414TIP3    H152657   3.685   6.411  13.131  1.0327  0.1080  2.0079
10414TIP3    H252658   3.757   6.442  13.001 -2.9858 -1.3641 -0.6761
10415TIP3   OH252659   4.869   4.506   4.361  0.4623  0.5591 -0.3620
10415TIP3    H152660   4.863   4.597   4.333  0.6465  0.6281 -0.1812
10415TIP3    H252661   4.907   4.510   4.449  0.6736  0.2977 -0.4372
10416TIP3   OH252662   6.400   6.212   0.956 -0.7643 -0.2050  0.0861
10416TIP3    H152663   6.392   6.238   0.865  1.1943 -0.0327 -0.0592
10416TIP3    H252664   6.310   6.192   0.984 -1.2079 -1.8074 -2.3174
10417TIP3   OH252665   0.023   5.371  13.780 -0.1225  0.2867  0.0748
10417TIP3    H152666   0.105   5.357  13.732  0.2527  0.4882  0.6615
10417TIP3    H252667   0.025   5.464  13.804 -0.6173  0.3402 -0.0798
10418TIP3   OH252668   4.287   5.003   4.042 -0.3209  0.2912 -0.4688
10418TIP3    H152669   4.378   5.031   4.052 -0.0215 -0.7739 -0.0811
10418TIP3    H252670   4.242   5.037   4.120 -0.3400  1.1504 -0.8571
10419TIP3   OH252671   5.128   0.295  17.100 -0.8242  0.5169  0.1928
10419TIP3    H152672   5.077   0.244  17.037  0.6278  1.6998 -2.0296
10419TIP3    H252673   5.218   0.267  17.086 -0.5567  0.1094  2.4670
10420TIP3   OH252674   6.212   5.338   2.558  0.3499  0.4139 -0.2303
10420TIP3    H152675   6.190   5.295   2.476 -2.1518  1.1325  0.0420
10420TIP3    H252676   6.222   5.267   2.621 -2.3601  0.0935 -0.1091
10421TIP3   OH252677   0.446   3.538   5.869 -0.2762  0.2664  0.5097
10421TIP3    H152678   0.368   3.497   5.907 -0.3315  0.1037  0.2239
10421TIP3    H252679   0.428   3.540   5.775  0.2053 -0.0766  0.4121
10422TIP3   OH252680   5.893   5.423  12.522  0.1717 -0.0274  0.0601
10422TIP3    H152681   5.980   5.430  12.484  0.0213  0.7000 -0.1571
10422TIP3    H252682   5.898   5.472  12.604 -0.2312  0.6413 -0.3080
10423TIP3   OH252683   2.655   3.649   5.951  0.0808 -0.1508  0.7439
10423TIP3    H152684   2.703   3.586   6.004  1.8185 -1.2749 -2.0883
10423TIP3    H252685   2.635   3.603   5.870  2.4745  3.2350 -1.9006
10424TIP3   OH252686   3.095   0.173  15.043  0.5419 -0.0952  0.8108
10424TIP3    H152687   3.055   0.225  14.973  0.8534 -1.2073 -0.2182
10424TIP3    H252688   3.034   0.180  15.116 -1.3997 -1.5160 -0.6206
10425TIP3   OH252689   0.085   1.577   5.519  0.4973  0.7299  0.0623
10425TIP3    H152690   0.150   1.508   5.507 -2.4063 -1.6741 -2.5694
10425TIP3    H252691   0.118   1.650   5.465  1.6522  0.0184 -0.2156
10426TIP3   OH252692   2.074   6.215  16.705  0.2022  0.1278 -0.1856
10426TIP3    H152693   2.060   6.303  16.669 -0.1125  0.4209  0.6266
10426TIP3    H252694   2.045   6.156  16.636  0.2729  0.6652 -0.6802
10427TIP3   OH252695   1.692   0.468  10.981 -0.2275 -0.8539  0.3227
10427TIP3    H152696   1.636   0.519  10.923  2.7910 -0.8218 -2.6518
10427TIP3    H252697   1.680   0.377  10.953  0.4811 -0.9557  0.3563
10428TIP3   OH252698   0.317   2.038   4.519 -0.2616 -0.2366 -0.2239
10428TIP3    H152699   0.257   2.013   4.449 -0.9053  2.6718 -0.7780
10428TIP3    H252700   0.272   2.110   4.564  1.6356  0.1903  1.0414
10429TIP3   OH252701   5.083   2.710  15.782  0.5173  0.0106  0.0275
10429TIP3    H152702   5.141   2.683  15.852  1.6066 -1.1926 -1.2945
10429TIP3    H252703   5.092   2.641  15.715 -1.6525  0.3148 -0.6357
10430TIP3   OH252704   0.724   4.420   0.057  0.2126 -0.0657  0.2469
10430TIP3    H152705   0.789   4.377   0.113  0.1245  1.2181  1.3664
10430TIP3    H252706   0.664   4.350   0.031  2.0125 -1.2557 -0.7650
10431TIP3   OH252707   6.775   4.954   1.617  0.0956 -0.2939 -0.2352
10431TIP3    H152708   6.758   4.904   1.697 -1.6504  1.1278  0.2864
10431TIP3    H252709   6.784   5.045   1.646  0.5869  0.0869 -1.5243
10432TIP3   OH252710   6.639   3.653  16.503  0.3669 -0.3153 -0.0801
10432TIP3    H152711   6.727   3.679  16.531  0.8486 -0.5174 -1.3410
10432TIP3    H252712   6.644   3.653  16.407 -0.8660 -0.8253 -0.1524
10433TIP3   OH252713   4.595   5.333  15.774  0.7377  0.2557 -0.3673
10433TIP3    H152714   4.565   5.373  15.693 -1.4944 -0.3986  0.1010
10433TIP3    H252715   4.588   5.239  15.759  0.9465  0.1223  0.3405
10434TIP3   OH252716   1.848   0.947  13.424 -0.2080  0.0896  0.4739
10434TIP3    H152717   1.874   0.876  13.483 -0.5305 -0.6324 -0.2510
10434TIP3    H252718   1.766   0.980  13.462 -1.1290 -1.2666 -0.3097
10435TIP3   OH252719   4.256   2.658   4.330  0.9774  0.0813 -0.7566
10435TIP3    H152720   4.195   2.696   4.394  1.5860 -0.1785 -0.0120
10435TIP3    H252721   4.329   2.721   4.327  1.7346 -0.7406  0.0723
10436TIP3   OH252722   5.132   3.087   0.978 -0.2088  0.4371  0.8005
10436TIP3    H152723   5.104   3.163   1.030 -1.8781  0.3076  0.1202
10436TIP3    H252724   5.145   3.122   0.890  1.2861  0.3796  0.9853
10437TIP3   OH252725   3.118   2.599  13.420 -0.4132  0.5477 -0.7830
10437TIP3    H152726   3.063   2.672  13.449 -0.7597  0.0849 -0.2658
10437TIP3    H252727   3.163   2.570  13.499  0.0465  0.4753 -1.0749
10438TIP3   OH252728   6.675   1.068  11.127 -0.2389  0.0124 -0.0443
10438TIP3    H152729   6.731   0.995  11.100  0.1277 -0.4753  1.9162
10438TIP3    H252730   6.700   1.140  11.069  0.6585 -0.9148 -0.8314
10439TIP3   OH252731   3.868   5.051   1.421 -0.0171 -0.0250 -0.0547
10439TIP3    H152732   3.955   5.090   1.414  0.1169 -0.2212  0.5626
10439TIP3    H252733   3.854   5.038   1.514  0.1383 -1.9015 -0.2714
10440TIP3   OH252734   2.431   6.014   1.576  0.1148 -0.1332  0.3665
10440TIP3    H152735   2.456   6.104   1.557  1.5935 -0.1477  2.1275
10440TIP3    H252736   2.377   5.988   1.501 -1.2973  2.5666  0.3849
10441TIP3   OH252737   4.531   6.024  16.452  0.1828  0.3053  0.5384
10441TIP3    H152738   4.612   5.973  16.453  0.0374  0.0812  0.7320
10441TIP3    H252739   4.558   6.111  16.423  0.2648 -0.1691 -0.8312
10442TIP3   OH252740   2.778   4.851  13.540 -0.2707 -0.1710 -0.8668
10442TIP3    H152741   2.706   4.914  13.536 -2.3171 -2.4411 -0.5809
10442TIP3    H252742   2.800   4.845  13.633  0.7132  0.9535 -1.0136
10443TIP3   OH252743   1.400   4.820   6.755  0.0949 -0.2512 -0.1335
10443TIP3    H152744   1.449   4.742   6.728 -0.7171 -0.5572 -0.7708
10443TIP3    H252745   1.427   4.888   6.693  0.0283 -0.3156 -0.2344
10444TIP3   OH252746   5.908   4.394  14.912 -0.5650  0.0468  0.1184
10444TIP3    H152747   5.857   4.320  14.879 -1.3587  0.4697  0.3653
10444TIP3    H252748   5.990   4.392  14.863 -0.8187 -0.6612 -0.2691
10445TIP3   OH252749   1.927   1.413   1.680 -0.5399  0.0071  0.7648
10445TIP3    H152750   1.979   1.427   1.759 -0.7755  1.7686  0.6230
10445TIP3    H252751   1.856   1.355   1.708 -0.6373  0.6378  1.8604
10446TIP3   OH252752   5.475   1.067  12.321  0.7179 -0.4258 -0.1140
10446TIP3    H152753   5.395   1.119  12.312 -1.4052 -3.2003  1.9483
10446TIP3    H252754   5.451   0.980  12.289  3.1022 -1.1612 -0.0062
10447TIP3   OH252755   4.798   0.574  14.932  0.0922 -0.3849 -1.1784
10447TIP3    H152756   4.713   0.607  14.904  0.3488 -0.3237 -1.9039
10447TIP3    H252757   4.804   0.487  14.893  0.8907  0.1114 -2.2225
10448TIP3   OH252758   6.288   5.524  15.274  0.0250  0.3769 -0.0204
10448TIP3    H152759   6.356   5.502  15.211 -0.6812 -0.1241 -0.6089
10448TIP3    H252760   6.299   5.618  15.288 -0.2223  0.6257 -1.3891
10449TIP3   OH252761   3.491   0.258  16.750 -0.6628 -0.5223 -0.2805
10449TIP3    H152762   3.438   0.212  16.685 -1.8976 -1.2653  1.2158
10449TIP3    H252763   3.458   0.227  16.835  0.6547  0.7039  0.7176
10450TIP3   OH252764   1.179   5.510  16.448  0.0383 -0.2054  0.3130
10450TIP3    H152765   1.118   5.443  16.479  0.6364 -0.8377  0.1452
10450TIP3    H252766   1.130   5.592  16.454 -0.3316 -0.5092  1.5740
10451TIP3   OH252767   5.246   2.631  11.901 -0.1935 -0.2857  0.6344
10451TIP3    H152768   5.202   2.716  11.893 -0.9170 -0.7251 -0.0668
10451TIP3    H252769   5.193   2.571  11.849 -0.6477 -1.5380  2.4915
10452TIP3   OH252770   0.973   0.178   3.970  0.4535 -0.5017  0.3159
10452TIP3    H152771   0.983   0.257   4.025 -0.3613 -1.5714  2.0365
10452TIP3    H252772   0.879   0.165   3.963  0.5184  0.1086 -2.1153
10453TIP3   OH252773   0.028   4.754   0.589 -0.2085  0.2439  0.2118
10453TIP3    H152774   0.088   4.828   0.583 -0.2773  0.2074 -1.3693
10453TIP3    H252775   0.012   4.742   0.682  2.3745  0.1592  0.6897
10454TIP3   OH252776   5.769   2.559   3.430  0.2387 -0.5769  0.0953
10454TIP3    H152777   5.742   2.508   3.506  0.9831 -1.4085 -0.1897
10454TIP3    H252778   5.695   2.555   3.370 -0.4736  0.3339  0.8855
10455TIP3   OH252779   4.974   6.442   3.147  0.8161 -0.1466 -0.2771
10455TIP3    H152780   5.002   6.511   3.208  1.2645 -1.2354  0.7639
10455TIP3    H252781   4.961   6.365   3.202 -1.1849 -0.5171 -1.2043
10456TIP3   OH252782   6.138   0.551  13.513 -0.0928 -0.3901  0.3311
10456TIP3    H152783   6.198   0.557  13.587  0.4744  1.4403 -0.2340
10456TIP3    H252784   6.051   0.567  13.550  0.0975 -0.3076  0.7381
10457TIP3   OH252785   3.159   2.914  11.115 -0.0122 -0.0522  0.2423
10457TIP3    H152786   3.224   2.959  11.169  0.0449  0.7884 -0.5300
10457TIP3    H252787   3.111   2.859  11.177  0.5790  0.3030  1.0224
10458TIP3   OH252788   0.027   4.058  11.622  0.1286  0.0272  0.2770
10458TIP3    H152789   0.073   4.140  11.602 -1.1302  0.6603 -0.0789
10458TIP3    H252790   0.078   3.990  11.578 -0.1720  0.9041 -1.4856
10459TIP3   OH252791   0.536   4.794  11.562  0.3380  0.1276  0.2259
10459TIP3    H152792   0.561   4.743  11.484 -0.6245  0.0580 -0.0430
10459TIP3    H252793   0.451   4.758  11.587 -1.8710  3.6701 -1.8023
10460TIP3   OH252794   6.437   3.420  14.975  0.2082  0.2699 -0.0016
10460TIP3    H152795   6.374   3.476  15.022  1.8698  1.1339  1.2621
10460TIP3    H252796   6.513   3.477  14.961  1.3623 -1.2435  0.0099
10461TIP3   OH252797   4.779   0.342  16.400  0.3346 -0.2132  0.1727
10461TIP3    H152798   4.688   0.315  16.390 -0.6010  2.3401  1.5279
10461TIP3    H252799   4.775   0.434  16.426  3.3299  0.2319 -0.7201
10462TIP3   OH252800   2.068   0.737  16.773  0.2180  0.1246 -0.5941
10462TIP3    H152801   2.129   0.745  16.847  0.6713 -1.2824 -0.8114
10462TIP3    H252802   1.986   0.709  16.812 -0.0904  1.2963 -0.3892
10463TIP3   OH252803   5.561   5.680   4.404  0.7562  0.2713  0.0409
10463TIP3    H152804   5.550   5.585   4.398 -0.4241  0.2934  1.4495
10463TIP3    H252805   5.629   5.693   4.470 -0.0057  0.4182  0.8105
10464TIP3   OH252806   4.055   3.870  15.487  0.5065  0.1530  0.0249
10464TIP3    H152807   4.126   3.820  15.447  0.3013  1.1365 -1.6135
10464TIP3    H252808   3.975   3.832  15.451  0.3397  1.4552 -1.0302
10465TIP3   OH252809   3.604   2.201   5.069 -0.0401 -0.1873 -0.2345
10465TIP3    H152810   3.609   2.216   4.975 -1.1524  2.0148  0.0439
10465TIP3    H252811   3.541   2.265   5.101 -2.0972 -2.9767  1.5748
10466TIP3   OH252812   6.290   3.901   0.455  0.1863 -0.5214 -0.2899
10466TIP3    H152813   6.195   3.915   0.448  0.5372  0.9552 -3.3294
10466TIP3    H252814   6.299   3.817   0.500 -2.5582 -0.6200  0.1670
10467TIP3   OH252815   6.214   4.268  12.825 -0.1767  0.1403  1.3847
10467TIP3    H152816   6.171   4.255  12.740  0.2444  2.1154  0.8409
10467TIP3    H252817   6.145   4.302  12.882  0.1892  1.5902  1.0042
10468TIP3   OH252818   1.003   2.408  11.489 -0.1234  0.0228  0.4205
10468TIP3    H152819   0.979   2.500  11.480 -1.7644 -0.2963  1.4417
10468TIP3    H252820   0.968   2.382  11.574 -0.3271 -1.7514 -0.1913
10469TIP3   OH252821   4.785   6.336   4.299  0.1907 -0.3617 -0.1612
10469TIP3    H152822   4.834   6.401   4.249  1.7815 -1.8816 -0.6261
10469TIP3    H252823   4.835   6.255   4.288  0.0273 -0.9573  3.0640
10470TIP3   OH252824   1.522   2.108   6.266  0.0306  0.3133  0.2011
10470TIP3    H152825   1.444   2.151   6.301 -0.9833 -0.0833 -1.5027
10470TIP3    H252826   1.491   2.059   6.189  1.8285 -0.4110 -0.1123
10471TIP3   OH252827   3.646   6.556   3.003 -0.2826 -0.1077  0.2264
10471TIP3    H152828   3.613   6.629   3.056 -1.6474 -2.0549  2.1716
10471TIP3    H252829   3.740   6.556   3.019  0.1240  2.6870 -1.7458
10472TIP3   OH252830   2.819   0.185   6.510 -0.2831 -0.3816 -0.3447
10472TIP3    H152831   2.854   0.113   6.563 -1.6024 -0.2092  0.7887
10472TIP3    H252832   2.761   0.142   6.447 -2.0105 -0.2334  1.1098
10473TIP3   OH252833   5.299   4.904  11.524  0.4669  0.5312  0.1445
10473TIP3    H152834   5.378   4.948  11.557  0.4990 -0.8663  2.0354
10473TIP3    H252835   5.312   4.812  11.547 -1.9170  0.3643  0.9073
10474TIP3   OH252836   0.856   4.644   4.170  0.6662 -0.0945 -0.3878
10474TIP3    H152837   0.762   4.648   4.187  0.5998  0.0760 -0.7955
10474TIP3    H252838   0.897   4.669   4.253  0.3511 -0.2373 -0.1922
10475TIP3   OH252839   5.217   1.613  15.109  0.0950 -0.0931 -0.0646
10475TIP3    H152840   5.155   1.675  15.147  0.6537  0.0132  0.6856
10475TIP3    H252841   5.197   1.613  15.016  0.5371  1.7085 -0.1729
10476TIP3   OH252842   0.018   2.408   0.643  0.3769  0.4277 -0.2720
10476TIP3    H152843   0.095   2.444   0.599 -0.3101  0.4091 -1.5087
10476TIP3    H252844  -0.000   2.326   0.597  1.6138 -1.3048  2.1825
10477TIP3   OH252845   5.960   6.759  12.578  0.0169 -0.0618 -0.1279
10477TIP3    H152846   6.051   6.753  12.549 -0.4201 -0.2300 -1.4912
10477TIP3    H252847   5.942   6.673  12.617  0.1993 -0.3206 -0.6038
10478TIP3   OH252848   3.056   5.690   0.971 -0.5078  0.4588  0.3180
10478TIP3    H152849   3.134   5.746   0.979  0.4161 -0.8013  0.3784
10478TIP3    H252850   3.058   5.636   1.050 -1.4282  0.3916  0.2919
10479TIP3   OH252851   5.045   4.144  11.509  0.2372  0.1300  0.8079
10479TIP3    H152852   5.038   4.236  11.484 -1.1648 -0.6352 -1.8529
10479TIP3    H252853   4.958   4.121  11.541  0.0847 -0.6800 -0.1553
10480TIP3   OH252854   6.255   0.877   3.763 -0.0003 -0.0367 -0.3958
10480TIP3    H152855   6.232   0.785   3.767  0.4293 -0.1362 -0.1498
10480TIP3    H252856   6.241   0.909   3.852  1.0652 -0.1666 -0.1735
10481TIP3   OH252857   1.115   3.571  15.771 -0.4126 -0.1199 -0.0575
10481TIP3    H152858   1.161   3.642  15.726  1.0139 -0.2573  1.1400
10481TIP3    H252859   1.081   3.611  15.851 -1.3530 -0.3165 -0.3507
10482TIP3   OH252860   4.538   3.015  15.916  0.1169  0.3745  0.3535
10482TIP3    H152861   4.611   3.070  15.943  1.1306 -0.6216 -0.2740
10482TIP3    H252862   4.514   2.966  15.995  1.2515 -0.5122  0.1711
10483TIP3   OH252863   5.633   0.072  15.436 -0.2766  0.0058  0.4518
10483TIP3    H152864   5.539   0.081  15.451 -0.6204 -2.1801 -0.1888
10483TIP3    H252865   5.674   0.120  15.508 -1.8653 -1.9047  2.6893
10484TIP3   OH252866   5.291   6.504   1.071  0.7635  0.1482 -0.2568
10484TIP3    H152867   5.247   6.452   1.003  0.2164  1.6133 -1.0369
10484TIP3    H252868   5.354   6.558   1.024  1.1429  0.3915  0.5208
10485TIP3   OH252869   0.036   5.642  12.928  0.1162  0.5852 -0.1891
10485TIP3    H152870   0.125   5.616  12.953  0.4631 -1.7952 -3.5498
10485TIP3    H252871   0.039   5.738  12.925  2.4454  0.5508  0.2157
10486TIP3   OH252872   0.261   0.521  12.593 -0.7302 -0.3921 -0.4783
10486TIP3    H152873   0.189   0.478  12.546  0.7091 -0.9590 -2.2714
10486TIP3    H252874   0.322   0.449  12.612 -0.7157  0.0497  1.1947
10487TIP3   OH252875   1.385   6.710  10.964  0.0593 -0.6959 -0.1860
10487TIP3    H152876   1.419   6.638  10.910 -0.9842 -1.1959 -0.1807
10487TIP3    H252877   1.293   6.719  10.937  0.9767  2.8090 -2.5788
10488TIP3   OH252878   5.066   2.300  12.014  0.2365  0.7376  0.4680
10488TIP3    H152879   5.120   2.360  12.065  1.1098  0.1663  0.2207
10488TIP3    H252880   4.979   2.340  12.015  0.7370  1.8544  0.5573
10489TIP3   OH252881   2.001   1.869   3.269  0.6699  0.3560  0.0124
10489TIP3    H152882   2.020   1.827   3.185  0.8273  0.9776 -0.2677
10489TIP3    H252883   2.070   1.838   3.327 -0.0900 -0.9752  0.2282
10490TIP3   OH252884   4.889   0.801   3.665  0.3123  0.0828 -0.0136
10490TIP3    H152885   4.953   0.773   3.731  0.9943  0.2957 -0.5748
10490TIP3    H252886   4.934   0.871   3.617 -0.1937 -0.0504 -0.6816
10491TIP3   OH252887   3.662   4.495  12.095 -0.1361  0.4369 -0.3916
10491TIP3    H152888   3.757   4.499  12.084 -0.0212  1.5974  0.7910
10491TIP3    H252889   3.643   4.402  12.106  1.1859  0.3644  1.6758
10492TIP3   OH252890   1.361   1.345   3.081  0.2126  0.7370 -0.2189
10492TIP3    H152891   1.324   1.422   3.039  0.0062 -0.0786 -1.5942
10492TIP3    H252892   1.294   1.314   3.141  0.4117  1.7926  0.5442
10493TIP3   OH252893   1.294   1.308   4.863 -0.4185  0.3839  0.4747
10493TIP3    H152894   1.202   1.287   4.879 -0.2031 -0.2883  0.8656
10493TIP3    H252895   1.292   1.375   4.795 -1.0796 -2.0016 -1.9309
10494TIP3   OH252896   1.659   5.714   0.648  0.3258 -0.7605  0.5076
10494TIP3    H152897   1.573   5.708   0.690 -0.1891 -2.3356 -0.7089
10494TIP3    H252898   1.671   5.629   0.606  2.2975 -0.4010  0.2867
10495TIP3   OH252899   2.701   3.184  12.017  0.3297  0.3186  0.4154
10495TIP3    H152900   2.793   3.204  12.035  0.2092  1.8885 -0.5406
10495TIP3    H252901   2.703   3.099  11.974  1.5740  1.2508 -1.4921
10496TIP3   OH252902   2.836   3.990   4.042  0.2982  0.0308 -0.1008
10496TIP3    H152903   2.767   3.959   4.101  2.5828 -2.9337  1.1780
10496TIP3    H252904   2.803   3.969   3.955 -0.5940 -1.0810  0.4732
10497TIP3   OH252905   2.805   2.871   1.665  0.2969 -0.2723  0.4711
10497TIP3    H152906   2.894   2.865   1.700  0.9951  1.9798 -0.8235
10497TIP3    H252907   2.754   2.908   1.737  0.5102 -1.1265  1.0604
10498TIP3   OH252908   4.455   6.736   5.434 -0.3867  0.1393  0.3714
10498TIP3    H152909   4.434   6.828   5.424 -0.5581 -0.0467 -1.0939
10498TIP3    H252910   4.530   6.734   5.494 -1.1266  1.1357  1.3632
10499TIP3   OH252911   0.499   5.543   4.203  0.2972  0.5282 -0.6490
10499TIP3    H152912   0.577   5.517   4.153 -0.4610 -1.3114 -0.8902
10499TIP3    H252913   0.460   5.461   4.232 -2.1955  1.3553 -1.4979
10500TIP3   OH252914   0.218   2.614   4.730  0.3802  0.3161 -0.8397
10500TIP3    H152915   0.181   2.670   4.798  1.7369  1.4392 -1.0172
10500TIP3    H252916   0.226   2.528   4.773  0.4678  0.8112  0.1585
10501TIP3   OH252917   2.219   0.118   4.198  0.4390 -0.2510  0.0174
10501TIP3    H152918   2.285   0.050   4.182  2.2591  1.6626 -0.9219
10501TIP3    H252919   2.213   0.123   4.294  0.6983 -1.3406  0.1000
10502TIP3   OH252920   3.232   4.625   5.410 -0.1901  0.5312 -0.2803
10502TIP3    H152921   3.239   4.718   5.430  2.0991 -0.0003  1.6408
10502TIP3    H252922   3.245   4.619   5.315 -0.7907  2.1973 -0.4734
10503TIP3   OH252923   6.110   2.232  12.512  0.0074  0.3203  0.9594
10503TIP3    H152924   6.183   2.232  12.451  0.2933  1.3471  1.2907
10503TIP3    H252925   6.045   2.290  12.473 -0.5519 -0.4116  0.7731
10504TIP3   OH252926   0.526   3.988   4.817  0.0265  0.5382 -0.8654
10504TIP3    H152927   0.508   4.052   4.748 -1.4897  0.7453 -0.3023
10504TIP3    H252928   0.441   3.976   4.861  0.6946 -0.5337  0.1493
10505TIP3   OH252929   1.130   3.571   5.038  0.6291 -0.4555 -0.4571
10505TIP3    H152930   1.064   3.539   5.100 -0.2586 -0.1766 -1.2413
10505TIP3    H252931   1.213   3.555   5.081  0.0203 -0.2911  0.8002
10506TIP3   OH252932   1.956   6.192   2.148 -0.2524  0.3189 -0.2669
10506TIP3    H152933   1.951   6.117   2.090 -1.8384 -0.3060  0.6596
10506TIP3    H252934   2.049   6.201   2.167 -0.1005 -1.7705  0.0783
10507TIP3   OH252935   0.083   3.459  12.613  0.1185  0.1733 -0.3385
10507TIP3    H152936   0.019   3.493  12.675  0.5128  1.8509 -0.8145
10507TIP3    H252937   0.149   3.416  12.667 -0.3613  0.2234  0.2897
10508TIP3   OH252938   0.803   4.520  15.506 -0.4867 -0.3187  0.1706
10508TIP3    H152939   0.825   4.578  15.580  0.2368  0.1554 -0.4090
10508TIP3    H252940   0.838   4.435  15.532 -1.6462 -0.5277  1.0756
10509TIP3   OH252941   4.587   4.741  17.092  0.2087 -0.1517 -0.0613
10509TIP3    H152942   4.528   4.816  17.102  0.4226  0.0138 -0.0397
10509TIP3    H252943   4.610   4.741  16.999  0.2247 -0.1796 -0.0569
10510TIP3   OH252944   1.344   6.256   2.390  0.1805 -0.1276  0.8606
10510TIP3    H152945   1.406   6.320   2.425  1.0111 -0.1451 -0.5370
10510TIP3    H252946   1.397   6.199   2.335 -0.8878 -0.8328  0.5444
10511TIP3   OH252947   1.161   4.181  11.615  0.4588  0.8929  0.6514
10511TIP3    H152948   1.105   4.133  11.676 -1.2003  0.0396 -1.5169
10511TIP3    H252949   1.104   4.246  11.575  0.9590 -0.0729 -1.6810
10512TIP3   OH252950   2.321   2.532  13.442 -0.0873 -0.0223 -0.5921
10512TIP3    H152951   2.357   2.617  13.469  0.7033 -0.3816 -0.5144
10512TIP3    H252952   2.228   2.539  13.462  0.6032 -0.6055  3.1486
10513TIP3   OH252953   4.285   5.360   0.082 -0.1987 -0.1947  0.2234
10513TIP3    H152954   4.194   5.377   0.057  0.3767  2.1339 -0.3963
10513TIP3    H252955   4.284   5.360   0.178 -0.3265  3.1522  0.2797
10514TIP3   OH252956   0.765   0.773   1.702 -0.4278  0.4915 -0.4357
10514TIP3    H152957   0.830   0.740   1.640  1.7031  0.7311  1.5824
10514TIP3    H252958   0.681   0.747   1.666  0.8079 -0.1386 -2.9500
10515TIP3   OH252959   0.369   3.987   6.419 -0.0850  0.2389  0.4328
10515TIP3    H152960   0.391   3.911   6.472 -2.1824  1.0202  2.4803
10515TIP3    H252961   0.409   4.061   6.464  1.1985  0.5127 -1.0811
10516TIP3   OH252962   4.337   0.741   4.948  1.0386  0.3364 -0.0751
10516TIP3    H152963   4.321   0.793   5.027 -0.5491 -1.8280  1.0634
10516TIP3    H252964   4.419   0.696   4.965  1.4792  1.0346 -0.3125
10517TIP3   OH252965   1.234   2.152   1.760 -0.4350 -0.0923  0.4509
10517TIP3    H152966   1.189   2.218   1.813 -0.8022 -2.3656  3.0559
10517TIP3    H252967   1.183   2.148   1.679  0.8025  4.2445 -0.6826
10518TIP3   OH252968   6.530   2.176  13.358 -0.1120 -0.2031 -0.4486
10518TIP3    H152969   6.568   2.149  13.275  1.8795 -2.2226  1.0395
10518TIP3    H252970   6.549   2.270  13.363  1.8018 -0.5196 -1.2557
10519TIP3   OH252971   1.869   0.168   4.409  0.1317  0.4191  0.7798
10519TIP3    H152972   1.962   0.153   4.394 -0.3614  0.8315 -3.0053
10519TIP3    H252973   1.825   0.110   4.347 -2.1075  1.8493  0.9923
10520TIP3   OH252974   3.455   1.344  11.598  0.0370 -0.2097  0.2831
10520TIP3    H152975   3.363   1.368  11.583 -0.5322  0.1910  3.9367
10520TIP3    H252976   3.504   1.409  11.548 -1.6502  0.3550 -0.6966
10521TIP3   OH252977   6.461   3.153   4.722  0.2573 -0.5068 -0.2683
10521TIP3    H152978   6.542   3.198   4.745  0.7020 -0.3072 -2.1787
10521TIP3    H252979   6.487   3.062   4.708  0.1688 -0.4154 -1.0140
10522TIP3   OH252980   2.751   5.868   0.179  0.3663 -0.2043  0.1603
10522TIP3    H152981   2.778   5.932   0.113 -0.9734  0.6886  0.4523
10522TIP3    H252982   2.816   5.798   0.173  0.8014  0.3203 -1.4377
10523TIP3   OH252983   0.797   2.042   1.568 -0.1403  0.1300 -0.3976
10523TIP3    H152984   0.779   2.084   1.652 -0.0277 -1.8618  0.6654
10523TIP3    H252985   0.869   2.093   1.531 -0.6982  1.4867  0.3817
10524TIP3   OH252986   4.917   1.846  13.277 -0.5025  0.1101  0.6986
10524TIP3    H152987   4.949   1.764  13.315  2.9098  1.1966  0.3908
10524TIP3    H252988   4.915   1.830  13.183 -2.1946 -0.3797  0.8137
10525TIP3   OH252989   5.658   4.112   6.144 -0.0903 -0.3714 -0.1357
10525TIP3    H152990   5.618   4.145   6.225 -0.8015  1.0922 -1.0765
10525TIP3    H252991   5.603   4.038   6.118 -0.2266 -0.4523  0.3797
10526TIP3   OH252992   5.427   3.423   5.409 -0.2207 -0.0543  0.3688
10526TIP3    H152993   5.437   3.470   5.327 -0.7042 -0.7654 -0.1146
10526TIP3    H252994   5.496   3.357   5.408  0.0880  0.2633  0.7661
10527TIP3   OH252995   2.831   4.920  16.911 -0.4348 -0.0509 -0.3073
10527TIP3    H152996   2.808   4.935  16.819 -1.0892 -0.0916 -0.1553
10527TIP3    H252997   2.791   4.992  16.958  0.5574  0.3963 -0.1348
10528TIP3   OH252998   4.631   4.797   5.560  0.3329  0.1633 -0.6229
10528TIP3    H152999   4.561   4.852   5.524  0.4432 -0.4300 -1.7779
10528TIP3    H253000   4.585   4.723   5.600  0.3098 -0.5111 -1.8732
10529TIP3   OH253001   3.630   0.406  14.227  0.4744  0.0274  0.3239
10529TIP3    H153002   3.725   0.394  14.224  0.5333  0.9820 -2.2660
10529TIP3    H253003   3.603   0.356  14.304  3.0226 -0.5625  0.8943
10530TIP3   OH253004   6.705   0.889   3.842  0.7235  0.7117 -0.7539
10530TIP3    H153005   6.758   0.841   3.905 -1.0892  1.8085  1.6876
10530TIP3    H253006   6.639   0.827   3.813  1.1980  0.3849 -1.1503
10531TIP3   OH253007   6.556   5.510  15.040 -0.3770 -0.4052  0.1705
10531TIP3    H153008   6.578   5.597  15.007 -0.2357 -0.3030  0.5314
10531TIP3    H253009   6.474   5.487  14.996 -0.4620 -0.0501  0.1457
10532TIP3   OH253010   3.371   3.974   6.451 -0.0960 -0.6549  0.2633
10532TIP3    H153011   3.286   4.012   6.472  0.5972  0.5589  0.9648
10532TIP3    H253012   3.427   3.997   6.525  1.6770  1.3585 -1.5883
10533TIP3   OH253013   4.151   5.711  17.054 -0.0876 -0.2769  0.2716
10533TIP3    H153014   4.177   5.791  17.099  0.3904 -0.7138  0.7739
10533TIP3    H253015   4.227   5.653  17.061  0.3058 -0.0587 -1.8096
10534TIP3   OH253016   3.820   5.408  13.390 -0.3479 -0.8284 -0.0104
10534TIP3    H153017   3.826   5.391  13.484 -2.7119 -1.0516  0.1289
10534TIP3    H253018   3.888   5.474  13.373 -2.3173  2.0065  2.5557
10535TIP3   OH253019   5.946   0.734   1.352 -0.3105  0.2177 -0.2371
10535TIP3    H153020   5.980   0.666   1.293 -1.9332  0.2684 -1.2604
10535TIP3    H253021   5.851   0.727   1.345 -0.5158  1.6365  0.7839
10536TIP3   OH253022   6.497   5.077   2.924 -0.3101  0.4697 -0.0394
10536TIP3    H153023   6.582   5.079   2.879 -0.1608 -1.2263  0.1098
10536TIP3    H253024   6.515   5.033   3.007 -1.0289  1.5582  0.6946
10537TIP3   OH253025   6.564   2.230   2.806 -0.0275  0.1277 -0.1013
10537TIP3    H153026   6.537   2.244   2.897  0.6122  0.4951  0.0386
10537TIP3    H253027   6.567   2.134   2.796  2.8559  0.0417  1.1861
10538TIP3   OH253028   1.362   4.732  14.184  0.5487  0.5957 -0.2221
10538TIP3    H153029   1.361   4.766  14.273  0.5487 -1.2970  0.5139
10538TIP3    H253030   1.274   4.698  14.169  1.1690 -1.1516 -0.0997
10539TIP3   OH253031   5.364   3.904  17.217  0.6476  0.1812 -0.0179
10539TIP3    H153032   5.357   4.000  17.219  2.0783  0.3076 -0.5608
10539TIP3    H253033   5.383   3.879  17.307  0.6195  0.4278  0.0554
10540TIP3   OH253034   4.029   0.733  14.482 -0.0022 -0.4351  0.5781
10540TIP3    H153035   4.091   0.741  14.409  1.5205 -1.5157  1.7244
10540TIP3    H253036   3.988   0.647  14.470 -0.2887 -0.3035  0.6021
10541TIP3   OH253037   5.379   1.466   3.392 -0.3531 -0.3482 -0.6860
10541TIP3    H153038   5.467   1.503   3.398 -0.3107 -0.7432  1.6884
10541TIP3    H253039   5.393   1.372   3.381 -0.4384 -0.6615  1.6135
10542TIP3   OH253040   5.630   1.910   3.149  0.3326  0.2178 -0.3660
10542TIP3    H153041   5.716   1.925   3.187  0.7509 -2.9191  0.0879
10542TIP3    H253042   5.648   1.885   3.058  0.0053 -1.5062  0.0291
10543TIP3   OH253043   2.149   0.989   6.140 -0.8629 -0.3570  0.9202
10543TIP3    H153044   2.136   0.918   6.203 -1.4454 -0.5633  0.5716
10543TIP3    H253045   2.244   0.992   6.127 -0.7942 -0.7337  1.3254
10544TIP3   OH253046   6.009   4.467   0.437  0.9549 -0.4823  0.4593
10544TIP3    H153047   6.087   4.413   0.424  4.7024  4.0301  2.6234
10544TIP3    H253048   6.015   4.534   0.369 -1.3366 -0.3786  0.3373
10545TIP3   OH253049   6.648   3.464   5.254  1.1452  0.2503 -0.3136
10545TIP3    H153050   6.632   3.477   5.161  0.3883  0.3737 -0.1692
10545TIP3    H253051   6.665   3.370   5.263  0.0684  0.0448 -0.4098
10546TIP3   OH253052   1.213   2.582   3.793 -0.1649 -0.4827  0.6401
10546TIP3    H153053   1.303   2.578   3.763 -0.9655  0.1703 -2.0096
10546TIP3    H253054   1.205   2.668   3.835 -0.2578  0.6524 -1.6313
10547TIP3   OH253055   2.681   3.558  12.620  0.5105 -0.0069 -0.5696
10547TIP3    H153056   2.639   3.478  12.586 -0.5514 -0.4146  1.6166
10547TIP3    H253057   2.741   3.585  12.550  0.1127 -2.1256 -1.7770
10548TIP3   OH253058   6.545   2.947  12.858 -0.0570  0.0651 -0.0177
10548TIP3    H153059   6.484   2.877  12.836  0.5358 -0.6241  0.5175
10548TIP3    H253060   6.499   3.001  12.922 -1.4690  1.5979 -2.2617
10549TIP3   OH253061   1.641   2.453  12.079  0.3805 -0.5313 -0.2431
10549TIP3    H153062   1.578   2.464  12.007  0.9785 -1.0750 -0.8609
10549TIP3    H253063   1.664   2.360  12.076 -0.0077 -0.6629  1.0062
10550TIP3   OH253064   4.807   2.680  12.630 -0.3206  0.0049  0.3377
10550TIP3    H153065   4.881   2.625  12.608 -1.5210 -1.4471 -0.1690
10550TIP3    H253066   4.773   2.644  12.712 -1.0290  0.0739  0.0815
10551TIP3   OH253067   0.593   1.883  14.896  0.2462 -0.3528 -0.2880
10551TIP3    H153068   0.556   1.846  14.816  0.7382  0.0686 -0.7122
10551TIP3    H253069   0.687   1.873  14.885  0.2537 -1.8677  1.0020
10552TIP3   OH253070   4.626   5.596   4.386 -0.3975 -0.3970 -0.0593
10552TIP3    H153071   4.656   5.679   4.348  0.3247 -2.0446 -3.2128
10552TIP3    H253072   4.575   5.622   4.463 -0.6412  2.9946 -1.2920
10553TIP3   OH253073   3.671   0.457  14.726  0.1073 -0.0882 -0.7511
10553TIP3    H153074   3.661   0.400  14.803  2.2385  0.7858  0.2163
10553TIP3    H253075   3.707   0.400  14.658  1.3299 -0.1291 -0.0810
10554TIP3   OH253076   0.499   2.102  11.055 -0.4744 -0.0525  0.2536
10554TIP3    H153077   0.551   2.022  11.063  0.6414  0.6762  0.5118
10554TIP3    H253078   0.555   2.162  11.006 -2.1068 -0.0969 -1.7126
10555TIP3   OH253079   1.501   6.627  13.946  0.6026  0.0759 -0.1229
10555TIP3    H153080   1.414   6.587  13.937  0.7404 -0.5339  1.0846
10555TIP3    H253081   1.490   6.717  13.915 -0.8008  0.4162  1.3182
10556TIP3   OH253082   5.562   2.833  13.126 -0.2720 -0.1447 -0.1332
10556TIP3    H153083   5.636   2.825  13.065  0.5286  0.8054  0.6973
10556TIP3    H253084   5.504   2.896  13.083  1.0480  1.7552  0.7865
10557TIP3   OH253085   5.282   6.758   3.115  0.3219  0.0931 -0.3709
10557TIP3    H153086   5.350   6.722   3.172 -0.5402 -1.8320 -0.5111
10557TIP3    H253087   5.206   6.768   3.172 -0.1857 -0.7127 -0.8902
10558TIP3   OH253088   3.316   0.256  12.905  0.1610  0.2644  0.4077
10558TIP3    H153089   3.396   0.208  12.928  0.1625  0.1681  0.1977
10558TIP3    H253090   3.312   0.327  12.969 -0.3064 -0.5227  1.2712
10559TIP3   OH253091   5.276   3.801   3.216  0.3447  0.6453 -0.1938
10559TIP3    H153092   5.339   3.858   3.172  0.7930 -1.1194 -1.9092
10559TIP3    H253093   5.317   3.779   3.300  2.1063 -0.5996 -1.3450
10560TIP3   OH253094   0.923   4.597   1.330 -0.1948  0.5721 -0.1019
10560TIP3    H153095   0.873   4.531   1.282 -1.1413  2.3634 -1.6695
10560TIP3    H253096   0.960   4.550   1.405 -2.4698 -1.2785 -0.0846
10561TIP3   OH253097   4.298   6.405  12.756 -0.5398  0.0415  0.3318
10561TIP3    H153098   4.236   6.341  12.790  1.2909 -1.8525  0.1554
10561TIP3    H253099   4.338   6.444  12.833 -1.1021  0.4249  0.4312
10562TIP3   OH253100   2.337   3.479   1.568 -0.1511  0.0471 -0.2494
10562TIP3    H153101   2.340   3.566   1.608 -3.0616  0.6630 -1.2903
10562TIP3    H253102   2.355   3.495   1.475 -1.0399 -0.4271 -0.5040
10563TIP3   OH253103   2.380   0.194  14.222  0.1124 -0.7121 -0.3007
10563TIP3    H153104   2.457   0.208  14.168 -0.0479 -0.5435 -0.4851
10563TIP3    H253105   2.368   0.275  14.271 -0.6168 -0.3112 -1.1255
10564TIP3   OH253106   4.011   1.786   1.684 -0.0042  0.0098  0.2182
10564TIP3    H153107   4.057   1.758   1.763  1.1176 -0.7659 -0.6824
10564TIP3    H253108   3.950   1.715   1.665 -0.4328  0.2987  0.5081
10565TIP3   OH253109   2.930   4.246  16.256 -0.2950 -0.3008  0.1113
10565TIP3    H153110   2.936   4.164  16.305  0.8052 -0.1120  0.3169
10565TIP3    H253111   2.962   4.313  16.317  2.0082 -0.1918 -1.1448
10566TIP3   OH253112   6.017   4.798  15.684 -0.1325 -0.3140 -0.3078
10566TIP3    H153113   6.097   4.808  15.736 -0.4016 -0.1060  0.0727
10566TIP3    H253114   5.946   4.811  15.747 -0.4748  1.7526 -1.0497
10567TIP3   OH253115   5.810   0.350   0.852  0.0089  0.6872  0.1627
10567TIP3    H153116   5.892   0.340   0.899  1.4689  3.5615 -1.6004
10567TIP3    H253117   5.762   0.416   0.902 -0.0510  0.9993 -0.3068
10568TIP3   OH253118   3.528   1.183   4.275  0.2298 -0.7090  0.0457
10568TIP3    H153119   3.483   1.266   4.257  0.7990 -0.0452  1.6244
10568TIP3    H253120   3.525   1.136   4.191 -2.6976 -0.3529 -0.1217
10569TIP3   OH253121   3.710   1.617   4.120  0.4990  0.2006  0.0769
10569TIP3    H153122   3.675   1.529   4.106  0.1977  0.3744 -0.2562
10569TIP3    H253123   3.725   1.622   4.215  1.1439 -0.4445  0.0166
10570TIP3   OH253124   4.457   5.341   4.469  0.6387 -0.4204  0.2677
10570TIP3    H153125   4.434   5.422   4.422  1.1829 -0.9509 -0.9358
10570TIP3    H253126   4.547   5.323   4.443  0.7126 -1.1083  0.9906
10571TIP3   OH253127   2.064   6.775  14.885  0.2887 -0.1002  0.6161
10571TIP3    H153128   2.064   6.863  14.923  3.8102  0.0780  0.3719
10571TIP3    H253129   2.034   6.718  14.956  0.9300  0.9536  1.7426
10572TIP3   OH253130   4.802   4.229   2.440 -0.0293  0.3764 -0.3142
10572TIP3    H153131   4.800   4.243   2.534 -0.0782  0.1567 -0.2806
10572TIP3    H253132   4.760   4.306   2.403 -0.9227  0.0077 -0.0974
10573TIP3   OH253133   3.143   3.425   4.733 -0.3811 -0.2377 -0.0379
10573TIP3    H153134   3.124   3.363   4.663  1.0868  0.0662 -0.7348
10573TIP3    H253135   3.223   3.470   4.704 -0.7718  1.1650  0.9882
10574TIP3   OH253136   4.572   0.655  12.993  0.1531 -0.2653 -0.1952
10574TIP3    H153137   4.646   0.716  12.998 -0.1558  0.1237 -0.3199
10574TIP3    H253138   4.547   0.655  12.901  0.4518 -0.9462 -0.2785
10575TIP3   OH253139   3.543   6.031   5.573  0.0381 -0.1234 -0.3809
10575TIP3    H153140   3.613   6.009   5.511 -0.4215 -0.3577 -0.8294
10575TIP3    H253141   3.495   5.949   5.585  0.7822 -0.3476  1.1572
10576TIP3   OH253142   4.942   6.132  17.220 -0.0560 -0.2686 -0.1025
10576TIP3    H153143   4.896   6.178  17.290  0.4939  0.0175  0.0750
10576TIP3    H253144   4.877   6.070  17.185 -0.4369 -0.1724  0.4289
10577TIP3   OH253145   6.758   4.284  12.848  0.2740  0.4380  0.3516
10577TIP3    H153146   6.792   4.339  12.778  0.0017  3.3922  2.4463
10577TIP3    H253147   6.753   4.341  12.925  1.7870 -2.9803  3.1809
10578TIP3   OH253148   5.954   1.479   0.781  0.2837 -0.2329 -0.0576
10578TIP3    H153149   5.955   1.401   0.726  1.1568 -0.2280 -0.0559
10578TIP3    H253150   5.973   1.551   0.722  2.6132 -0.3837  0.4667
10579TIP3   OH253151   3.463   2.187   1.312  0.2176 -0.2612 -0.1523
10579TIP3    H153152   3.372   2.217   1.314  0.1556 -0.4622  0.1542
10579TIP3    H253153   3.458   2.095   1.285  0.4060  0.0051 -1.0807
10580TIP3   OH253154   3.729   0.648  15.803 -0.1133  0.4398 -0.0728
10580TIP3    H153155   3.759   0.736  15.823  2.5599 -0.6801  1.0566
10580TIP3    H253156   3.780   0.622  15.726  0.1653 -0.6280  0.4627
10581TIP3   OH253157   2.909   4.885   4.262 -0.4555  0.1259 -0.1908
10581TIP3    H153158   2.911   4.801   4.307 -0.5093 -0.5712 -1.4772
10581TIP3    H253159   2.944   4.867   4.175  0.1114  1.5572 -0.2845
10582TIP3   OH253160   1.668   5.261   2.304  0.0930  0.3274 -0.4774
10582TIP3    H153161   1.634   5.244   2.392  0.7892  1.4192  0.0156
10582TIP3    H253162   1.636   5.348   2.282  2.2752  1.2683 -0.1212
10583TIP3   OH253163   5.669   3.801  15.387 -0.2244 -0.0565 -0.0179
10583TIP3    H153164   5.760   3.828  15.377  0.0505 -0.6332  0.8364
10583TIP3    H253165   5.675   3.713  15.425 -1.1218 -0.5466 -0.9850
10584TIP3   OH253166   1.726   1.569   3.125 -0.6036  0.2648  0.0666
10584TIP3    H153167   1.662   1.542   3.191 -0.3182 -1.1782 -0.2293
10584TIP3    H253168   1.681   1.556   3.041 -0.9791  2.1236 -0.0406
10585TIP3   OH253169   3.914   1.340  11.968  0.5367  0.0291  0.1054
10585TIP3    H153170   3.857   1.376  11.899 -0.4962 -0.6268  0.6017
10585TIP3    H253171   3.854   1.296  12.028  1.5934 -0.8183  0.5571
10586TIP3   OH253172   3.715   2.952  16.615 -0.2087  0.0321 -0.2669
10586TIP3    H153173   3.634   2.923  16.657  0.5283 -0.2513  0.9804
10586TIP3    H253174   3.732   2.887  16.548 -0.4391 -0.5044  0.1958
10587TIP3   OH253175   6.707   0.984   4.215 -0.4693  0.3055  0.6425
10587TIP3    H153176   6.753   1.002   4.134  0.4022  0.0913  1.0900
10587TIP3    H253177   6.659   0.903   4.198 -0.7947  0.5986  0.1396
10588TIP3   OH253178   2.423   3.093   3.842  0.3431  0.2373 -0.1154
10588TIP3    H153179   2.498   3.091   3.902  0.6824  1.3904 -0.4950
10588TIP3    H253180   2.357   3.040   3.885  1.4236 -0.9143  0.1669
10589TIP3   OH253181   1.036   2.376   3.113  0.5252  0.1142  0.1392
10589TIP3    H153182   1.076   2.400   3.029 -0.1166  0.3153 -0.1147
10589TIP3    H253183   0.950   2.419   3.111  0.6295  0.3678  1.0285
10590TIP3   OH253184   4.255   0.235   2.130  0.1010  0.1449 -0.4012
10590TIP3    H153185   4.168   0.195   2.137  0.0564  0.2514 -0.3460
10590TIP3    H253186   4.316   0.161   2.141  0.0254  0.2366  0.6865
10591TIP3   OH253187   6.532   5.777   3.197 -0.2455 -0.0448 -0.1855
10591TIP3    H153188   6.513   5.846   3.260 -1.9528  0.7596 -1.5283
10591TIP3    H253189   6.474   5.705   3.221  1.2511 -0.8970  0.9704
10592TIP3   OH253190   5.424   2.380  14.607  0.7145  0.1603  0.4094
10592TIP3    H153191   5.358   2.323  14.648  0.0013  1.0065  0.4401
10592TIP3    H253192   5.425   2.459  14.661  0.6801  0.7633 -0.4674
10593TIP3   OH253193   2.707   0.920   0.054  0.6175 -0.5303 -0.0717
10593TIP3    H153194   2.705   0.835   0.010  0.7021 -0.2853 -0.5618
10593TIP3    H253195   2.728   0.982  -0.016  1.8670 -0.2665  0.5197
10594TIP3   OH253196   5.108   5.482  11.411 -0.0349  0.7064 -0.4399
10594TIP3    H153197   5.164   5.505  11.485  1.7014  2.1898 -2.1657
10594TIP3    H253198   5.151   5.405  11.373 -0.1569  0.7875 -0.7355
10595TIP3   OH253199   3.388   2.722  16.523 -0.1492  0.1120  0.3695
10595TIP3    H153200   3.357   2.632  16.525 -0.0614 -0.0908 -3.6300
10595TIP3    H253201   3.310   2.774  16.544 -0.8071 -0.7771  0.1819
10596TIP3   OH253202   0.372   4.537  13.844 -0.5906  0.1587  0.0682
10596TIP3    H153203   0.367   4.452  13.801 -0.2481  0.7484 -1.1355
10596TIP3    H253204   0.342   4.520  13.934  1.3134 -1.6292  0.3983
10597TIP3   OH253205   5.641   2.724  13.396 -0.4923 -0.0334 -0.0972
10597TIP3    H153206   5.637   2.753  13.305 -1.5235 -0.2950 -0.1525
10597TIP3    H253207   5.656   2.804  13.446 -0.2301  0.1569 -0.4815
10598TIP3   OH253208   2.604   6.164   0.273  0.8895  0.3130  0.6061
10598TIP3    H153209   2.510   6.176   0.264  0.9263 -1.1993 -2.5023
10598TIP3    H253210   2.614   6.094   0.338 -0.0446  1.3300  1.8741
10599TIP3   OH253211   4.961   6.292  14.890 -0.4306  0.2402  0.2443
10599TIP3    H153212   5.051   6.287  14.858 -0.4282  0.7526  0.1754
10599TIP3    H253213   4.943   6.203  14.921  1.2877  0.9324  3.4604
10600TIP3   OH253214   0.262   6.012  16.324  0.0564 -0.8019  0.8060
10600TIP3    H153215   0.296   6.100  16.342 -0.4456 -0.4123 -0.1186
10600TIP3    H253216   0.167   6.023  16.320  0.0679 -1.1277 -0.6480
10601TIP3   OH253217   3.077   0.506  14.836 -0.1092  0.2274  0.3310
10601TIP3    H153218   3.051   0.496  14.927  0.9314  0.3362  0.6478
10601TIP3    H253219   3.173   0.504  14.838 -0.0997 -0.8610 -0.8826
10602TIP3   OH253220   1.840   4.063  12.467 -0.0493 -0.5187  0.3221
10602TIP3    H153221   1.843   4.068  12.371  0.4556  3.2759  0.4608
10602TIP3    H253222   1.921   4.106  12.495  0.7475 -3.3019  2.4803
10603TIP3   OH253223   5.429   2.462  15.377 -0.2562 -0.5269 -0.3083
10603TIP3    H153224   5.442   2.525  15.305  1.9946 -0.4726  0.1158
10603TIP3    H253225   5.515   2.421  15.388 -0.6972 -0.8357  2.0871
10604TIP3   OH253226   3.379   4.789   5.727  0.0013  0.2122  0.1509
10604TIP3    H153227   3.370   4.881   5.705  0.5085  0.0200 -0.8508
10604TIP3    H253228   3.362   4.742   5.646  2.8974 -0.4512 -0.1321
10605TIP3   OH253229   3.195   4.629  15.723  0.7093  0.3338 -0.0443
10605TIP3    H153230   3.187   4.700  15.787 -0.5454 -1.1924  1.5661
10605TIP3    H253231   3.193   4.549  15.776 -2.7779 -1.0772 -2.1094
10606TIP3   OH253232   2.623   2.369   2.598  0.7897  0.4253 -0.1852
10606TIP3    H153233   2.626   2.442   2.660 -0.5107 -1.2108  1.8628
10606TIP3    H253234   2.662   2.296   2.646 -1.0500 -1.0959 -0.9513
10607TIP3   OH253235   2.136   4.450  14.654 -0.4315  0.0294  0.2818
10607TIP3    H153236   2.042   4.435  14.663 -0.6048  0.9600  0.0976
10607TIP3    H253237   2.176   4.398  14.723 -0.9813 -1.4073 -0.4559
10608TIP3   OH253238   6.324   5.065  13.131  0.5419  0.2406  0.2628
10608TIP3    H153239   6.275   5.142  13.160  0.9172  0.4957  0.2274
10608TIP3    H253240   6.416   5.090  13.144  0.6368 -0.6019  1.2681
10609TIP3   OH253241   2.748   1.604   4.240  0.1079  0.8070 -0.1580
10609TIP3    H153242   2.725   1.692   4.210 -3.3339  0.2233  0.5607
10609TIP3    H253243   2.767   1.614   4.333 -0.7710  0.7271  0.0336
10610TIP3   OH253244   5.406   0.932   2.759  0.1330 -0.5494 -0.2206
10610TIP3    H153245   5.313   0.946   2.776  0.1920 -0.3370 -0.0853
10610TIP3    H253246   5.450   1.000   2.809  0.2865  0.2529 -1.4340
10611TIP3   OH253247   1.994   5.950   0.760 -0.3334 -0.0701  0.1713
10611TIP3    H153248   1.974   6.022   0.820  2.5051  2.0596 -1.2981
10611TIP3    H253249   1.941   5.967   0.683  0.2884  0.4208 -0.1503
10612TIP3   OH253250   1.097   3.919   0.676  0.5787  0.4581 -0.2757
10612TIP3    H153251   1.007   3.945   0.653  0.9158  1.0985 -0.8824
10612TIP3    H253252   1.146   3.930   0.595  1.2644  0.3626  0.1284
10613TIP3   OH253253   1.275   0.618  12.754 -0.5428 -0.3721 -0.1145
10613TIP3    H153254   1.340   0.559  12.716 -0.0373  0.2043 -0.1469
10613TIP3    H253255   1.240   0.569  12.829 -0.0746 -0.6852 -0.0980
10614TIP3   OH253256   5.751   4.420   5.650  0.8294 -0.2204  0.6203
10614TIP3    H153257   5.695   4.456   5.719 -0.8260 -0.5820 -0.5195
10614TIP3    H253258   5.788   4.497   5.607 -1.5050  0.1463 -0.8311
10615TIP3   OH253259   0.087   0.016  12.069 -0.5144 -0.4138  0.5078
10615TIP3    H153260   0.081  -0.030  12.153  1.9696  0.5437  1.2549
10615TIP3    H253261   0.013   0.076  12.069 -1.0473 -1.0435  1.6281
10616TIP3   OH253262   2.078   3.101   5.901  0.1554  0.0258 -0.3165
10616TIP3    H153263   2.020   3.164   5.942 -1.4757 -2.5281  1.4095
10616TIP3    H253264   2.142   3.079   5.969  1.2810  0.4779 -1.2039
10617TIP3   OH253265   2.291   6.189  11.773  0.1205  0.6646  0.0563
10617TIP3    H153266   2.317   6.263  11.828 -0.7718  1.7348 -0.9374
10617TIP3    H253267   2.207   6.216  11.735  1.0346  0.1853 -2.3425
10618TIP3   OH253268   2.870   2.386   5.859 -0.1833  0.0689 -0.6061
10618TIP3    H153269   2.958   2.397   5.821  0.0984  2.8752  0.6960
10618TIP3    H253270   2.873   2.438   5.940 -3.3627  1.0543 -1.0702
10619TIP3   OH253271   0.419   1.162  16.025  0.2714 -0.1724  0.9203
10619TIP3    H153272   0.377   1.087  15.982 -0.5097 -0.0718  1.5114
10619TIP3    H253273   0.352   1.198  16.083  0.7319  0.8216  0.8504
10620TIP3   OH253274   0.975   1.762   6.106 -0.1702 -0.1726  0.2436
10620TIP3    H153275   1.037   1.692   6.126  0.4630  0.7305  1.5041
10620TIP3    H253276   1.017   1.841   6.138 -0.9912  0.7670 -0.9465
10621TIP3   OH253277   4.090   1.744  11.324  0.4164  0.0089  0.3053
10621TIP3    H153278   4.026   1.699  11.379 -0.1549 -1.9579 -1.8849
10621TIP3    H253279   4.174   1.722  11.362  0.0871 -2.2060 -0.1826
10622TIP3   OH253280   2.103   5.830   4.276  0.1469  0.4336  0.0069
10622TIP3    H153281   2.041   5.816   4.205  0.2272  1.0851 -0.2005
10622TIP3    H253282   2.135   5.743   4.298 -2.3886 -0.1454  1.5464
10623TIP3   OH253283   3.371   0.113  14.908 -0.6525 -0.1768  0.2900
10623TIP3    H153284   3.432   0.040  14.916 -0.6197  0.0534  2.3183
10623TIP3    H253285   3.300   0.091  14.969 -1.0390  1.0893  0.2957
10624TIP3   OH253286   2.104   6.198  11.543  0.4302 -0.0079  0.1418
10624TIP3    H153287   2.063   6.210  11.457 -0.5996 -2.7366  0.2257
10624TIP3    H253288   2.196   6.182  11.524  0.0275 -1.5944 -0.5412
10625TIP3   OH253289   1.088   3.159   1.963 -0.6463  0.0125 -0.1770
10625TIP3    H153290   1.093   3.246   2.003 -0.6383  0.4228 -1.0585
10625TIP3    H253291   1.007   3.122   1.998 -1.5449  1.0513 -1.1075
10626TIP3   OH253292   4.607   0.468  11.859  0.7834 -0.2913  0.3063
10626TIP3    H153293   4.628   0.432  11.773  2.0641 -1.7501  1.2064
10626TIP3    H253294   4.688   0.460  11.909  0.4626  1.8704  1.2162
10627TIP3   OH253295   1.449   3.994   2.026 -0.3260  0.1606  0.1659
10627TIP3    H153296   1.504   4.012   1.949  0.4029 -1.8662  0.1672
10627TIP3    H253297   1.374   3.946   1.991  0.7217 -2.0672  0.8486
10628TIP3   OH253298   1.657   0.596   2.440  0.2488  0.1764 -0.6618
10628TIP3    H153299   1.743   0.612   2.400  1.1147 -0.9368  0.6960
10628TIP3    H253300   1.664   0.507   2.476 -1.4983  0.0634 -0.5872
10629TIP3   OH253301   6.481   3.418  12.193 -0.4624  0.7473 -0.2794
10629TIP3    H153302   6.546   3.477  12.231  0.5863 -0.9628  0.6436
10629TIP3    H253303   6.526   3.378  12.119  0.2750 -1.8857  1.5042
10630TIP3   OH253304   0.240   2.135  15.897  0.3985  0.2529  0.8878
10630TIP3    H153305   0.152   2.100  15.910  0.3304  0.1305  0.0975
10630TIP3    H253306   0.268   2.161  15.985 -1.5481  2.9489  0.7760
10631TIP3   OH253307   0.991   4.587  16.048  0.0319  0.1202 -0.4682
10631TIP3    H153308   1.039   4.671  16.048  0.7139 -0.2611 -0.3243
10631TIP3    H253309   1.040   4.532  16.109 -0.6514 -0.2543 -0.2556
10632TIP3   OH253310   5.718   1.530  16.316  0.2647 -0.1701 -0.3550
10632TIP3    H153311   5.659   1.563  16.248  0.3756  1.8346  0.4815
10632TIP3    H253312   5.801   1.575  16.299  0.5291 -0.2851  0.6163
10633TIP3   OH253313   5.338   4.608  13.961  0.5776  0.0446 -0.1359
10633TIP3    H153314   5.298   4.538  13.909 -1.2296  0.4457  0.6844
10633TIP3    H253315   5.429   4.581  13.970  0.0975 -1.8307 -0.5098
10634TIP3   OH253316   4.928   0.269   0.071  0.0205  0.3197 -0.4267
10634TIP3    H153317   4.960   0.353   0.104  1.4841  0.8045 -2.8853
10634TIP3    H253318   4.991   0.246   0.002 -0.8920 -2.3461 -0.4048
10635TIP3   OH253319   6.584   0.039   5.236 -0.1725 -0.0956 -0.2185
10635TIP3    H153320   6.497   0.062   5.270 -0.2478 -0.6203 -0.0478
10635TIP3    H253321   6.640   0.112   5.262 -0.8798  1.0210 -1.6730
10636TIP3   OH253322   5.094   4.197  15.874  0.4271  0.1730 -0.3030
10636TIP3    H153323   5.078   4.284  15.912  1.3440  0.4764 -0.5934
10636TIP3    H253324   5.091   4.137  15.948  0.3038  0.5235 -0.0260
10637TIP3   OH253325   0.498   5.246  11.495 -0.3704  0.2098 -0.0104
10637TIP3    H153326   0.524   5.297  11.572 -0.8723  3.8350 -2.1231
10637TIP3    H253327   0.402   5.251  11.495 -0.4369 -0.9994 -0.0965
10638TIP3   OH253328   6.707   6.290  16.207  0.0446  0.4704  0.3990
10638TIP3    H153329   6.795   6.260  16.180 -0.0444  0.9922 -0.5042
10638TIP3    H253330   6.649   6.217  16.183 -0.0162  0.8847 -0.7315
10639TIP3   OH253331   5.945   5.240   1.875 -0.1353  0.2586  0.2923
10639TIP3    H153332   5.971   5.152   1.902  1.1853  0.2697 -0.8810
10639TIP3    H253333   5.934   5.233   1.780 -0.2008  1.3230  0.2156
10640TIP3   OH253334   2.826   1.861  11.749 -0.2264 -0.3956 -0.1687
10640TIP3    H153335   2.921   1.855  11.734 -0.3103 -0.6954 -0.5798
10640TIP3    H253336   2.817   1.928  11.816  0.2733 -0.2831 -0.2115
10641TIP3   OH253337   1.876   4.640   0.858  0.0982  0.2675  0.0303
10641TIP3    H153338   1.964   4.655   0.893  1.6058 -2.6570 -2.1959
10641TIP3    H253339   1.845   4.563   0.905 -0.1332 -0.3380 -1.0962
10642TIP3   OH253340   0.644   1.367  11.953 -0.3689 -0.6470 -0.2441
10642TIP3    H153341   0.585   1.296  11.976  0.3227 -0.8337  1.0104
10642TIP3    H253342   0.732   1.330  11.966  0.0002  0.1740 -0.3867
10643TIP3   OH253343   4.461   2.761   5.137  0.2147 -0.1678 -0.1614
10643TIP3    H153344   4.552   2.782   5.157  0.7996 -1.2788 -1.5781
10643TIP3    H253345   4.431   2.833   5.082 -0.3910  1.2119  1.9138
10644TIP3   OH253346   3.063   0.759  11.724 -0.1433  0.2701  0.3499
10644TIP3    H153347   2.979   0.801  11.707 -0.6344 -0.7110  0.3460
10644TIP3    H253348   3.096   0.736  11.637  0.2023  0.7828  0.3411
10645TIP3   OH253349   5.429   2.833   3.911 -0.7437  0.3465 -0.0298
10645TIP3    H153350   5.485   2.766   3.951 -0.3074  0.6714 -0.0882
10645TIP3    H253351   5.341   2.796   3.914 -0.3136 -0.8167 -1.3286
10646TIP3   OH253352   0.070   5.944  16.021 -1.1055 -0.1812 -0.1707
10646TIP3    H153353  -0.011   5.904  15.989 -1.5194  1.5987 -1.4851
10646TIP3    H253354   0.065   6.035  15.990  0.8355  0.2777  0.7740
10647TIP3   OH253355   1.348   6.519   2.701  0.1336  0.2968  0.6624
10647TIP3    H153356   1.284   6.590   2.692 -1.3586 -0.9269  1.3269
10647TIP3    H253357   1.358   6.508   2.796  0.0780 -0.6231  0.5614
10648TIP3   OH253358   4.956   3.575  17.233 -0.3834  0.0819  0.0446
10648TIP3    H153359   5.039   3.605  17.195  0.8630 -3.0476  0.1694
10648TIP3    H253360   4.901   3.555  17.157 -0.8546  1.6420 -0.0389
10649TIP3   OH253361   3.867   1.082  16.229  0.2628  0.2512  0.0283
10649TIP3    H153362   3.945   1.103  16.280 -0.7462  1.8533  0.9476
10649TIP3    H253363   3.795   1.086  16.291 -0.6389 -0.5968 -0.9385
10650TIP3   OH253364   2.496   2.315   4.244 -0.0710  0.3669 -0.6582
10650TIP3    H153365   2.478   2.235   4.294 -1.8303 -0.0419 -1.9022
10650TIP3    H253366   2.483   2.290   4.153  1.2744  1.5890 -1.1966
10651TIP3   OH253367   1.808   0.294   0.337 -0.0657  0.0280  0.2316
10651TIP3    H153368   1.786   0.291   0.244  0.1218  0.8601  0.1529
10651TIP3    H253369   1.814   0.202   0.364  0.5822 -0.2169 -0.7409
10652TIP3   OH253370   2.556   4.293  16.669  0.1601 -0.4811 -0.3071
10652TIP3    H153371   2.486   4.228  16.666  0.4639 -0.7826 -1.0622
10652TIP3    H253372   2.522   4.369  16.622  1.1056 -1.3964 -2.5009
10653TIP3   OH253373   2.501   6.620  16.888 -0.2764 -0.0578  0.4284
10653TIP3    H153374   2.472   6.679  16.958  3.9546  2.8028 -0.0159
10653TIP3    H253375   2.549   6.551  16.933 -1.7672 -0.9670  0.6544
10654TIP3   OH253376   1.737   1.819  16.739  0.2115 -0.4081  0.5076
10654TIP3    H153377   1.655   1.848  16.699  0.7901 -1.2561 -1.3569
10654TIP3    H253378   1.775   1.758  16.675  1.2806 -1.6516  2.2730
10655TIP3   OH253379   2.773   2.843  10.550 -0.1580 -0.2334 -0.0840
10655TIP3    H153380   2.817   2.904  10.609  0.9951  0.2113 -1.3693
10655TIP3    H253381   2.697   2.891  10.518  0.9284  0.6675 -1.3466
10656TIP3   OH253382   4.444   6.226   6.176  0.2270  0.3982 -0.1717
10656TIP3    H153383   4.369   6.285   6.183 -1.7135 -1.8631 -1.2445
10656TIP3    H253384   4.467   6.206   6.266 -1.3224  0.0546  0.1625
10657TIP3   OH253385   0.783   3.549   1.719 -0.4052 -0.0922  0.3029
10657TIP3    H153386   0.725   3.486   1.761 -0.4306 -0.0773  0.2904
10657TIP3    H253387   0.868   3.504   1.716 -0.2923  0.0844  0.7849
10658TIP3   OH253388   3.427   0.558   2.045  0.5009  0.2832 -0.8392
10658TIP3    H153389   3.477   0.582   2.123 -0.6682  1.4882 -0.4342
10658TIP3    H253390   3.357   0.624   2.040 -3.0615 -3.1827  0.5286
10659TIP3   OH253391   5.322   0.827  12.632  0.3778  0.2236 -0.0716
10659TIP3    H153392   5.370   0.744  12.621 -0.1270 -0.3521  1.8490
10659TIP3    H253393   5.279   0.841  12.548  0.5143 -1.4422 -0.4476
10660TIP3   OH253394   1.250   4.187  13.961 -0.3103  0.4277  0.8268
10660TIP3    H153395   1.312   4.215  14.028  0.5629 -0.3508  0.3598
10660TIP3    H253396   1.171   4.165  14.010  0.0680  0.5933  1.5278
10661TIP3   OH253397   3.609   2.336   4.820  0.1021 -0.0888  0.0947
10661TIP3    H153398   3.574   2.426   4.822  3.0659  1.1309  0.0443
10661TIP3    H253399   3.596   2.307   4.730 -0.1945  0.5931 -0.0887
10662TIP3   OH253400   4.630   3.336   3.086 -0.1048 -0.2822  0.9216
10662TIP3    H153401   4.582   3.407   3.044  1.4603 -0.0509 -0.5618
10662TIP3    H253402   4.565   3.267   3.099 -0.8009 -0.0760 -1.2753
10663TIP3   OH253403   5.180   0.589   5.090 -0.1843  0.0626  0.1419
10663TIP3    H153404   5.117   0.588   5.017 -0.1524  0.4212  0.1055
10663TIP3    H253405   5.228   0.671   5.078 -0.4528  0.3157  0.8031
10664TIP3   OH253406   0.869   3.226   0.751  0.1066 -0.5865  0.0027
10664TIP3    H153407   0.799   3.289   0.760  0.5281 -0.0951 -0.1433
10664TIP3    H253408   0.948   3.279   0.741  0.3328 -1.1335 -1.2053
10665TIP3   OH253409   3.876   4.842  16.706 -0.0382  0.0190 -0.1169
10665TIP3    H153410   3.788   4.867  16.679 -0.9997 -2.8985  0.0858
10665TIP3    H253411   3.934   4.880  16.640 -1.5160  1.2015 -0.7651
10666TIP3   OH253412   2.933   0.944   5.202 -0.1162 -0.8650 -0.0597
10666TIP3    H153413   2.986   0.887   5.258 -0.9165 -0.9502  0.6202
10666TIP3    H253414   2.945   1.032   5.238 -1.0002 -0.9861  0.5301
10667TIP3   OH253415   5.043   5.589  10.878 -0.5651 -0.1015  0.1802
10667TIP3    H153416   5.064   5.571  10.970 -0.3172  1.8644  0.5434
10667TIP3    H253417   5.126   5.616  10.839 -0.7791 -0.3890 -0.4770
10668TIP3   OH253418   2.529   5.102   2.546 -0.0494  0.0087 -0.0949
10668TIP3    H153419   2.572   5.186   2.529 -1.3642  0.4679 -1.3526
10668TIP3    H253420   2.506   5.069   2.459 -1.4937 -0.5961  0.4994
10669TIP3   OH253421   4.821   6.483   0.332 -0.6251 -0.1398 -0.0605
10669TIP3    H153422   4.847   6.571   0.305  2.5843 -0.7567  0.9094
10669TIP3    H253423   4.893   6.427   0.306 -0.5354 -1.8052  3.4614
10670TIP3   OH253424   2.964   5.864  14.408  0.5484 -0.0488  0.1985
10670TIP3    H153425   2.937   5.856  14.500  1.4139 -2.5385  0.2938
10670TIP3    H253426   2.965   5.958  14.391 -1.8346  0.3683  2.0596
10671TIP3   OH253427   2.211   2.042  13.600 -0.3852 -0.1047  0.5035
10671TIP3    H153428   2.249   2.122  13.636  0.4012 -0.0328 -0.4604
10671TIP3    H253429   2.285   1.982  13.592 -1.1036 -1.2211  1.9692
10672TIP3   OH253430   4.313   2.857  10.911  0.3654  0.0379 -0.9216
10672TIP3    H153431   4.381   2.877  10.974 -0.2036  1.9780 -0.8784
10672TIP3    H253432   4.336   2.909  10.834 -0.7165  0.2366 -1.1244
10673TIP3   OH253433   3.126   3.694   3.430  0.2563  0.7343 -0.4108
10673TIP3    H153434   3.085   3.634   3.492 -0.6160  1.2159 -0.5221
10673TIP3    H253435   3.121   3.649   3.345 -2.8238  2.0786 -0.9999
10674TIP3   OH253436   3.847   1.958  13.064 -0.4388 -0.6846 -0.4139
10674TIP3    H153437   3.758   1.989  13.081 -0.2267 -0.2843 -0.0395
10674TIP3    H253438   3.867   1.900  13.137 -1.2720 -2.6531 -1.7018
10675TIP3   OH253439   0.956   1.502   0.203 -0.1568 -0.1802 -0.3090
10675TIP3    H153440   0.970   1.570   0.137 -0.0574 -0.0909 -0.1975
10675TIP3    H253441   0.867   1.517   0.235  0.4362  0.8912  0.8472
10676TIP3   OH253442   3.992   3.746  15.060  0.2479 -0.1324  0.2660
10676TIP3    H153443   3.949   3.715  14.980  1.1611 -0.5146 -0.0864
10676TIP3    H253444   4.063   3.803  15.028 -0.6460  1.3541  0.8720
10677TIP3   OH253445   5.400   5.875   4.538  0.1808  0.1248 -0.7569
10677TIP3    H153446   5.442   5.859   4.622 -1.4277  0.4269  0.1358
10677TIP3    H253447   5.455   5.830   4.474  1.2659 -0.3416  0.4898
10678TIP3   OH253448   3.201   6.340   1.825  0.1840 -0.3875  0.7362
10678TIP3    H153449   3.244   6.354   1.909  0.4337  0.5595  0.4569
10678TIP3    H253450   3.264   6.370   1.760 -0.6998  0.5603  0.2965
10679TIP3   OH253451   1.959   3.312  11.897  0.0703 -0.1722  0.9688
10679TIP3    H153452   1.930   3.294  11.808 -0.2584  0.2670  0.9810
10679TIP3    H253453   2.050   3.284  11.900  0.4144  0.8369  0.1793
10680TIP3   OH253454   3.131   3.600  15.474 -0.7293  0.3848  0.0601
10680TIP3    H153455   3.102   3.574  15.387  1.6434 -0.2912 -0.5820
10680TIP3    H253456   3.140   3.518  15.522 -2.3198  0.7799  1.0581
10681TIP3   OH253457   3.997   5.977  11.497  0.5732 -0.2469 -0.0053
10681TIP3    H153458   4.000   5.907  11.562 -0.0633  0.6336  1.0037
10681TIP3    H253459   3.934   5.947  11.432 -0.5457 -0.1413  1.0079
10682TIP3   OH253460   6.355   3.583   0.223 -0.1057 -0.0819 -0.4704
10682TIP3    H153461   6.266   3.617   0.229 -0.7116 -1.6122 -0.5688
10682TIP3    H253462   6.408   3.659   0.200 -1.7100  0.3777 -2.8284
10683TIP3   OH253463   0.882   3.664   3.885  0.3201  0.3273  0.2079
10683TIP3    H153464   0.872   3.589   3.826  0.2153  1.2685 -0.9833
10683TIP3    H253465   0.974   3.661   3.911  0.3249 -0.1964  0.1340
10684TIP3   OH253466   0.451   0.180  17.033  0.0974  0.3005 -0.1736
10684TIP3    H153467   0.410   0.165  17.118 -0.8481  0.2823 -0.6276
10684TIP3    H253468   0.396   0.132  16.971 -2.7362  5.0109 -1.5945
10685TIP3   OH253469   4.492   4.036   0.747 -0.0606  0.4002  0.0691
10685TIP3    H153470   4.466   3.996   0.829  2.1947 -0.7643  0.2630
10685TIP3    H253471   4.573   4.083   0.768 -0.7337  2.0598 -0.9678
10686TIP3   OH253472   1.664   5.488   2.054  0.1703 -0.0280  0.2251
10686TIP3    H153473   1.628   5.568   2.015 -0.5790  0.5940  2.1445
10686TIP3    H253474   1.665   5.425   1.982  0.1355  1.4891 -1.1529
10687TIP3   OH253475   2.143   4.775   2.420 -0.0666  0.2796  0.1252
10687TIP3    H153476   2.216   4.783   2.480  0.2892  0.4326 -0.3242
10687TIP3    H253477   2.070   4.819   2.464  0.5423  1.5510 -0.1371
10688TIP3   OH253478   0.742   1.029  12.270 -0.0973  0.0287 -0.5692
10688TIP3    H153479   0.767   1.098  12.209  1.0537 -0.2904 -0.4667
10688TIP3    H253480   0.807   1.034  12.340 -0.4633 -0.6631 -0.1786
10689TIP3   OH253481   1.171   5.515   4.992 -0.3439  0.4396 -0.4441
10689TIP3    H153482   1.190   5.432   5.037 -1.5857  0.6584  0.5343
10689TIP3    H253483   1.253   5.563   4.993  0.9767 -1.6385 -2.9285
10690TIP3   OH253484   6.078   3.014   4.327 -0.7439 -0.5835 -0.3530
10690TIP3    H153485   6.021   3.091   4.322 -0.4792 -0.2310  1.4728
10690TIP3    H253486   6.125   3.014   4.244 -3.7351 -1.1744 -2.1215
10691TIP3   OH253487   6.765   5.989  13.897  0.2457 -0.0984  0.1323
10691TIP3    H153488   6.737   6.040  13.821 -0.1336 -0.1969  0.2011
10691TIP3    H253489   6.849   5.951  13.872 -0.5387 -1.2897 -0.7894
10692TIP3   OH253490   3.475   2.798  14.896 -0.1984 -0.0133  0.3032
10692TIP3    H153491   3.423   2.749  14.832  0.9156  0.5542 -1.0793
10692TIP3    H253492   3.493   2.881  14.853 -0.4967  0.8937  1.8907
10693TIP3   OH253493   4.871   2.024  11.310 -0.6676 -0.4115  0.5330
10693TIP3    H153494   4.936   1.984  11.252 -1.2742  0.3662 -0.6909
10693TIP3    H253495   4.811   2.070  11.252 -1.0191  0.7762  1.7934
10694TIP3   OH253496   4.229   4.651   0.082  0.0951  0.1111  0.3740
10694TIP3    H153497   4.247   4.613  -0.004  0.0759  0.3079  0.2824
10694TIP3    H253498   4.308   4.634   0.133  1.0632  2.1395 -0.4315
10695TIP3   OH253499   5.733   5.092  16.728  0.2079  0.0426 -0.1844
10695TIP3    H153500   5.693   5.005  16.719  0.3350 -0.1307  0.8207
10695TIP3    H253501   5.664   5.153  16.703 -0.0552 -0.3331 -0.3785
10696TIP3   OH253502   4.111   5.016   0.498 -0.0786 -0.2684 -0.1326
10696TIP3    H153503   4.191   5.003   0.549 -0.6201 -1.3452  0.4661
10696TIP3    H253504   4.070   5.093   0.536  0.9860  0.6504 -0.8436
10697TIP3   OH253505   3.888   6.628   5.462 -0.3664 -0.2669 -0.3609
10697TIP3    H153506   3.923   6.675   5.386 -1.0864  0.4402 -0.2634
10697TIP3    H253507   3.793   6.630   5.450 -0.4441 -0.8761  0.1344
10698TIP3   OH253508   2.855   1.700   3.497  0.0716 -0.3638  0.7638
10698TIP3    H153509   2.849   1.759   3.422 -1.6527 -1.1755  0.2257
10698TIP3    H253510   2.876   1.615   3.459  0.1618 -0.5837  1.3003
10699TIP3   OH253511   5.593   4.028  11.931  0.5639  0.3441  0.0276
10699TIP3    H153512   5.552   4.106  11.968  1.6592 -0.1885  2.4840
10699TIP3    H253513   5.687   4.046  11.934  0.7134 -0.0839 -1.6940
10700TIP3   OH253514   0.768   2.990  11.226 -0.0099  0.5071  0.2047
10700TIP3    H153515   0.862   2.984  11.208 -0.3341 -1.8857 -0.8245
10700TIP3    H253516   0.750   3.084  11.227  1.9582  0.9563 -1.9938
10701TIP3   OH253517   2.777   5.034  11.277  0.1349 -0.1403  0.3108
10701TIP3    H153518   2.714   5.054  11.207  0.2678 -1.4445 -0.2071
10701TIP3    H253519   2.791   4.939  11.269  0.6542 -0.1826  1.6910
10702TIP3   OH253520   0.057   2.166  13.550 -0.5122 -0.5019  0.5608
10702TIP3    H153521   0.116   2.194  13.620  0.0501 -0.6727  0.1623
10702TIP3    H253522  -0.027   2.155  13.593 -0.6474  1.3614  0.8136
10703TIP3   OH253523   5.680   4.988  11.343  0.1380 -0.1079 -0.0796
10703TIP3    H153524   5.598   5.008  11.299  0.5905  2.5946  0.2526
10703TIP3    H253525   5.727   5.071  11.347  2.2926 -1.3185  0.9925
10704TIP3   OH253526   5.226   2.241  12.828  0.0353 -0.5349  0.0777
10704TIP3    H153527   5.289   2.263  12.759 -0.0420 -0.0957  0.1461
10704TIP3    H253528   5.205   2.325  12.869 -1.5145 -0.5214 -0.7344
10705TIP3   OH253529   1.844   1.025   0.215  0.1565  0.1802  0.0168
10705TIP3    H153530   1.842   1.037   0.120 -0.2507 -1.1786 -0.1489
10705TIP3    H253531   1.757   1.052   0.245 -0.1518 -0.6305 -0.1467
10706TIP3   OH253532   6.407   1.463  11.268 -0.0313  0.0611  0.0594
10706TIP3    H153533   6.361   1.456  11.352  0.3482 -1.3499  0.1537
10706TIP3    H253534   6.340   1.445  11.203 -0.2495  0.8343  0.0581
10707TIP3   OH253535   1.997   2.017   5.749  0.2181  0.1057 -0.1118
10707TIP3    H153536   1.995   1.984   5.839 -1.3617  0.6407  0.0602
10707TIP3    H253537   2.088   2.005   5.721  0.4207 -1.2828  1.0941
10708TIP3   OH253538   0.986   1.785  13.986  0.5354 -0.0324 -0.3303
10708TIP3    H153539   1.035   1.737  13.920 -1.4352 -1.5078 -0.7614
10708TIP3    H253540   0.894   1.766  13.967 -0.0822 -1.5204  3.5767
10709TIP3   OH253541   2.008   2.448   3.357  0.1387  0.8286 -0.0204
10709TIP3    H153542   2.010   2.353   3.367  0.2363  0.7975 -0.3277
10709TIP3    H253543   2.030   2.463   3.265 -0.5665  1.1159 -0.1454
10710TIP3   OH253544   4.247   3.883   4.146  0.1096  0.0308  0.2245
10710TIP3    H153545   4.215   3.967   4.113  2.1984  1.3226  1.3473
10710TIP3    H253546   4.198   3.869   4.227 -1.1544 -0.4831 -0.6134
10711TIP3   OH253547   2.725   3.999  15.971  0.2762  0.6951 -0.6620
10711TIP3    H153548   2.679   4.045  16.041  0.7808  0.9819 -0.5216
10711TIP3    H253549   2.691   4.039  15.890  0.0628  0.7061 -0.5673
10712TIP3   OH253550   0.307   5.175   1.099  0.3094  0.0866  0.3389
10712TIP3    H153551   0.255   5.237   1.048 -1.1557 -1.2787  0.1269
10712TIP3    H253552   0.279   5.089   1.068  0.0273 -0.7549  2.8297
10713TIP3   OH253553   0.328   5.897   0.150  0.1403 -0.3041 -0.3436
10713TIP3    H153554   0.281   5.818   0.178 -1.0626  0.5435  0.0239
10713TIP3    H253555   0.261   5.965   0.145  1.2810  0.8563 -0.0876
10714TIP3   OH253556   5.556   6.280  15.871 -0.5681  0.1138 -0.3063
10714TIP3    H153557   5.508   6.200  15.853 -1.4264  0.8619 -1.4443
10714TIP3    H253558   5.615   6.290  15.795 -0.6020  0.6547 -0.2658
10715TIP3   OH253559   3.974   4.469  15.237 -0.3268 -0.3327  0.0767
10715TIP3    H153560   3.956   4.534  15.306  2.1415  1.6290 -1.0506
10715TIP3    H253561   4.063   4.440  15.254 -0.6023 -1.7498 -0.8122
10716TIP3   OH253562   6.783   4.246   3.001 -0.2576  0.0300  0.0872
10716TIP3    H153563   6.761   4.311   3.068 -0.3889 -1.7076  1.7526
10716TIP3    H253564   6.716   4.178   3.011  0.0282 -0.5000 -1.4853
10717TIP3   OH253565   6.253   2.119  16.475  0.7139  0.3836  0.1483
10717TIP3    H153566   6.321   2.057  16.452 -0.4609 -0.8774  0.0492
10717TIP3    H253567   6.202   2.131  16.395  1.2825  1.9571 -0.0123
10718TIP3   OH253568   2.114   3.946   5.869  0.0954 -0.0629 -0.5425
10718TIP3    H153569   2.042   3.886   5.884 -0.0062  0.2688  0.3206
10718TIP3    H253570   2.088   4.027   5.913  1.0458  0.0190 -0.1106
10719TIP3   OH253571   3.398   0.282   1.759 -0.4073  0.5610  0.0143
10719TIP3    H153572   3.400   0.376   1.779 -0.5347  0.3969  0.7896
10719TIP3    H253573   3.417   0.278   1.665  0.3904  1.3034  0.1419
10720TIP3   OH253574   5.289   4.974   3.108  0.2311 -0.2190 -0.5717
10720TIP3    H153575   5.225   5.021   3.053  0.0836 -0.9654 -1.0457
10720TIP3    H253576   5.361   5.036   3.118  0.5795 -0.3162 -2.2307
10721TIP3   OH253577   1.841   1.621   4.752  0.0542 -0.2760 -0.2013
10721TIP3    H153578   1.905   1.560   4.789  1.1526  2.2540  2.2536
10721TIP3    H253579   1.758   1.573   4.757  1.0259 -1.9289  0.8338
10722TIP3   OH253580   5.712   5.895   3.835  0.4165  0.6774  0.1674
10722TIP3    H153581   5.698   5.860   3.923  0.1540 -0.2525 -0.2387
10722TIP3    H253582   5.800   5.931   3.837  1.3763 -1.6041  0.0859
10723TIP3   OH253583   6.588   3.644   2.485 -0.2370  0.4842 -0.0958
10723TIP3    H153584   6.618   3.661   2.574  1.0200  0.0400 -0.4264
10723TIP3    H253585   6.664   3.605   2.441 -2.3459 -4.1360  0.0505
10724TIP3   OH253586   2.302   1.526   5.837  0.4186 -0.0492 -0.5496
10724TIP3    H153587   2.331   1.608   5.878  1.0337 -0.4804 -0.1045
10724TIP3    H253588   2.370   1.506   5.772  1.8933 -1.7644  1.4229
10725TIP3   OH253589   4.750   0.560  16.113  0.2169  0.3279  0.1779
10725TIP3    H153590   4.727   0.614  16.189  0.2620  0.3213  0.1963
10725TIP3    H253591   4.803   0.618  16.058  2.0831 -0.3198  1.2105
10726TIP3   OH253592   4.326   4.210  12.365  0.2861 -0.0276  0.4043
10726TIP3    H153593   4.256   4.152  12.335 -0.0710  0.1438  0.8846
10726TIP3    H253594   4.288   4.255  12.441  0.5794  0.7689  0.0837
10727TIP3   OH253595   3.369   4.694   3.139 -0.1911 -0.3323 -0.0972
10727TIP3    H153596   3.277   4.717   3.133  0.1664  1.5336  1.1399
10727TIP3    H253597   3.415   4.763   3.091  0.5025 -1.7006 -1.4201
10728TIP3   OH253598   3.360   6.727   1.213  0.1274  0.3405 -0.0577
10728TIP3    H153599   3.433   6.745   1.273 -0.7700  2.2264  0.5040
10728TIP3    H253600   3.294   6.686   1.269  0.2652 -0.2092 -0.2974
10729TIP3   OH253601   3.497   4.315   2.698 -0.4448 -0.5120 -0.5048
10729TIP3    H153602   3.593   4.313   2.698 -0.4073  0.9124 -0.8822
10729TIP3    H253603   3.471   4.230   2.732  0.9753 -0.2806  1.1904
10730TIP3   OH253604   4.274   0.565   2.034 -0.5384 -0.3061 -0.4658
10730TIP3    H153605   4.287   0.482   1.987 -0.1035 -0.5909  0.1582
10730TIP3    H253606   4.179   0.581   2.028 -0.7018 -1.1176 -0.1379
10731TIP3   OH253607   0.069   2.111  12.243  0.4882  0.8452  0.0555
10731TIP3    H153608   0.092   2.020  12.228  0.4896  0.6073  1.4311
10731TIP3    H253609   0.049   2.146  12.156  0.7280 -0.3950 -0.5003
10732TIP3   OH253610   5.908   4.685  11.152 -0.3385  0.2122 -0.1899
10732TIP3    H153611   5.985   4.742  11.154 -0.0606 -0.1802  0.3054
10732TIP3    H253612   5.919   4.634  11.071  0.4476 -0.5562  0.3802
10733TIP3   OH253613   2.218   5.438   3.639 -0.0748 -0.5698  0.1431
10733TIP3    H153614   2.171   5.415   3.719 -0.6763  0.6361  0.1449
10733TIP3    H253615   2.297   5.483   3.669 -0.8430  0.8666  0.0378
10734TIP3   OH253616   6.256   6.584   1.746  0.1590 -0.2609 -0.1694
10734TIP3    H153617   6.277   6.649   1.679 -1.8985  1.2610  0.6487
10734TIP3    H253618   6.278   6.500   1.705  1.5118  0.8218 -1.7289
10735TIP3   OH253619   0.335   2.009  13.681  0.0413  0.1232  0.1760
10735TIP3    H153620   0.292   1.942  13.735  0.3210 -1.3192 -1.3469
10735TIP3    H253621   0.292   2.091  13.706 -1.6631 -0.9020  0.6940
10736TIP3   OH253622   3.985   4.649   0.544  0.2182 -0.3642  0.2865
10736TIP3    H153623   3.995   4.663   0.638  0.3783 -0.7085  0.3187
10736TIP3    H253624   4.070   4.617   0.515  0.9355  2.0802 -0.4037
10737TIP3   OH253625   0.534   2.312   6.438  0.4339 -0.4479 -0.3455
10737TIP3    H153626   0.571   2.272   6.359 -0.9888 -0.4063 -1.0509
10737TIP3    H253627   0.521   2.238   6.497 -1.1704 -0.9288 -1.2430
10738TIP3   OH253628   6.787   1.214   2.881 -0.0124 -0.4832  0.6484
10738TIP3    H153629   6.766   1.236   2.972 -0.5212 -0.5179  0.5399
10738TIP3    H253630   6.741   1.132   2.866  0.2078 -0.5591  0.4126
10739TIP3   OH253631   6.399   0.302   5.514  0.9185  0.0215 -0.2082
10739TIP3    H153632   6.316   0.348   5.505  2.2366  2.1517 -1.9294
10739TIP3    H253633   6.381   0.213   5.483 -1.0119  0.0914  0.6628
10740TIP3   OH253634   5.979   0.770  12.308 -0.0263 -0.5393 -0.1006
10740TIP3    H153635   6.066   0.809  12.303 -0.2234 -0.1552 -0.6132
10740TIP3    H253636   5.951   0.761  12.217 -0.9811  0.4089  0.0845
10741TIP3   OH253637   6.308   5.418  11.583  0.9392  0.3352  0.0501
10741TIP3    H153638   6.402   5.437  11.594  0.8480  1.8952 -1.6655
10741TIP3    H253639   6.292   5.433  11.490 -1.1558  0.6282  0.4520
10742TIP3   OH253640   6.283   2.797   6.780 -0.4182 -0.5838  0.3942
10742TIP3    H153641   6.325   2.831   6.702 -1.6828 -2.7776 -1.3263
10742TIP3    H253642   6.328   2.714   6.798  0.6415  0.4633  2.7029
10743TIP3   OH253643   1.694   5.892   0.129 -0.4621 -0.3284  0.2167
10743TIP3    H153644   1.694   5.980   0.092 -0.9016  0.1564  1.3434
10743TIP3    H253645   1.778   5.885   0.174 -0.6486 -0.2937  0.5704
10744TIP3   OH253646   0.727   5.067   5.941  0.0726  0.0395  0.0229
10744TIP3    H153647   0.633   5.048   5.950 -0.5573  2.8673  0.0107
10744TIP3    H253648   0.744   5.061   5.847  0.4812 -2.7397  0.2187
10745TIP3   OH253649   5.696   2.779  12.404 -0.5650  0.2259 -0.3948
10745TIP3    H153650   5.691   2.698  12.352  0.5227 -0.8379  1.1490
10745TIP3    H253651   5.786   2.808  12.394  0.6345 -1.7862  3.5139
10746TIP3   OH253652   2.257   2.493   6.013 -0.1129  0.4984 -0.0042
10746TIP3    H153653   2.315   2.556   6.054 -1.3908  1.4859  0.3014
10746TIP3    H253654   2.262   2.415   6.069  1.5164  0.2815 -0.4283
10747TIP3   OH253655   4.031   4.664   1.603 -0.1921 -0.6111 -0.6073
10747TIP3    H153656   4.037   4.754   1.571  0.6317 -0.5445 -0.2682
10747TIP3    H253657   4.035   4.610   1.524  0.1236 -0.3789 -0.7531
10748TIP3   OH253658   3.823   0.002   2.926 -0.0591 -0.0603  0.0544
10748TIP3    H153659   3.859   0.079   2.970  0.0408  1.3498 -2.4076
10748TIP3    H253660   3.731   0.024   2.910  0.1335 -0.1227 -1.2522
10749TIP3   OH253661   0.682   0.839   0.519 -0.2931  0.3613  0.3111
10749TIP3    H153662   0.744   0.826   0.447  1.0271  1.1457  1.2755
10749TIP3    H253663   0.667   0.751   0.553 -0.2652  0.0795 -0.3884
10750TIP3   OH253664   0.418   4.354  13.426  0.1760  0.1768 -0.0925
10750TIP3    H153665   0.325   4.332  13.427  0.1248  0.4194  0.6031
10750TIP3    H253666   0.431   4.396  13.341  0.0872 -1.6756 -1.0409
10751TIP3   OH253667   0.474   2.665   2.995  0.4972  0.0088 -0.2057
10751TIP3    H153668   0.469   2.641   2.903  0.1272  1.5509 -0.5890
10751TIP3    H253669   0.384   2.655   3.028  0.7626 -1.2568  0.1914
10752TIP3   OH253670   4.939   3.712  12.489 -0.3934 -0.4285 -0.1891
10752TIP3    H153671   4.987   3.651  12.545  0.4261  0.3200 -0.0735
10752TIP3    H253672   5.005   3.743  12.426 -0.9896 -0.2363 -0.7201
10753TIP3   OH253673   4.393   5.159   2.901 -0.0215 -0.0222 -0.4947
10753TIP3    H153674   4.355   5.221   2.964 -0.1783  1.9042 -2.4306
10753TIP3    H253675   4.487   5.164   2.918  0.0131  1.1386 -0.9671
10754TIP3   OH253676   2.274   5.975   4.040  0.3546 -0.1367  0.1685
10754TIP3    H153677   2.307   6.054   4.082  1.0447 -0.5381  0.3842
10754TIP3    H253678   2.207   5.942   4.100 -0.0791  0.3942 -0.0220
10755TIP3   OH253679   3.122   2.825   5.230  0.4559 -0.7811 -0.0512
10755TIP3    H153680   3.211   2.804   5.258  0.5103  0.1526  0.5150
10755TIP3    H253681   3.083   2.869   5.306 -0.0187  0.1029 -0.7894
10756TIP3   OH253682   4.980   5.664  11.991 -0.0148 -0.0330 -0.6487
10756TIP3    H153683   5.038   5.739  12.007  0.0925 -0.5705  1.5510
10756TIP3    H253684   5.039   5.589  11.988 -0.5717 -0.5966  1.6950
10757TIP3   OH253685   3.394   6.452   3.028 -0.0028 -0.1291 -0.3235
10757TIP3    H153686   3.360   6.448   2.939  0.4485 -0.9007 -0.4575
10757TIP3    H253687   3.485   6.482   3.019  0.1715 -0.6098 -0.1484
10758TIP3   OH253688   3.502   1.818   4.544  0.0148 -0.3653 -0.1426
10758TIP3    H153689   3.594   1.836   4.526 -0.1686  0.7914  0.0497
10758TIP3    H253690   3.478   1.882   4.611 -0.7658 -1.0631  0.2563
10759TIP3   OH253691   2.235   1.942   1.687  0.0563  0.1466  0.2608
10759TIP3    H153692   2.249   2.005   1.758 -0.3003  0.5841 -0.0501
10759TIP3    H253693   2.152   1.899   1.710 -0.5700  0.9809 -0.3838
10760TIP3   OH253694   4.095   1.902   3.887 -0.0467  0.4348 -0.5346
10760TIP3    H153695   4.016   1.851   3.901 -1.4765  2.8877  0.6897
10760TIP3    H253696   4.082   1.944   3.802 -0.3573  1.3507 -0.0374
10761TIP3   OH253697   5.513   4.754   5.351  0.0496  0.1307  0.0465
10761TIP3    H153698   5.454   4.751   5.276  0.5134  1.3907 -0.3861
10761TIP3    H253699   5.564   4.834   5.338  0.1372  0.3600  1.6987
10762TIP3   OH253700   2.233   0.248   1.048  0.1575  0.9252  0.4436
10762TIP3    H153701   2.249   0.199   0.967 -0.1368  2.5127 -0.6065
10762TIP3    H253702   2.252   0.186   1.118  4.0913  0.5857 -0.7740
10763TIP3   OH253703   3.444   4.585   2.777  0.0810 -0.3139  0.3739
10763TIP3    H153704   3.525   4.581   2.828  0.1112 -0.9805  0.2772
10763TIP3    H253705   3.430   4.495   2.748 -1.5418 -0.5110  1.7120
10764TIP3   OH253706   1.321   5.005  14.711 -0.4116 -0.1303 -0.1216
10764TIP3    H153707   1.348   4.974  14.798 -0.2014  1.2872  0.3414
10764TIP3    H253708   1.380   5.078  14.693  1.6394 -2.3430 -2.8489
10765TIP3   OH253709   5.653   0.493   3.550  0.3168  0.5065 -0.0937
10765TIP3    H153710   5.716   0.553   3.510  1.2270 -2.4941 -3.3526
10765TIP3    H253711   5.587   0.479   3.483 -0.8685 -0.6780  1.2906
10766TIP3   OH253712   2.384   2.421   5.562  0.3615 -0.2080 -0.0640
10766TIP3    H153713   2.424   2.345   5.521  1.1834  0.7072 -0.9959
10766TIP3    H253714   2.376   2.485   5.491 -2.3390 -0.1951  0.1865
10767TIP3   OH253715   2.461   5.232   5.270  0.1477 -0.1363  0.2856
10767TIP3    H153716   2.387   5.239   5.331 -0.8210 -1.0613 -0.7715
10767TIP3    H253717   2.485   5.323   5.251 -0.8645  0.1777  0.4574
10768TIP3   OH253718   0.410   6.187  14.467 -0.7623  0.5860  0.0726
10768TIP3    H153719   0.329   6.135  14.476  0.5724 -1.8613 -1.3964
10768TIP3    H253720   0.461   6.165  14.544  0.4776 -1.6037 -1.3235
10769TIP3   OH253721   3.922   1.217  12.584 -0.4788 -0.0325 -0.0329
10769TIP3    H153722   3.986   1.220  12.513 -0.1269  0.4391  0.3038
10769TIP3    H253723   3.885   1.305  12.587 -1.7848 -0.5398 -0.8017
10770TIP3   OH253724   1.600   2.865   4.195  0.5671  0.0720 -0.2405
10770TIP3    H153725   1.524   2.922   4.209 -0.3358 -0.7782 -1.4709
10770TIP3    H253726   1.595   2.801   4.266  0.6508  0.5435  0.1968
10771TIP3   OH253727   1.322   0.339   1.810 -0.0930 -0.5532  0.1014
10771TIP3    H153728   1.255   0.387   1.860  0.2922 -0.6771  0.7417
10771TIP3    H253729   1.369   0.288   1.876 -1.1395 -2.6115 -0.6754
10772TIP3   OH253730   0.838   2.087   5.770  0.4386 -0.3715 -0.5068
10772TIP3    H153731   0.919   2.057   5.812  0.0814 -0.7007 -0.0511
10772TIP3    H253732   0.818   2.020   5.705  0.1143 -0.6750 -0.0914
10773TIP3   OH253733   6.527   3.364   0.658 -0.5526  0.4410  0.1104
10773TIP3    H153734   6.488   3.431   0.713  0.8035  0.8646  0.5858
10773TIP3    H253735   6.503   3.388   0.569  1.5035  2.6403  0.1149
10774TIP3   OH253736   5.992   0.091  15.111 -0.4062  0.3682  0.1629
10774TIP3    H153737   5.969   0.116  15.201 -1.5893  1.8832 -0.5420
10774TIP3    H253738   6.028   0.170  15.072 -1.7174  0.2654 -1.3003
10775TIP3   OH253739   5.847   4.052  17.218 -0.3842  0.5457  0.2406
10775TIP3    H153740   5.873   4.114  17.149  1.4791  0.4301  0.8081
10775TIP3    H253741   5.824   4.107  17.292  0.1356  0.6176  0.3556
10776TIP3   OH253742   2.265   2.420   1.583  0.5171  0.1959  0.0816
10776TIP3    H153743   2.351   2.430   1.543  1.3157 -0.9982  1.4811
10776TIP3    H253744   2.243   2.328   1.572  0.3786  0.0341  1.6686
10777TIP3   OH253745   0.189   2.013   3.337  0.4000  0.6890  0.2285
10777TIP3    H153746   0.260   1.996   3.399 -0.2776 -0.7672  0.6196
10777TIP3    H253747   0.199   2.106   3.315  3.1653  0.2204 -0.6579
10778TIP3   OH253748   3.894   1.001   4.731 -0.4504  0.2500  0.4341
10778TIP3    H153749   3.924   1.069   4.791  1.1888 -0.0791  0.0018
10778TIP3    H253750   3.802   0.987   4.754 -0.4276  1.6582  1.4112
10779TIP3   OH253751   6.382   3.186  12.568  0.2979  0.7188 -0.0605
10779TIP3    H153752   6.374   3.146  12.482  1.4566  1.4082 -0.4949
10779TIP3    H253753   6.474   3.209  12.576  1.0237 -2.7475  2.9226
10780TIP3   OH253754   2.188   0.589   4.676  0.3063 -0.2276 -0.5616
10780TIP3    H153755   2.167   0.503   4.639  1.2955 -0.5851 -0.3079
10780TIP3    H253756   2.113   0.644   4.653 -0.6163 -1.3160 -0.1922
10781TIP3   OH253757   5.518   0.462   3.303  0.3037  0.9159  0.3377
10781TIP3    H153758   5.590   0.405   3.276 -0.1785  0.6693 -0.4568
10781TIP3    H253759   5.454   0.456   3.232  0.2935  2.5435  0.1738
10782TIP3   OH253760   5.278   5.889   0.469  0.0691 -0.1174 -0.5806
10782TIP3    H153761   5.312   5.823   0.530 -0.7369 -0.8069 -0.8712
10782TIP3    H253762   5.247   5.839   0.395 -0.7027  0.5904 -0.7369
10783TIP3   OH253763   2.206   5.738  13.092 -0.0105  0.4356  0.5344
10783TIP3    H153764   2.224   5.685  13.170 -1.0383  1.4079  1.4581
10783TIP3    H253765   2.133   5.794  13.119 -1.6101 -0.5014 -1.7155
10784TIP3   OH253766   6.705   5.829  13.654 -0.2026  0.3036  0.1539
10784TIP3    H153767   6.683   5.813  13.746  0.5813 -0.0526  0.2800
10784TIP3    H253768   6.800   5.842  13.653 -0.4366  2.1109 -0.3609
10785TIP3   OH253769   0.619   6.452   5.404 -0.1954  0.7700  1.0810
10785TIP3    H153770   0.636   6.497   5.486  0.3725  0.2823  1.2332
10785TIP3    H253771   0.580   6.368   5.431 -1.0434  1.0696  0.8094
10786TIP3   OH253772   5.905   5.724  10.736 -0.3694 -0.5598  0.3908
10786TIP3    H153773   5.822   5.684  10.708 -0.0005 -1.8198  1.0396
10786TIP3    H253774   5.916   5.799  10.678 -2.1326 -0.1879  0.5125
10787TIP3   OH253775   5.862   2.683  14.445 -0.3142 -0.0593  0.3509
10787TIP3    H153776   5.920   2.720  14.379 -0.1199  0.3728  0.7599
10787TIP3    H253777   5.908   2.605  14.476  0.2417  0.4973  0.9534
10788TIP3   OH253778   0.805   5.382  15.178  0.1197  0.0706  0.0821
10788TIP3    H153779   0.882   5.370  15.234 -1.0153  0.6520  1.7892
10788TIP3    H253780   0.842   5.390  15.090  1.8751 -1.7404  0.5989
10789TIP3   OH253781   2.733   3.403  14.154  1.1002  0.2511  0.8767
10789TIP3    H153782   2.772   3.390  14.241 -0.9604  4.4617  2.5940
10789TIP3    H253783   2.801   3.449  14.104  2.4740 -2.6125 -0.0004
10790TIP3   OH253784   2.548   2.003  12.376 -0.1491 -0.4308 -0.4094
10790TIP3    H153785   2.561   2.023  12.284 -1.6462  1.5730 -0.2203
10790TIP3    H253786   2.548   2.088  12.420 -1.1007 -1.2264  1.2065
10791TIP3   OH253787   0.132   2.136   3.642 -0.0760  0.0970 -0.6290
10791TIP3    H153788   0.088   2.141   3.557 -1.2309 -0.0098 -0.0387
10791TIP3    H253789   0.225   2.127   3.619 -0.3179  0.5436 -1.8770
10792TIP3   OH253790   1.040   3.294  15.297  0.3341  0.1111 -0.0717
10792TIP3    H153791   1.078   3.231  15.359  1.4543  0.7942 -0.0604
10792TIP3    H253792   0.951   3.260  15.280 -0.4225  0.5541  2.8041
10793TIP3   OH253793   3.575   1.383   4.063 -0.1458 -0.3523 -0.4247
10793TIP3    H153794   3.507   1.406   3.999 -1.7510 -2.8459  0.2894
10793TIP3    H253795   3.582   1.288   4.056  0.3299 -0.5594  2.4574
10794TIP3   OH253796   1.174   0.960   2.556  0.1781 -0.1018  0.0354
10794TIP3    H153797   1.195   0.969   2.463 -0.6052 -1.8374 -0.3237
10794TIP3    H253798   1.222   0.883   2.585 -1.0481 -0.6663  0.6151
10795TIP3   OH253799   0.425   3.735  16.800 -0.2326  0.0699  0.6025
10795TIP3    H153800   0.432   3.711  16.707 -0.7053  0.0537  0.5656
10795TIP3    H253801   0.344   3.692  16.829  0.3080 -0.5573  1.2171
10796TIP3   OH253802   1.544   4.131  10.715  0.2560  0.5409  0.7585
10796TIP3    H153803   1.461   4.114  10.759 -0.0067 -1.7390 -0.5332
10796TIP3    H253804   1.607   4.142  10.787 -1.4791  4.5478  1.8058
10797TIP3   OH253805   3.635   0.043   1.256  0.2191  0.0877  0.1104
10797TIP3    H153806   3.711   0.053   1.198 -0.2175  0.9382 -0.3179
10797TIP3    H253807   3.597   0.131   1.261 -1.5437 -0.6056 -0.7921
10798TIP3   OH253808   3.544   0.717   3.007  0.1480 -0.3180  0.2385
10798TIP3    H153809   3.469   0.772   3.029  1.5496  0.3548  3.6471
10798TIP3    H253810   3.513   0.627   3.020 -0.0718 -0.0361  1.7751
10799TIP3   OH253811   3.217   5.214  15.567 -0.1675 -0.5247  0.3749
10799TIP3    H153812   3.251   5.130  15.535  0.6572 -0.3595  0.8070
10799TIP3    H253813   3.288   5.276  15.552 -1.5108  0.5651 -1.9121
10800TIP3   OH253814   6.305   0.607   6.281  0.0024 -0.2075  0.3880
10800TIP3    H153815   6.298   0.700   6.260  1.7522 -0.1908 -0.1866
10800TIP3    H253816   6.382   0.602   6.339  0.0032 -1.3181  0.2895
10801TIP3   OH253817   0.737   3.822   4.551  0.4233  0.2622 -0.3088
10801TIP3    H153818   0.794   3.899   4.561 -1.6047  1.8832 -1.0703
10801TIP3    H253819   0.657   3.856   4.512 -1.3954 -1.8503  1.4575
10802TIP3   OH253820   4.894   1.088   5.945 -0.0574  0.1203 -0.7353
10802TIP3    H153821   4.918   0.999   5.971  0.2368  0.4026 -0.0457
10802TIP3    H253822   4.842   1.121   6.017  0.9380  0.9824 -0.3966
10803TIP3   OH253823   3.910   4.455   4.362  0.1893 -0.2058  0.0540
10803TIP3    H153824   3.997   4.469   4.401  0.0363  0.1130  0.2785
10803TIP3    H253825   3.929   4.438   4.270  0.4401  0.7178 -0.0778
10804TIP3   OH253826   2.556   3.164  13.247 -0.7319  0.1216 -0.5561
10804TIP3    H153827   2.474   3.126  13.278 -0.0032  0.4310  1.8558
10804TIP3    H253828   2.550   3.257  13.269 -1.4024  0.9483 -4.0309
10805TIP3   OH253829   4.815   4.765  14.467  0.3750 -0.0515 -0.4772
10805TIP3    H153830   4.889   4.758  14.527  0.3631  0.4796 -0.4023
10805TIP3    H253831   4.830   4.695  14.402  0.7277 -0.2025 -0.2333
10806TIP3   OH253832   6.670   1.715   2.761  0.6979  0.4958 -0.1517
10806TIP3    H153833   6.748   1.719   2.706  0.6589  0.7631 -0.1873
10806TIP3    H253834   6.647   1.622   2.764  0.2458  0.5661 -1.2258
10807TIP3   OH253835   4.278   4.831   2.311  0.0338 -0.2829  0.2595
10807TIP3    H153836   4.289   4.783   2.393 -2.1282 -0.8102  0.2901
10807TIP3    H253837   4.259   4.921   2.338 -1.1705 -0.5584  0.3853
10808TIP3   OH253838   3.992   5.475  11.733  0.0868  0.0263  0.1746
10808TIP3    H153839   3.972   5.481  11.826  0.9068  1.1594  0.2909
10808TIP3    H253840   4.079   5.437  11.729  0.1406  0.1769 -0.1202
10809TIP3   OH253841   5.405   6.754  16.032  0.1256  0.0790  0.2951
10809TIP3    H153842   5.354   6.746  15.952 -0.9926  1.6732  0.8232
10809TIP3    H253843   5.363   6.694  16.094 -0.5003  0.6525  0.4260
10810TIP3   OH253844   1.614   3.235   3.078 -0.1803 -0.2688  0.1853
10810TIP3    H153845   1.694   3.214   3.030 -0.1320 -1.4623  0.7711
10810TIP3    H253846   1.620   3.185   3.159 -1.9949 -1.2080 -0.2239
10811TIP3   OH253847   2.273   4.970   4.030 -0.0500 -0.0680 -0.3911
10811TIP3    H153848   2.315   4.884   4.028 -1.3816 -0.7684  0.3945
10811TIP3    H253849   2.187   4.953   4.069 -0.7226  1.4572 -1.1624
10812TIP3   OH253850   3.395   4.791   4.236  0.0715  0.3715 -0.1242
10812TIP3    H153851   3.432   4.864   4.285 -1.5022  0.4413  1.0111
10812TIP3    H253852   3.379   4.723   4.302 -1.2791  0.1359 -0.6711
10813TIP3   OH253853   3.599   3.673  12.275  0.0603  0.1176  0.4640
10813TIP3    H153854   3.692   3.686  12.293  0.0995  0.8084 -0.2011
10813TIP3    H253855   3.575   3.747  12.220 -0.7658 -0.3352  0.2075
10814TIP3   OH253856   5.241   6.248   1.711  0.4304  0.0747  0.1249
10814TIP3    H153857   5.251   6.343   1.719 -2.3375  0.3685  0.6962
10814TIP3    H253858   5.261   6.230   1.619 -0.7502  1.4924 -0.4362
10815TIP3   OH253859   1.602   5.800  15.770 -0.2717 -0.6642  0.1728
10815TIP3    H153860   1.577   5.867  15.834 -0.8820 -0.7224 -0.0022
10815TIP3    H253861   1.664   5.844  15.712 -1.0698 -0.1025 -0.2548
10816TIP3   OH253862   0.758   4.268   0.470  0.6470  0.3696 -0.1194
10816TIP3    H153863   0.718   4.191   0.431  0.5453  1.6351 -2.6096
10816TIP3    H253864   0.713   4.342   0.428  2.3296  1.7815  0.5150
10817TIP3   OH253865   2.402   0.126  16.358  0.1924 -0.0769 -0.1927
10817TIP3    H153866   2.474   0.184  16.333 -0.3086  0.0473 -1.3864
10817TIP3    H253867   2.350   0.116  16.278 -1.4333  0.2769  0.8040
10818TIP3   OH253868   0.001   2.753   0.968 -0.4633 -0.0499 -0.3419
10818TIP3    H153869  -0.074   2.705   0.932 -0.2150  0.5511 -1.6984
10818TIP3    H253870  -0.029   2.783   1.053 -1.3746 -0.7773 -0.3921
10819TIP3   OH253871   2.638   5.578   1.245  0.2449 -0.0229  0.4592
10819TIP3    H153872   2.550   5.541   1.249  0.9545 -1.8285 -0.2858
10819TIP3    H253873   2.687   5.531   1.312  0.7603  0.7018  0.5945
10820TIP3   OH253874   1.703   0.731   4.900  0.2518 -0.0217  0.1554
10820TIP3    H153875   1.772   0.795   4.909 -0.1825  0.9469 -2.8459
10820TIP3    H253876   1.628   0.769   4.948  0.3686  1.1355 -0.5687
10821TIP3   OH253877   4.384   3.357  15.894  0.3273  0.1636 -0.1321
10821TIP3    H153878   4.412   3.293  15.959  0.6861  2.5905  2.2186
10821TIP3    H253879   4.290   3.370  15.911  0.0477 -0.3863 -1.1980
10822TIP3   OH253880   3.351   4.457   6.804  0.3811  0.5538  0.1414
10822TIP3    H153881   3.445   4.469   6.822  0.0542  1.5598  1.2539
10822TIP3    H253882   3.347   4.380   6.747  1.9856  1.2418 -0.9393
10823TIP3   OH253883   2.921   1.960   3.387  0.1689  0.1578  0.6482
10823TIP3    H153884   2.940   1.940   3.478  0.9817  1.2157  0.7112
10823TIP3    H253885   3.004   1.945   3.341  0.3431  1.6837  0.4299
10824TIP3   OH253886   6.292   4.494  12.224  0.0567  0.3360  0.3974
10824TIP3    H153887   6.214   4.491  12.169  1.1923  0.3936 -1.2713
10824TIP3    H253888   6.280   4.424  12.287 -1.3849  0.4015  0.2152
10825TIP3   OH253889   4.802   1.296   3.455  0.4415  0.1704  0.3290
10825TIP3    H153890   4.866   1.294   3.384 -0.3378  0.8163 -0.3911
10825TIP3    H253891   4.753   1.214   3.445 -3.2936  2.6225 -3.2664
10826TIP3   OH253892   6.671   2.694  14.577  0.3039 -0.2400  0.4297
10826TIP3    H153893   6.707   2.757  14.639 -0.7589  0.9292 -0.1086
10826TIP3    H253894   6.724   2.705  14.498 -0.9973  1.2654 -0.2613
10827TIP3   OH253895   5.551   1.155  15.082  0.0810  0.4520  0.2847
10827TIP3    H153896   5.487   1.225  15.074  1.0386  1.2045 -1.0760
10827TIP3    H253897   5.533   1.098  15.007 -0.6159 -0.7026  1.3186
10828TIP3   OH253898   2.603   4.382  13.997  0.1345 -0.4710  1.2683
10828TIP3    H153899   2.521   4.364  13.952  0.6625  0.0413  0.0826
10828TIP3    H253900   2.578   4.429  14.076 -0.6166  0.9689  0.1997
10829TIP3   OH253901   6.563   0.739  14.316 -0.6186  0.3442 -0.0819
10829TIP3    H153902   6.503   0.664  14.312  0.7800 -0.7851  0.1210
10829TIP3    H253903   6.525   0.802  14.254 -0.6162 -1.3836 -1.8864
10830TIP3   OH253904   0.178   4.055   3.666 -0.0720  0.3023 -0.1296
10830TIP3    H153905   0.205   4.147   3.664 -1.2690  0.6737  0.2089
10830TIP3    H253906   0.108   4.049   3.601 -0.2529 -0.2888  0.1139
10831TIP3   OH253907   2.675   3.972  14.198 -0.2216  0.3290  0.5206
10831TIP3    H153908   2.630   3.944  14.119 -1.1007  0.5906  0.9245
10831TIP3    H253909   2.741   3.905  14.213  0.0509  0.3549 -0.5127
10832TIP3   OH253910   2.581   2.552   3.737 -1.0712  0.0397  0.2312
10832TIP3    H153911   2.554   2.643   3.726 -0.0190  0.6402  2.2541
10832TIP3    H253912   2.511   2.501   3.698 -2.8736  1.6625  1.2679
10833TIP3   OH253913   6.412   1.877  15.169 -0.4500  0.2950  0.3310
10833TIP3    H153914   6.354   1.951  15.186 -0.9117 -0.0553  0.2602
10833TIP3    H253915   6.366   1.801  15.203 -0.9151 -0.2730 -1.5105
10834TIP3   OH253916   6.037   5.640   1.309 -0.0171 -0.4247 -0.4536
10834TIP3    H153917   6.114   5.596   1.344 -0.0493  0.2483  0.4766
10834TIP3    H253918   5.965   5.608   1.363  0.2186  2.2025  1.5391
10835TIP3   OH253919   3.407   0.597  11.328  0.6303 -0.0711  0.3843
10835TIP3    H153920   3.379   0.670  11.273 -0.9696  0.6695  2.1124
10835TIP3    H253921   3.338   0.531  11.318  0.3674  0.0341  1.3846
10836TIP3   OH253922   0.784   1.519   5.111 -0.0501 -0.0384  0.2931
10836TIP3    H153923   0.792   1.613   5.092 -1.1310 -0.0141 -0.1344
10836TIP3    H253924   0.858   1.499   5.167  0.1929  1.0781  0.3875
10837TIP3   OH253925   4.140   6.293  12.172 -0.7769 -0.0320 -0.8627
10837TIP3    H153926   4.190   6.237  12.113 -0.5632 -0.4707 -0.2795
10837TIP3    H253927   4.139   6.245  12.255 -2.2335 -0.0734 -0.8889
10838TIP3   OH253928   5.135   0.795  14.303  0.1671  0.0590 -0.2863
10838TIP3    H153929   5.176   0.880  14.283 -1.2558  0.5669 -1.1111
10838TIP3    H253930   5.086   0.811  14.383 -1.2789  0.4225 -1.2298
10839TIP3   OH253931   3.796   5.040   0.538 -0.3940  0.0779 -0.2437
10839TIP3    H153932   3.834   5.117   0.580  0.6588  0.5628 -2.0486
10839TIP3    H253933   3.777   4.980   0.610  3.1074  0.1138  0.7597
10840TIP3   OH253934   3.226   6.557  12.421  0.0376 -0.0058  0.3265
10840TIP3    H153935   3.315   6.551  12.456  0.7623  1.5743 -1.1993
10840TIP3    H253936   3.216   6.649  12.396 -1.3360 -0.5752 -1.2814
10841TIP3   OH253937   3.371   3.742   2.145  0.9484 -0.4282 -0.2507
10841TIP3    H153938   3.406   3.827   2.170  1.3697 -0.4382 -0.8201
10841TIP3    H253939   3.276   3.754   2.147  1.0147  0.4479 -1.6992
10842TIP3   OH253940   2.830   3.283   3.433  0.3098 -0.3434 -0.0530
10842TIP3    H153941   2.783   3.203   3.411 -0.2154 -0.2897  0.8584
10842TIP3    H253942   2.798   3.307   3.520 -2.6666  3.1414 -1.9934
10843TIP3   OH253943   4.254   3.745   2.089  1.0200 -0.3141  0.2814
10843TIP3    H153944   4.335   3.797   2.096  1.5680 -0.8597 -1.8007
10843TIP3    H253945   4.240   3.712   2.178  2.6022  0.5113  0.8652
10844TIP3   OH253946   0.698   0.710   4.588  0.0247 -0.4519 -0.1198
10844TIP3    H153947   0.753   0.787   4.604 -0.5868  0.2514 -1.3267
10844TIP3    H253948   0.658   0.692   4.673  0.6523  0.1765  0.3235
10845TIP3   OH253949   5.851   1.127   0.862 -0.5609  0.9977  0.1529
10845TIP3    H153950   5.870   1.169   0.947 -1.1984 -0.7352  1.1822
10845TIP3    H253951   5.878   1.036   0.873 -0.6673  0.7492 -1.5198
10846TIP3   OH253952   3.876   0.613   5.868  0.3708  0.1990 -0.0230
10846TIP3    H153953   3.943   0.593   5.933  1.0147  0.2653 -0.6510
10846TIP3    H253954   3.849   0.702   5.888 -0.7714 -0.4440  1.2976
10847TIP3   OH253955   6.255   1.087   3.308  0.0466  0.6885  0.1674
10847TIP3    H153956   6.281   1.033   3.234  0.3040  1.6810 -0.4774
10847TIP3    H253957   6.215   1.165   3.269  0.3714  1.3169  1.0575
10848TIP3   OH253958   6.399   4.160  13.039 -0.2110  0.1395 -0.2292
10848TIP3    H153959   6.353   4.208  12.970 -1.1386 -0.0855  0.2319
10848TIP3    H253960   6.394   4.068  13.012 -1.0226 -0.0040  0.3907
10849TIP3   OH253961   2.757   4.372   2.781  0.4131  0.0280 -0.0205
10849TIP3    H153962   2.754   4.279   2.757 -2.1383  0.4119 -1.2431
10849TIP3    H253963   2.675   4.387   2.828  1.4736  1.3430  1.4536
10850TIP3   OH253964   5.064   1.872   0.564 -0.6182 -0.9327  0.0976
10850TIP3    H153965   5.035   1.933   0.632  0.1620 -0.2575 -0.1772
10850TIP3    H253966   5.158   1.887   0.556 -0.1705 -3.0527  0.9299
10851TIP3   OH253967   0.129   4.407   4.059 -0.3023  0.0184 -0.7347
10851TIP3    H153968   0.112   4.472   3.991 -1.1892  0.4769 -0.0790
10851TIP3    H253969   0.088   4.443   4.138  1.5092 -0.0705  0.2694
10852TIP3   OH253970   5.151   4.395  16.743 -0.2560  0.0916  0.7454
10852TIP3    H153971   5.059   4.413  16.724  0.2988 -0.4252 -2.7740
10852TIP3    H253972   5.194   4.393  16.657  2.9920 -0.0258  2.2734
10853TIP3   OH253973   4.431   0.203   4.637 -0.3241  0.4443 -0.6500
10853TIP3    H153974   4.372   0.202   4.713  0.7215 -1.9191  0.1844
10853TIP3    H253975   4.374   0.223   4.563 -1.6485  1.1910  0.5329
10854TIP3   OH253976   0.153   4.184  16.012 -0.2648  0.2108 -0.1612
10854TIP3    H153977   0.215   4.255  16.021 -0.1681 -0.0178  1.0411
10854TIP3    H253978   0.096   4.210  15.939  1.2321  0.4058 -1.2725
10855TIP3   OH253979   3.876   1.196   4.542  0.4185  0.1302 -0.3134
10855TIP3    H153980   3.861   1.150   4.460  0.3357  1.5440 -1.0989
10855TIP3    H253981   3.895   1.126   4.605 -0.0703 -1.0020 -1.3932
10856TIP3   OH253982   5.085   0.145  15.156  0.1646  0.0957 -0.4910
10856TIP3    H153983   5.174   0.121  15.129  0.1868  0.2911 -0.5992
10856TIP3    H253984   5.089   0.150  15.251  0.2862  0.1604 -0.4985
10857TIP3   OH253985   2.575   6.100  15.720  0.2625  0.1800  0.3090
10857TIP3    H153986   2.520   6.025  15.744 -0.5674  0.1292 -1.6192
10857TIP3    H253987   2.660   6.080  15.758 -0.4721 -0.8187  1.4653
10858TIP3   OH253988   0.948   4.976   3.640  0.8564  0.1778  0.0881
10858TIP3    H153989   0.963   4.974   3.735 -0.9746 -0.0676  0.4098
10858TIP3    H253990   1.015   4.918   3.603 -0.4272 -2.3464  1.5666
10859TIP3   OH253991   5.505   3.594   0.872 -0.3327  0.7541  0.6364
10859TIP3    H153992   5.425   3.561   0.912 -0.0039 -0.5500  0.2531
10859TIP3    H253993   5.493   3.577   0.778  1.2686 -1.4363  0.7853
10860TIP3   OH253994   6.090   6.387   4.516  0.5664  0.0360 -0.4411
10860TIP3    H153995   6.026   6.456   4.498  1.0946  0.9262  1.0131
10860TIP3    H253996   6.060   6.347   4.598  0.3241 -1.4116 -1.2128
10861TIP3   OH253997   5.333   6.577   5.172  0.0206 -0.2318 -0.4229
10861TIP3    H153998   5.414   6.627   5.187 -0.1471 -0.0443 -0.1208
10861TIP3    H253999   5.263   6.638   5.194 -0.1484 -1.9159  4.4235
10862TIP3   OH254000   1.105   0.778  16.145 -0.5474  0.3948 -0.1895
10862TIP3    H154001   1.038   0.844  16.125 -1.3788 -0.7145 -1.1452
10862TIP3    H254002   1.101   0.717  16.071 -0.8784 -1.6130  1.4448
10863TIP3   OH254003   5.821   6.329  16.727 -0.3174  0.2790  0.1580
10863TIP3    H154004   5.882   6.306  16.657  1.5624  0.7327  1.5972
10863TIP3    H254005   5.846   6.273  16.800 -1.7198  0.3812  0.7293
10864TIP3   OH254006   4.946   1.311   4.780 -0.1275 -0.1189 -0.8138
10864TIP3    H154007   5.039   1.330   4.795 -0.2467 -0.7806  0.8789
10864TIP3    H254008   4.937   1.219   4.802 -1.1222 -0.1462 -1.3357
10865TIP3   OH254009   6.781   0.982  14.634  0.2650  0.7286  0.0690
10865TIP3    H154010   6.738   0.898  14.648  0.8604  0.6911  1.8052
10865TIP3    H254011   6.719   1.047  14.667  0.7757  0.7936  0.9230
10866TIP3   OH254012   1.776   6.200   0.009 -0.3342  0.1986  0.1223
10866TIP3    H154013   1.703   6.188  -0.052  0.0935  1.3971 -0.6640
10866TIP3    H254014   1.822   6.277  -0.025 -0.9795  1.8807  2.8335
10867TIP3   OH254015   4.871   2.046   1.835  0.0092  0.2985  0.1335
10867TIP3    H154016   4.835   2.133   1.849 -0.1995  0.3804 -0.8675
10867TIP3    H254017   4.794   1.989   1.833  0.1404  0.1003  0.7262
10868TIP3   OH254018   5.448   2.860  11.668 -0.6320 -0.1658 -0.2014
10868TIP3    H154019   5.400   2.782  11.639  1.1874 -1.5703  0.4439
10868TIP3    H254020   5.526   2.863  11.612  0.0034  0.3907  0.6921
10869TIP3   OH254021   4.245   5.347   4.111 -0.2031 -0.0441  0.4043
10869TIP3    H154022   4.189   5.351   4.188 -0.0850 -0.5197  0.5153
10869TIP3    H254023   4.329   5.382   4.140 -0.5444  0.9932  0.1461
10870TIP3   OH254024   4.461   3.850  16.309 -0.0086  0.0667  0.3533
10870TIP3    H154025   4.525   3.894  16.364 -0.0646 -0.7322  1.0794
10870TIP3    H254026   4.497   3.762  16.296 -0.4313 -0.0388 -0.1347
10871TIP3   OH254027   2.460   1.350   0.364  0.3478  0.4667  0.1737
10871TIP3    H154028   2.443   1.263   0.400 -0.3232 -0.1478 -1.5542
10871TIP3    H254029   2.539   1.339   0.310  0.0399  0.8259 -0.3594
10872TIP3   OH254030   3.123   3.187   2.055  0.5657 -0.3152  0.3482
10872TIP3    H154031   3.073   3.116   2.016  1.9305 -1.5509  0.8028
10872TIP3    H254032   3.205   3.189   2.005  0.7647  0.5612  0.6963
10873TIP3   OH254033   5.869   5.397   1.555 -0.3631 -0.5517 -0.3843
10873TIP3    H154034   5.795   5.435   1.603 -1.2138 -1.3242 -1.0668
10873TIP3    H254035   5.852   5.302   1.557  1.6000 -0.9082  1.0857
10874TIP3   OH254036   0.782   0.268  16.974 -0.0628  0.0086  0.2173
10874TIP3    H154037   0.743   0.288  16.889  0.0833  0.2412  0.2040
10874TIP3    H254038   0.876   0.273  16.959 -0.0478  1.3078  0.6799
10875TIP3   OH254039   5.678   3.221   4.667 -0.4297 -0.5171  0.0869
10875TIP3    H154040   5.763   3.263   4.686  0.1402 -2.1302  1.1722
10875TIP3    H254041   5.672   3.224   4.571 -0.5727  2.3368  0.1422
10876TIP3   OH254042   5.621   2.215   0.198  0.3800 -0.4504 -0.9959
10876TIP3    H154043   5.606   2.126   0.229  0.0294 -0.6394 -1.7000
10876TIP3    H254044   5.604   2.211   0.104 -1.4529  0.7594 -0.7343
10877TIP3   OH254045   3.182   6.119   1.237 -0.7023 -0.1318 -0.3317
10877TIP3    H154046   3.266   6.099   1.195 -1.2909 -0.5773 -1.3100
10877TIP3    H254047   3.125   6.045   1.215 -0.7615 -0.8199  2.0232
10878TIP3   OH254048   2.275   2.958  11.906 -0.6192 -0.2669 -0.3619
10878TIP3    H154049   2.296   2.873  11.946 -0.2655 -0.1209 -0.2300
10878TIP3    H254050   2.354   2.981  11.857 -0.1342  0.7031  0.8567
10879TIP3   OH254051   3.184   3.671   2.570  0.1689 -0.4997 -0.0437
10879TIP3    H154052   3.141   3.680   2.484 -1.7843  0.3846  1.0016
10879TIP3    H254053   3.181   3.759   2.608  1.2181 -0.8437  0.8601
10880TIP3   OH254054   0.434   0.595  11.583 -0.1114 -0.1643  0.7095
10880TIP3    H154055   0.379   0.516  11.578  0.0997 -0.1958 -1.6347
10880TIP3    H254056   0.431   0.631  11.495 -0.1518  2.4465  1.7407
10881TIP3   OH254057   1.871   2.060   1.005 -0.9674 -0.0993 -0.1368
10881TIP3    H154058   1.959   2.046   1.041 -1.1254 -1.9753 -0.4076
10881TIP3    H254059   1.845   2.146   1.037  1.1066  0.6427 -0.3405
10882TIP3   OH254060   5.432   0.273   4.613  0.0034 -0.1946 -0.0589
10882TIP3    H154061   5.358   0.220   4.643  0.0093 -0.1294  0.0706
10882TIP3    H254062   5.409   0.297   4.523  1.1639 -2.5183 -1.0129
10883TIP3   OH254063   1.570   2.934  13.778 -0.1913 -0.1079 -0.0227
10883TIP3    H154064   1.629   2.865  13.810  1.6027  0.8816 -1.1546
10883TIP3    H254065   1.489   2.888  13.757 -0.1562 -1.3608  2.3504
10884TIP3   OH254066   2.083   5.596   0.551 -0.1467 -0.3922  0.4956
10884TIP3    H154067   2.100   5.608   0.645 -0.5160  0.5018  0.4447
10884TIP3    H254068   2.147   5.653   0.508  1.1660 -2.0703  0.1536
10885TIP3   OH254069   5.397   0.164   0.292  0.1223 -0.0482 -0.0675
10885TIP3    H154070   5.325   0.104   0.310 -0.0122  0.4514  1.1294
10885TIP3    H254071   5.441   0.175   0.377  1.8828 -0.7115 -0.8751
10886TIP3   OH254072   0.785   1.775  11.978 -0.7712  0.3413  0.0623
10886TIP3    H154073   0.809   1.860  12.016  2.4211 -0.5530  0.1694
10886TIP3    H254074   0.832   1.773  11.894 -1.4643 -0.9879 -0.3068
10887TIP3   OH254075   1.253   5.386   4.692 -0.7967 -0.4316  0.2676
10887TIP3    H154076   1.234   5.309   4.637  0.7762 -0.6743  0.0239
10887TIP3    H254077   1.232   5.461   4.636 -1.3420 -0.6794  0.1342
10888TIP3   OH254078   6.772   1.026  17.106  0.2369  0.3178  0.4407
10888TIP3    H154079   6.846   1.076  17.073  2.8876 -3.0640  0.9867
10888TIP3    H254080   6.766   0.951  17.046 -2.4389  0.2656  0.7316
10889TIP3   OH254081   6.624   0.736  14.606  0.3580  0.3698  0.4491
10889TIP3    H154082   6.635   0.735  14.511  1.1207 -1.0443  0.5461
10889TIP3    H254083   6.632   0.645  14.633 -0.3388  0.6921  1.8252
10890TIP3   OH254084   4.870   3.851   2.687 -0.2980 -0.0471  0.0762
10890TIP3    H154085   4.941   3.914   2.675 -1.6900  1.8366  1.4497
10890TIP3    H254086   4.872   3.830   2.780  1.1259 -3.2966 -0.6147
10891TIP3   OH254087   5.713   4.848   3.071  0.7301  0.1231 -0.1344
10891TIP3    H154088   5.789   4.791   3.066  0.2345 -0.5833  0.2498
10891TIP3    H254089   5.638   4.789   3.064  0.2159  0.8336 -0.7153
10892TIP3   OH254090   2.011   3.487  15.209  0.3608 -0.0328  0.0514
10892TIP3    H154091   2.054   3.472  15.124  0.9903  0.2568  0.3155
10892TIP3    H254092   2.080   3.474  15.274  0.1480  0.8094  0.4627
10893TIP3   OH254093   1.696   5.791  14.483  0.4537 -0.6316  0.9494
10893TIP3    H154094   1.792   5.786  14.489  0.3646 -2.8907  0.8887
10893TIP3    H254095   1.674   5.747  14.401 -0.4629  2.6983 -0.6574
10894TIP3   OH254096   6.354   3.834   5.751 -0.8146  0.2749  0.6190
10894TIP3    H154097   6.422   3.773   5.721  0.4741  2.4292 -0.9618
10894TIP3    H254098   6.338   3.891   5.676  0.0231  3.6567  2.9465
10895TIP3   OH254099   0.257   1.760  11.164  0.8848  0.0587  0.1386
10895TIP3    H154100   0.293   1.693  11.105  1.3021 -0.4825  0.9988
10895TIP3    H254101   0.236   1.834  11.107  0.5776 -0.7471 -0.7986
10896TIP3   OH254102   5.651   2.529  11.982  0.1434 -0.4701 -0.1200
10896TIP3    H154103   5.606   2.495  11.905 -0.7501 -0.7171  0.4965
10896TIP3    H254104   5.597   2.602  12.011  1.8877  1.2987 -1.2515
10897TIP3   OH254105   5.020   0.786   2.419 -0.3480  0.1614  0.1762
10897TIP3    H154106   5.069   0.709   2.388  1.6395  1.8147 -0.8754
10897TIP3    H254107   4.939   0.749   2.454  0.1153 -2.3529 -1.2196
10898TIP3   OH254108   1.442   6.110   2.011 -0.0359 -0.3368  0.2662
10898TIP3    H154109   1.358   6.111   1.966 -0.5730 -1.3430  1.1996
10898TIP3    H254110   1.421   6.081   2.100  0.9099  2.2473  1.3619
10899TIP3   OH254111   6.573   1.680   1.689  0.2176  0.2084  0.5559
10899TIP3    H154112   6.665   1.695   1.666  0.9540 -1.3756  2.3536
10899TIP3    H254113   6.540   1.768   1.709  0.4822  1.1825 -2.9269
10900TIP3   OH254114   4.068   4.823  12.785  0.7233 -0.7445  0.1925
10900TIP3    H154115   4.133   4.845  12.717  0.8107  1.5537  0.9865
10900TIP3    H254116   4.070   4.897  12.845 -2.5015 -0.7180  0.3610
10901TIP3   OH254117   6.489   5.957  13.503  0.3328  0.8432  0.0173
10901TIP3    H154118   6.496   6.051  13.520  2.6242  0.9705 -1.3606
10901TIP3    H254119   6.564   5.919  13.548 -0.3219 -0.2696  0.1826
10902TIP3   OH254120   4.365   2.512  11.182 -0.0130  0.0672  0.3512
10902TIP3    H154121   4.298   2.452  11.150  0.0701  0.5327 -0.7377
10902TIP3    H254122   4.447   2.463  11.173 -0.3015 -0.8779  2.6529
10903TIP3   OH254123   3.361   6.709  12.828  0.4048 -0.0639  0.9633
10903TIP3    H154124   3.305   6.637  12.857  0.8073 -0.7296  0.1248
10903TIP3    H254125   3.404   6.740  12.908  1.0827 -1.5117  1.1775
10904TIP3   OH254126   5.682   5.156  14.101 -0.2064  0.3078 -0.2683
10904TIP3    H154127   5.728   5.131  14.021  1.3766  1.4309  0.2552
10904TIP3    H254128   5.697   5.251  14.109  0.0920  0.1265  1.6029
10905TIP3   OH254129   5.830   5.190   5.297  0.2229  0.3070 -0.2153
10905TIP3    H154130   5.880   5.133   5.356  1.0643  0.0572 -1.1423
10905TIP3    H254131   5.783   5.249   5.355 -0.7943 -1.4282  0.7880
10906TIP3   OH254132   2.540   1.454   4.154  0.2510  0.5132  0.7234
10906TIP3    H154133   2.595   1.523   4.191  3.7847 -0.9516 -1.5745
10906TIP3    H254134   2.534   1.475   4.061  0.7538 -1.8573  0.1330
10907TIP3   OH254135   2.337   0.479   3.056 -0.3218 -0.2973 -0.2876
10907TIP3    H154136   2.271   0.469   2.987 -0.0110 -1.3740 -0.4476
10907TIP3    H254137   2.352   0.390   3.088  1.6088 -0.1786 -0.7757
10908TIP3   OH254138   6.296   0.056   3.313  0.7058  0.5698  0.1510
10908TIP3    H154139   6.274   0.064   3.405 -1.3046  0.0064 -0.2386
10908TIP3    H254140   6.263  -0.031   3.289  0.3376  1.0970 -1.3056
10909TIP3   OH254141   3.386   4.266   1.980 -0.1245 -0.3412 -0.2456
10909TIP3    H154142   3.357   4.353   2.008  0.9935  0.8811 -2.7490
10909TIP3    H254143   3.456   4.244   2.041 -0.2490  0.5984  0.2543
10910TIP3   OH254144   2.745   2.563  14.605 -0.2379  0.2267  0.6791
10910TIP3    H154145   2.728   2.652  14.637  0.0028  0.3756  0.3951
10910TIP3    H254146   2.687   2.553  14.529  1.6383  1.1040 -0.9157
10911TIP3   OH254147   2.904   2.348  10.558 -0.1216 -0.4915 -0.4942
10911TIP3    H154148   2.958   2.427  10.553 -1.0834  0.2197  0.1697
10911TIP3    H254149   2.822   2.372  10.515  0.9252 -2.3141 -3.6389
10912TIP3   OH254150   1.626   3.703   1.571  0.4616  0.3879  0.1072
10912TIP3    H154151   1.690   3.662   1.629  1.4130 -0.1349 -1.2881
10912TIP3    H254152   1.578   3.630   1.532  0.3145  0.7037 -0.3080
10913TIP3   OH254153   6.651   5.885  15.852  0.0524  0.2008  0.3093
10913TIP3    H154154   6.586   5.944  15.813  0.9985 -0.3710 -2.2084
10913TIP3    H254155   6.600   5.830  15.911 -1.1785  2.1010  1.0535
10914TIP3   OH254156   2.711   2.322  16.216  0.2195 -0.1424  0.0495
10914TIP3    H154157   2.749   2.378  16.283  2.2188  1.0815 -2.0540
10914TIP3    H254158   2.724   2.369  16.134 -1.9268 -1.7331 -1.2783
10915TIP3   OH254159   2.749   0.738  13.326  0.3572  0.1632 -0.7275
10915TIP3    H154160   2.840   0.732  13.355 -0.0670  1.5662  0.9546
10915TIP3    H254161   2.713   0.813  13.373 -2.0655 -1.1960 -0.2980
10916TIP3   OH254162   2.407   1.381   2.046  0.1905 -0.5360 -0.2304
10916TIP3    H154163   2.366   1.324   2.111  0.4483 -0.5435 -0.0758
10916TIP3    H254164   2.389   1.338   1.962 -0.7062 -0.1796 -0.2225
10917TIP3   OH254165   2.060   0.659   0.563 -0.0651 -0.0761 -0.0244
10917TIP3    H154166   2.027   0.748   0.568  3.4531  1.4734 -2.2895
10917TIP3    H254167   1.989   0.604   0.597 -2.8249  3.4286  0.0473
10918TIP3   OH254168   4.929   1.267  16.562  0.2605 -0.1435 -0.1628
10918TIP3    H154169   4.976   1.218  16.494  0.1029 -1.4424  0.6613
10918TIP3    H254170   4.904   1.349  16.518  1.1989 -0.4539 -1.3180
10919TIP3   OH254171   5.132   1.760   0.217  0.4373  0.2367 -0.3022
10919TIP3    H154172   5.147   1.732   0.308 -2.2205  0.2589  0.1863
10919TIP3    H254173   5.158   1.686   0.164  2.3869  0.3618  0.4507
10920TIP3   OH254174   5.261   3.821  11.258  0.6828  0.1846  0.0445
10920TIP3    H154175   5.170   3.793  11.265  1.1474 -1.8880 -1.6006
10920TIP3    H254176   5.258   3.904  11.211 -0.2474 -0.6795 -1.4262
10921TIP3   OH254177   3.395   4.461  13.367 -0.2370  0.5010 -0.2647
10921TIP3    H154178   3.356   4.489  13.450 -0.6645 -2.0847  0.4326
10921TIP3    H254179   3.321   4.427  13.316  0.6963 -2.2246  0.1248
10922TIP3   OH254180   4.334   1.200  11.679 -0.0969 -0.1900 -0.3949
10922TIP3    H154181   4.353   1.123  11.625  0.6284  0.5961 -1.2791
10922TIP3    H254182   4.383   1.271  11.638 -0.1075  0.5829  0.8824
10923TIP3   OH254183   4.411   3.071   4.427  0.0824  0.3500 -0.2369
10923TIP3    H154184   4.417   3.012   4.352  0.8851 -1.5875  1.3247
10923TIP3    H254185   4.320   3.102   4.427 -0.2523 -0.6288 -1.2584
10924TIP3   OH254186   5.146   4.639  15.128 -0.5776  0.1558  0.1785
10924TIP3    H154187   5.087   4.607  15.059  0.4605 -0.4015 -0.4547
10924TIP3    H254188   5.121   4.589  15.205 -1.2136  0.2086  0.0100
10925TIP3   OH254189   2.167   0.360   3.513  0.2567  0.1281 -0.9075
10925TIP3    H154190   2.193   0.274   3.480  2.0401 -0.2510  1.3728
10925TIP3    H254191   2.245   0.414   3.505 -0.3590  1.0571 -0.7502
10926TIP3   OH254192   0.416   1.067   0.888 -0.1686 -0.0605 -1.3870
10926TIP3    H154193   0.496   1.061   0.835 -0.1113 -1.4490 -1.1481
10926TIP3    H254194   0.425   0.998   0.953 -0.5536  1.1861  0.0269
10927TIP3   OH254195   6.245   0.922  11.099  0.5222  0.4363 -0.4505
10927TIP3    H154196   6.281   0.874  11.024  1.0423  0.3664 -0.1575
10927TIP3    H254197   6.321   0.941  11.154 -0.1052 -1.3644  1.1137
10928TIP3   OH254198   0.477   4.891   5.975 -0.2843  0.2268  0.2164
10928TIP3    H154199   0.390   4.931   5.980 -0.5269 -0.4845  1.7780
10928TIP3    H254200   0.489   4.874   5.881 -0.5039  3.1964 -0.4086
10929TIP3   OH254201   4.386   5.385   6.743  0.0754  0.2560 -0.4899
10929TIP3    H154202   4.479   5.407   6.745  0.1639 -0.1970  0.4114
10929TIP3    H254203   4.348   5.429   6.818 -0.3929  0.2200 -0.7013
10930TIP3   OH254204   0.865   5.974   4.109  0.3917 -0.5577  0.3645
10930TIP3    H154205   0.841   5.950   4.199  0.4472 -0.1634  0.4861
10930TIP3    H254206   0.921   5.902   4.079  1.6485  0.0418  1.1964
10931TIP3   OH254207   6.377   1.335   5.174  0.9798  0.3821  0.2074
10931TIP3    H154208   6.321   1.409   5.151  1.3989  0.6522  0.0659
10931TIP3    H254209   6.466   1.363   5.152  0.7178 -1.9786 -4.5386
10932TIP3   OH254210   3.640   5.734   4.267 -0.5136 -0.2964  0.1634
10932TIP3    H154211   3.575   5.758   4.333  0.8859  0.9488  1.1356
10932TIP3    H254212   3.713   5.697   4.317 -0.0934 -0.8109 -0.8239
10933TIP3   OH254213   3.882   0.103   1.796  0.4818 -0.0468 -0.4294
10933TIP3    H154214   3.835   0.185   1.785  0.9470  0.1189 -1.2071
10933TIP3    H254215   3.829   0.053   1.858 -0.0340  0.6571 -0.3022
10934TIP3   OH254216   4.309   6.174   1.739 -0.0279  0.0128 -0.7188
10934TIP3    H154217   4.222   6.214   1.737 -0.5565 -0.9845  1.5563
10934TIP3    H254218   4.293   6.080   1.735  0.8203 -0.2705  1.6882
10935TIP3   OH254219   3.756   2.752   3.418  0.3113 -0.1465 -0.2156
10935TIP3    H154220   3.764   2.828   3.361  1.2202  0.1591  0.3135
10935TIP3    H254221   3.663   2.749   3.442 -0.0803 -0.2766 -1.7005
10936TIP3   OH254222   2.486   6.086   3.665  0.3147 -0.0234 -0.2085
10936TIP3    H154223   2.414   6.120   3.611  0.3198  1.3837  0.6394
10936TIP3    H254224   2.525   6.164   3.705  2.4935 -0.7281 -0.8512
10937TIP3   OH254225   0.425   4.894  16.062  0.9451  0.1758 -0.1632
10937TIP3    H154226   0.338   4.934  16.073  1.2721  0.3457  2.0076
10937TIP3    H254227   0.431   4.877  15.968 -1.2604  0.5753 -0.4202
10938TIP3   OH254228   5.537   0.696   3.036  0.5922 -0.6239  0.2185
10938TIP3    H154229   5.508   0.614   3.075 -0.8745 -0.5752 -0.7153
10938TIP3    H254230   5.507   0.692   2.946  0.4677  0.9427  0.1733
10939TIP3   OH254231   5.199   6.086  16.747  0.7255  0.4245  0.4419
10939TIP3    H154232   5.197   6.181  16.745  1.3891  0.4308 -1.8158
10939TIP3    H254233   5.108   6.060  16.758  0.5237  1.3148  0.9139
10940TIP3   OH254234   1.060   3.451  16.651  0.4874 -0.0172  0.2419
10940TIP3    H154235   0.993   3.515  16.627  0.2169 -0.2267  0.4334
10940TIP3    H254236   1.040   3.374  16.597  2.2199  0.8603 -1.7289
10941TIP3   OH254237   0.155   1.663  13.450  0.6845 -0.8165  0.5679
10941TIP3    H154238   0.203   1.720  13.389 -0.0200  0.0570  0.8263
10941TIP3    H254239   0.116   1.595  13.394  0.7764 -0.5294  0.1539
10942TIP3   OH254240   1.345   4.496   4.135 -0.3055 -0.5691  0.2927
10942TIP3    H154241   1.418   4.492   4.197  2.5060 -1.5120 -2.9011
10942TIP3    H254242   1.282   4.431   4.167  2.2609 -2.9055  0.7867
10943TIP3   OH254243   4.242   5.303   0.366  0.3070 -0.1912  0.0613
10943TIP3    H154244   4.335   5.307   0.387  0.6934  0.3563 -1.6311
10943TIP3    H254245   4.198   5.349   0.437  1.3653 -0.0857  0.6510
10944TIP3   OH254246   6.707   2.847  15.233 -0.4045 -0.3377  1.1208
10944TIP3    H154247   6.732   2.760  15.201  0.2989  0.1829  0.2123
10944TIP3    H254248   6.789   2.897  15.232 -0.3684 -0.2952  3.7819
10945TIP3   OH254249   1.635   3.539   0.333  0.2040  1.3331 -0.4255
10945TIP3    H154250   1.715   3.553   0.383 -0.7401  1.5871  1.0617
10945TIP3    H254251   1.623   3.444   0.332 -0.2585  1.3721  0.6428
10946TIP3   OH254252   2.979   6.192   1.659 -0.0510  0.0488 -0.1460
10946TIP3    H154253   3.056   6.224   1.613  1.7510 -2.0833  1.3091
10946TIP3    H254254   3.003   6.192   1.751 -1.9234 -0.3064  0.3735
10947TIP3   OH254255   0.487   2.522   5.288 -0.4334 -0.0090  0.2659
10947TIP3    H154256   0.470   2.599   5.234 -1.2325 -0.5824 -0.3115
10947TIP3    H254257   0.527   2.557   5.368 -0.5885  0.9823 -0.0849
10948TIP3   OH254258   2.072   0.385  12.132  0.5488  0.0183  0.2086
10948TIP3    H154259   2.053   0.479  12.138 -1.2937 -0.3417  0.0683
10948TIP3    H254260   2.008   0.351  12.070 -0.5660 -1.8109  2.3038
10949TIP3   OH254261   6.716   5.617  13.260  0.0977 -0.0355  0.0457
10949TIP3    H154262   6.800   5.652  13.229  0.1890  1.1382  1.5412
10949TIP3    H254263   6.660   5.693  13.268 -1.7773 -1.0653 -2.8502
10950TIP3   OH254264   5.731   5.910  15.352  0.1041  0.1184 -0.1295
10950TIP3    H154265   5.743   5.865  15.436  1.2630  0.9816  0.1675
10950TIP3    H254266   5.774   5.853  15.288 -0.0678 -0.1263 -0.0320
10951TIP3   OH254267   4.784   2.722   6.252  0.3103 -0.4432  0.2663
10951TIP3    H154268   4.721   2.776   6.299 -1.3576  0.8770 -3.2480
10951TIP3    H254269   4.859   2.780   6.238 -0.0469 -0.1234 -0.4125
10952TIP3   OH254270   4.731   2.214   0.208 -0.0477 -0.0873  0.3757
10952TIP3    H154271   4.797   2.281   0.188  0.3485 -0.6459 -0.2064
10952TIP3    H254272   4.768   2.165   0.281  0.4002 -0.6871 -0.2418
10953TIP3   OH254273   6.742   0.072   0.519 -0.2159 -0.6743  0.1684
10953TIP3    H154274   6.731  -0.014   0.480 -0.3900  0.0264 -1.3703
10953TIP3    H254275   6.826   0.104   0.486  0.5984 -0.8763  1.9736
10954TIP3   OH254276   3.921   4.203   1.518  0.8031  0.4126  0.3442
10954TIP3    H154277   3.917   4.119   1.563  0.2910  0.5692  0.5980
10954TIP3    H254278   3.854   4.256   1.561 -0.0844  0.3795 -0.9752
10955TIP3   OH254279   2.665   6.169   3.436  0.5035  0.0406  0.0083
10955TIP3    H154280   2.602   6.237   3.412  0.6248  0.2164  0.1826
10955TIP3    H254281   2.626   6.125   3.512  0.1369 -0.4926 -0.4876
10956TIP3   OH254282   2.365   1.701  15.885  0.2950  0.3465 -0.0907
10956TIP3    H154283   2.426   1.701  15.959  1.0838 -1.1521 -0.7236
10956TIP3    H254284   2.302   1.770  15.906  1.0443  0.5605  1.5327
10957TIP3   OH254285   4.641   1.498  12.890 -0.1326  0.2361  0.6366
10957TIP3    H154286   4.721   1.452  12.863  2.0362  3.6828  0.9618
10957TIP3    H254287   4.590   1.432  12.937  1.9543 -2.3453 -0.6021
10958TIP3   OH254288   1.062   6.148  15.041  0.5169 -0.6904  0.1497
10958TIP3    H154289   0.984   6.113  14.999  0.1798  0.2071  0.0251
10958TIP3    H254290   1.094   6.076  15.096 -1.2371 -0.5495  1.3665
10959TIP3   OH254291   2.606   0.571   1.408  0.2692 -0.4611 -0.0856
10959TIP3    H154292   2.542   0.639   1.385 -0.0390 -1.2566 -1.7152
10959TIP3    H254293   2.637   0.594   1.495  0.3638  1.9024 -0.7291
10960TIP3   OH254294   3.254   4.851  13.493 -0.1873 -0.1280  0.5969
10960TIP3    H154295   3.179   4.817  13.541 -0.2237 -1.4858 -0.3851
10960TIP3    H254296   3.220   4.868  13.405  0.1847  1.0903  0.6853
10961TIP3   OH254297   1.914   6.504   4.414 -0.0857 -0.1714 -0.0576
10961TIP3    H154298   1.863   6.567   4.362 -1.4045 -0.6467  0.6187
10961TIP3    H254299   2.005   6.527   4.398 -0.4943  0.3422 -1.7711
10962TIP3   OH254300   5.568   6.045  14.745 -0.0211 -1.0552 -0.4674
10962TIP3    H154301   5.545   6.001  14.827  0.3116 -0.1179  0.1419
10962TIP3    H254302   5.556   5.979  14.677 -0.9811 -1.6355  0.2627
10963TIP3   OH254303   1.495   2.351   4.416 -0.5102  0.0453 -0.3791
10963TIP3    H154304   1.489   2.291   4.342 -0.3717 -1.4884  0.8284
10963TIP3    H254305   1.568   2.318   4.468 -0.5824  1.1193  0.4197
10964TIP3   OH254306   0.174   2.518   1.750  0.4341 -0.1140  0.3325
10964TIP3    H154307   0.112   2.480   1.812  1.2004  1.8505  2.3341
10964TIP3    H254308   0.251   2.461   1.754  0.5445  0.1061  1.3146
10965TIP3   OH254309   0.512   5.920  10.792  0.4021 -0.0408  0.3403
10965TIP3    H154310   0.583   5.941  10.853  0.9117 -0.5977 -0.0597
10965TIP3    H254311   0.536   5.965  10.712  0.9271 -1.2222 -0.1746
10966TIP3   OH254312   4.666   5.845  11.320 -0.2631  0.4281 -0.2754
10966TIP3    H154313   4.705   5.761  11.296 -1.0407 -0.1179  0.3158
10966TIP3    H254314   4.595   5.857  11.258 -0.5522  0.3344  0.0336
10967TIP3   OH254315   3.656   6.093  15.305 -0.2652  0.8138 -0.2484
10967TIP3    H154316   3.597   6.117  15.233 -0.4306 -1.5676 -0.9518
10967TIP3    H254317   3.731   6.151  15.295 -0.1129  0.2742 -2.6219
10968TIP3   OH254318   3.728   2.177   1.382  0.6378  0.2571 -0.6251
10968TIP3    H154319   3.633   2.186   1.374  0.3524 -1.3537  0.6696
10968TIP3    H254320   3.763   2.256   1.341 -1.2776  1.1795 -0.5439
10969TIP3   OH254321   4.301   5.444  14.645 -0.1102  0.2221  0.3721
10969TIP3    H154322   4.297   5.385  14.569 -0.1123  0.1862  0.4002
10969TIP3    H254323   4.306   5.532  14.607  2.9545  0.0588  0.2981
10970TIP3   OH254324   3.061   5.340  11.718  0.2143  0.1553 -0.1849
10970TIP3    H154325   3.131   5.322  11.654 -0.2669 -0.7185 -0.4783
10970TIP3    H254326   3.055   5.436  11.720  0.2486  0.2028 -1.4547
10971TIP3   OH254327   0.274   6.701   0.251  0.2693 -0.6182  0.2529
10971TIP3    H154328   0.288   6.606   0.246 -1.2582 -1.0131  2.5806
10971TIP3    H254329   0.191   6.715   0.205 -0.5213 -0.6940  1.6455
10972TIP3   OH254330   5.274   5.475  15.597 -0.5675 -0.1716 -0.3815
10972TIP3    H154331   5.191   5.515  15.573 -0.2649  1.1975  0.8077
10972TIP3    H254332   5.305   5.526  15.671  2.0394  0.2883 -1.7157
10973TIP3   OH254333   3.591   0.852   6.465  0.2514 -0.5047  0.0405
10973TIP3    H154334   3.624   0.942   6.476 -1.3044  0.5713 -3.4950
10973TIP3    H254335   3.669   0.797   6.475  1.4430  1.3012  1.0117
10974TIP3   OH254336   5.824   4.669   4.918 -0.1839  0.2600  0.0436
10974TIP3    H154337   5.812   4.763   4.927 -0.1104  0.3057 -0.3649
10974TIP3    H254338   5.782   4.646   4.835  0.9334  0.1343 -0.4909
10975TIP3   OH254339   2.579   2.619  12.883  0.5498 -0.1717 -0.0120
10975TIP3    H154340   2.632   2.663  12.950  1.5839  0.0736 -0.9872
10975TIP3    H254341   2.557   2.688  12.820  0.7063 -0.6890 -0.6307
10976TIP3   OH254342   1.238   5.325  12.647  0.1610 -0.2286 -0.5350
10976TIP3    H154343   1.261   5.248  12.698 -1.0650 -0.6838 -0.6721
10976TIP3    H254344   1.169   5.296  12.588 -1.5554  1.3716  0.6128
10977TIP3   OH254345   4.618   6.697  17.030  0.2641 -0.4462  0.2540
10977TIP3    H154346   4.565   6.621  17.005 -0.7633 -0.6369  2.8858
10977TIP3    H254347   4.670   6.667  17.104  1.4959  0.7828 -0.0957
10978TIP3   OH254348   1.598   4.687  14.775  1.0911 -0.2503 -0.4430
10978TIP3    H154349   1.612   4.718  14.685  0.0004  2.5985  0.2943
10978TIP3    H254350   1.685   4.689  14.815  1.3260  0.0867 -0.9667
10979TIP3   OH254351   6.288   2.873  14.544 -0.6912 -0.3080  0.4152
10979TIP3    H154352   6.218   2.933  14.518 -0.7237 -0.1011  0.9671
10979TIP3    H254353   6.283   2.801  14.482  2.1285  2.2728 -3.0165
10980TIP3   OH254354   1.527   0.468   3.438  0.0732  0.3032  0.0481
10980TIP3    H154355   1.574   0.447   3.519 -0.1549  1.2641  0.4405
10980TIP3    H254356   1.596   0.487   3.375  0.3506 -3.0445 -0.7588
10981TIP3   OH254357   2.510   5.431   4.353  0.2159 -0.8474 -0.1222
10981TIP3    H154358   2.464   5.512   4.374 -1.3616 -1.4188 -1.2477
10981TIP3    H254359   2.463   5.363   4.402 -0.4327 -1.4934 -1.5922
10982TIP3   OH254360   6.223   5.703   4.448 -0.0120 -0.3386 -0.0078
10982TIP3    H154361   6.280   5.737   4.379 -0.1587  1.7530  0.8457
10982TIP3    H254362   6.240   5.609   4.450  0.1384 -0.4095 -2.7381
10983TIP3   OH254363   2.181   5.984   0.967 -0.2004 -0.8803  0.2902
10983TIP3    H154364   2.172   6.042   0.892  3.9581  0.3431  0.6100
10983TIP3    H254365   2.214   5.902   0.930  0.0977 -0.8802  0.5514
10984TIP3   OH254366   3.245   0.318   2.679 -0.1689  0.7476  0.2440
10984TIP3    H154367   3.296   0.328   2.599  0.7074  0.0536  0.7036
10984TIP3    H254368   3.246   0.224   2.696 -3.0023  0.5186 -0.6383
10985TIP3   OH254369   1.586   6.521  11.672  0.2568 -0.0248 -0.2565
10985TIP3    H154370   1.640   6.580  11.618  0.2080 -0.0176 -0.2976
10985TIP3    H254371   1.649   6.478  11.730  0.3828 -0.4470 -0.7034
10986TIP3   OH254372   5.906   5.823  14.482  0.3016 -0.5335 -0.1201
10986TIP3    H154373   5.903   5.913  14.451  0.5049 -0.7304 -0.7074
10986TIP3    H254374   5.974   5.824  14.550 -1.6595  0.3788  1.9315
10987TIP3   OH254375   4.284   1.313  12.169 -0.5330 -0.5125  0.0493
10987TIP3    H154376   4.243   1.282  12.088  0.9706  1.4718 -1.5274
10987TIP3    H254377   4.370   1.272  12.170  0.0541  0.6722 -0.1993
10988TIP3   OH254378   0.318   3.763  16.181  0.0096 -1.1736 -0.2426
10988TIP3    H154379   0.348   3.731  16.096  2.0647  0.8112 -0.3225
10988TIP3    H254380   0.398   3.781  16.230 -1.1278 -0.5372  1.4416
10989TIP3   OH254381   3.034   1.010   5.526 -0.3344 -0.3898 -0.2909
10989TIP3    H154382   3.082   0.976   5.601  0.4385  1.8732  0.2664
10989TIP3    H254383   3.083   0.977   5.450 -0.2049 -1.3635  0.2037
10990TIP3   OH254384   4.462   2.700  16.935  0.0123  0.2941 -0.0766
10990TIP3    H154385   4.417   2.710  16.851 -0.1240  0.2918 -0.0063
10990TIP3    H254386   4.552   2.727  16.918 -0.2520  1.2365  0.0201
10991TIP3   OH254387   5.234   6.697  14.382 -0.1649 -0.1787  0.5008
10991TIP3    H154388   5.238   6.776  14.436  0.3459 -0.3593  0.7328
10991TIP3    H254389   5.181   6.636  14.432  1.0583 -0.6633  1.2179
10992TIP3   OH254390   6.453   1.183   4.807  0.1210 -0.3657  0.1947
10992TIP3    H154391   6.361   1.183   4.781 -0.1691 -0.6874  1.2045
10992TIP3    H254392   6.489   1.102   4.769 -0.7338 -1.7536  2.2697
10993TIP3   OH254393   0.802   2.427   0.590  0.0493  0.8134  0.2512
10993TIP3    H154394   0.792   2.367   0.516  1.0513 -0.8269  1.4004
10993TIP3    H254395   0.884   2.473   0.573  0.5267  0.0949  0.5275
10994TIP3   OH254396   6.719   5.046  10.945 -0.6549  0.2103 -0.7005
10994TIP3    H154397   6.750   4.961  10.914 -0.2617 -0.2462  0.8770
10994TIP3    H254398   6.677   5.086  10.869  2.1372  0.0406 -2.3984
10995TIP3   OH254399   3.379   4.923  16.539  0.3179  0.6893 -0.5971
10995TIP3    H154400   3.284   4.916  16.546  0.1449  3.7564  0.5932
10995TIP3    H254401   3.409   4.932  16.629  1.6959  0.3539 -1.0163
10996TIP3   OH254402   4.729   1.269  13.806 -0.5351  0.2148  0.0678
10996TIP3    H154403   4.721   1.312  13.720  0.3958 -1.6717 -1.0042
10996TIP3    H254404   4.818   1.291  13.835 -0.8913  0.9461  0.6086
10997TIP3   OH254405   5.488   5.434   4.518  0.4447  0.0435 -0.2016
10997TIP3    H154406   5.409   5.380   4.514 -0.7397  1.7220  0.1769
10997TIP3    H254407   5.548   5.383   4.572 -0.1966 -1.4769 -0.8912
10998TIP3   OH254408   5.262   3.342   6.049  0.0632 -0.0357 -0.1233
10998TIP3    H154409   5.174   3.304   6.053  0.1478 -0.2652 -0.3884
10998TIP3    H254410   5.267   3.399   6.125  0.3353 -1.4451  0.9427
10999TIP3   OH254411   5.676   2.870  16.473 -0.3708  0.3011  0.3615
10999TIP3    H154412   5.713   2.796  16.424 -0.1364  0.3005  0.5452
10999TIP3    H254413   5.709   2.948  16.427 -0.4292  0.2974  0.3120
11000TIP3   OH254414   2.540   4.085   0.552 -0.6335 -0.9586  0.1599
11000TIP3    H154415   2.526   4.056   0.462 -0.4887 -0.9429  0.1320
11000TIP3    H254416   2.625   4.049   0.576 -0.8787 -1.3514  0.4491
11001TIP3   OH254417   1.361   1.785   5.640 -0.1281 -0.2924 -0.3347
11001TIP3    H154418   1.442   1.792   5.589 -0.5607  0.3641 -0.9411
11001TIP3    H254419   1.314   1.866   5.621 -0.1911  0.0624  1.2873
11002TIP3   OH254420   6.340   3.614   4.884  0.8279  0.1681 -0.0778
11002TIP3    H154421   6.357   3.682   4.819 -1.0250 -0.6620 -1.4730
11002TIP3    H254422   6.311   3.538   4.833 -1.2236 -0.3279  1.7151
11003TIP3   OH254423   2.999   0.501  11.750  0.0971 -0.1144 -0.4716
11003TIP3    H154424   3.010   0.516  11.656  0.4945 -0.1116 -0.4250
11003TIP3    H254425   2.995   0.588  11.788 -0.0790 -0.1154 -0.4844
11004TIP3   OH254426   5.006   3.546   2.123  0.0356  0.0240 -0.1417
11004TIP3    H154427   5.082   3.577   2.172  0.2563  0.3452 -0.6844
11004TIP3    H254428   4.968   3.625   2.085 -0.5464 -0.1389  0.0910
11005TIP3   OH254429   2.872   4.816   5.953  0.7686  0.1183 -0.0698
11005TIP3    H154430   2.838   4.902   5.929 -1.4396 -0.6016  0.3160
11005TIP3    H254431   2.849   4.805   6.045  1.1579 -0.8178 -0.0717
11006TIP3   OH254432   3.147   6.201  11.481 -0.6831  0.0159 -0.3937
11006TIP3    H154433   3.088   6.142  11.528  0.3826 -1.3805 -0.7450
11006TIP3    H254434   3.229   6.152  11.475  0.1079  1.3831 -1.0717
11007TIP3   OH254435   6.739   3.361  17.107  0.1545 -0.5628 -0.1318
11007TIP3    H154436   6.732   3.306  17.185  2.7377  0.4376  0.8368
11007TIP3    H254437   6.812   3.420  17.125  0.0264  0.4948 -2.8284
11008TIP3   OH254438   0.969   6.056  11.271  0.5243 -0.1739  0.1038
11008TIP3    H154439   0.979   6.051  11.176  2.0375 -1.2526  0.3007
11008TIP3    H254440   0.889   6.107  11.284 -0.3708 -1.0609 -1.7519
11009TIP3   OH254441   6.126   6.724   5.482  0.0099 -0.2649  0.1966
11009TIP3    H154442   6.071   6.652   5.450  0.1307  0.4720 -1.7474
11009TIP3    H254443   6.064   6.792   5.508 -0.0589 -0.3012  0.1294
11010TIP3   OH254444   2.276   1.619  10.632 -0.3182  0.5351 -0.5213
11010TIP3    H154445   2.248   1.583  10.548  2.0202 -1.2549 -0.5810
11010TIP3    H254446   2.352   1.675  10.611 -0.8350  1.5339  0.1942
11011TIP3   OH254447   1.657   5.575   0.196 -0.4685 -0.0720  0.3862
11011TIP3    H154448   1.648   5.481   0.208  1.9121 -0.3487  0.2298
11011TIP3    H254449   1.695   5.606   0.278  1.2075  0.3655 -0.5466
11012TIP3   OH254450   5.784   4.191   4.614  0.1354 -0.6526  0.0733
11012TIP3    H154451   5.752   4.160   4.699 -0.5386 -1.2244 -0.3870
11012TIP3    H254452   5.809   4.112   4.567  2.3803 -0.2100  0.4601
11013TIP3   OH254453   6.353   4.780   4.557  0.4523 -0.2195  0.2430
11013TIP3    H154454   6.320   4.703   4.603 -0.8193  0.2088  0.0650
11013TIP3    H254455   6.353   4.849   4.623  0.9778 -0.2124  0.2368
11014TIP3   OH254456   4.986   1.816  16.587  0.1622  0.9748 -0.4855
11014TIP3    H154457   4.898   1.811  16.549 -0.2677  0.3034  0.5472
11014TIP3    H254458   5.030   1.884  16.538  0.1551 -0.9191 -3.2317
11015TIP3   OH254459   5.816   5.708   4.501 -0.4073 -0.8795  0.6788
11015TIP3    H154460   5.862   5.681   4.422 -0.8043 -0.2379  0.2251
11015TIP3    H254461   5.857   5.791   4.525 -1.5581 -0.1378  0.0823
11016TIP3   OH254462   3.407   3.337   5.817  0.3274  0.3169  0.2510
11016TIP3    H154463   3.345   3.269   5.789  1.8203 -0.9954  0.0417
11016TIP3    H254464   3.387   3.352   5.909 -0.3748 -0.0234  0.1540
11017TIP3   OH254465   1.112   2.188  11.962  0.0795  0.1337 -0.0747
11017TIP3    H154466   1.086   2.103  11.925 -0.0030  0.7194 -1.3969
11017TIP3    H254467   1.060   2.252  11.913  2.0422  1.1318 -0.9042
11018TIP3   OH254468   4.940   1.121   1.380 -0.4659  0.4634 -0.2671
11018TIP3    H154469   4.985   1.203   1.397  1.0093 -0.3668 -0.0324
11018TIP3    H254470   4.911   1.127   1.289  0.2907  0.9393 -0.4784
11019TIP3   OH254471   3.225   6.138  14.296 -0.2320 -0.4971  0.0337
11019TIP3    H154472   3.211   6.066  14.235 -0.3407 -1.3923  1.0989
11019TIP3    H254473   3.191   6.106  14.379  0.6085  0.4167  0.7448
11020TIP3   OH254474   2.865   4.659   4.445 -0.2978 -0.2312  0.2463
11020TIP3    H154475   2.919   4.630   4.372 -0.6530 -0.1204 -0.0631
11020TIP3    H254476   2.837   4.577   4.487  0.1163 -0.2872  0.4124
11021TIP3   OH254477   6.488   6.109  12.610  0.3453 -0.3417  0.1843
11021TIP3    H154478   6.548   6.074  12.676  1.4284  0.0562 -0.5734
11021TIP3    H254479   6.403   6.107  12.652  0.8892 -0.8982  1.2927
11022TIP3   OH254480   1.929   0.135  15.320 -0.6085 -0.6044  0.5221
11022TIP3    H154481   1.922   0.169  15.230 -0.0843  0.5675  0.9224
11022TIP3    H254482   1.861   0.068  15.325  0.3400 -1.7457 -1.2336
11023TIP3   OH254483   4.552   2.563  13.551 -0.3966 -0.2054  0.1849
11023TIP3    H154484   4.631   2.607  13.519 -0.8494  0.2867 -0.2667
11023TIP3    H254485   4.495   2.634  13.580 -0.3401 -0.6045  1.2830
11024TIP3   OH254486   5.811   6.571  13.898  0.7150 -0.0467 -0.0893
11024TIP3    H154487   5.831   6.507  13.830 -0.9590 -1.0647  0.3494
11024TIP3    H254488   5.723   6.602  13.877  1.1182  1.4037  0.2592
11025TIP3   OH254489   5.369   5.138  12.308  0.2343  0.0199 -0.3295
11025TIP3    H154490   5.324   5.203  12.361 -1.4132 -2.4630  1.4789
11025TIP3    H254491   5.462   5.156  12.322 -0.1638  3.1011 -1.3900
11026TIP3   OH254492   5.006   2.838   2.151 -0.1860  0.2984 -0.0838
11026TIP3    H154493   4.967   2.791   2.225  1.3285 -0.1780  0.4219
11026TIP3    H254494   5.070   2.777   2.114 -0.6333  0.6824 -1.5491
11027TIP3   OH254495   4.260   4.789   2.029  0.4104 -0.1840 -0.2306
11027TIP3    H154496   4.233   4.795   2.121  2.3268 -0.3321  0.3760
11027TIP3    H254497   4.341   4.839   2.025  0.0809  0.2429 -1.9727
11028TIP3   OH254498   6.579   6.528   5.055  0.3350  0.4162 -0.1631
11028TIP3    H154499   6.603   6.436   5.061  1.2247  0.6058 -0.8586
11028TIP3    H254500   6.491   6.532   5.094  0.3715 -0.6864  0.0400
11029TIP3   OH254501   3.825   4.249   5.033 -0.7021  0.5196 -0.0496
11029TIP3    H154502   3.890   4.288   5.091 -0.7421 -0.0496  0.3752
11029TIP3    H254503   3.816   4.312   4.962 -1.0545  1.4970  0.8363
11030TIP3   OH254504   5.284   2.377   1.795 -0.5441 -0.3561 -0.9988
11030TIP3    H154505   5.370   2.410   1.822 -0.5921 -0.5072 -0.6563
11030TIP3    H254506   5.223   2.413   1.860 -0.8312  0.3096 -1.6375
11031TIP3   OH254507   1.259   5.454  11.718 -0.4815  0.5966 -0.6760
11031TIP3    H154508   1.348   5.484  11.733 -1.1696  2.6745 -0.6742
11031TIP3    H254509   1.204   5.531  11.731 -2.3703 -0.8420  0.1551
11032TIP3   OH254510   4.821   5.742   6.028 -0.2903 -0.2736 -0.6536
11032TIP3    H154511   4.873   5.663   6.043  1.6351  1.4299  2.0535
11032TIP3    H254512   4.797   5.772   6.116 -3.9035  0.3181 -1.7602
11033TIP3   OH254513   4.381   0.125  10.825  0.2284  0.4731  0.6994
11033TIP3    H154514   4.424   0.113  10.740  1.0408  0.5634  1.0911
11033TIP3    H254515   4.315   0.192  10.810  0.5333  0.6636  0.1915
11034TIP3   OH254516   2.215   2.900  15.821  0.3265 -0.1282  0.3370
11034TIP3    H154517   2.172   2.897  15.906 -0.8550 -1.1075 -0.2737
11034TIP3    H254518   2.208   2.811  15.787  1.9814 -0.0778 -0.2216
11035TIP3   OH254519   6.761   3.635   0.084 -0.7444 -0.1379  1.1051
11035TIP3    H154520   6.772   3.644  -0.011 -1.8380 -1.7510  0.8198
11035TIP3    H254521   6.707   3.710   0.109 -0.6660  0.1484  0.4224
11036TIP3   OH254522   3.122   4.406  11.609  0.2465 -0.2741 -0.0677
11036TIP3    H154523   3.186   4.352  11.654  0.2719 -0.9851 -0.9433
11036TIP3    H254524   3.146   4.496  11.630  2.3356 -0.4750 -1.4570
11037TIP3   OH254525   5.810   2.870  14.620 -0.5989 -0.3106 -0.3818
11037TIP3    H154526   5.744   2.913  14.566 -0.0825 -0.6016 -1.2491
11037TIP3    H254527   5.840   2.796  14.568 -0.0815 -0.5782  0.2905
11038TIP3   OH254528   4.146   0.032   5.485 -0.0161  0.0607  0.0682
11038TIP3    H154529   4.201   0.102   5.449  0.1608 -0.1457 -0.0622
11038TIP3    H254530   4.078   0.019   5.419  0.2905 -0.2970 -0.1810
11039TIP3   OH254531   0.637   4.620  13.824  0.3066 -0.3416  0.0759
11039TIP3    H154532   0.549   4.646  13.796 -0.9013 -1.6290  2.5179
11039TIP3    H254533   0.634   4.525  13.828  1.9289 -0.4156 -0.1355
11040TIP3   OH254534   2.039   2.801  12.960  0.0569  0.7929 -0.5241
11040TIP3    H154535   1.953   2.763  12.977 -0.2345  1.4756 -0.4949
11040TIP3    H254536   2.071   2.753  12.883 -0.6697  1.0691 -1.0012
11041TIP3   OH254537   5.870   5.166   2.619  0.0359 -0.4905 -0.8768
11041TIP3    H154538   5.902   5.076   2.622  1.6985  0.0617 -1.6145
11041TIP3    H254539   5.913   5.205   2.543  0.1984  1.2414  0.0660
11042TIP3   OH254540   5.838   1.968   0.784 -0.8001 -0.4014  0.7368
11042TIP3    H154541   5.855   1.908   0.856 -0.4102 -0.0357  0.9501
11042TIP3    H254542   5.813   2.050   0.826  3.2580  1.0181  0.5543
11043TIP3   OH254543   6.523   3.621  14.321  0.3276 -0.3202 -0.1813
11043TIP3    H154544   6.514   3.690  14.255 -0.1362  1.1204  1.3239
11043TIP3    H254545   6.618   3.615  14.336  0.3011  1.0592  0.7119
11044TIP3   OH254546   5.857   2.073  12.135 -0.3116  0.4453 -0.5873
11044TIP3    H154547   5.849   2.018  12.057  0.8937 -1.6685  0.7080
11044TIP3    H254548   5.769   2.074  12.173 -0.6600  0.6070 -1.4003
11045TIP3   OH254549   5.413   3.324   4.991  0.4480  0.0888 -0.2853
11045TIP3    H154550   5.346   3.258   4.977  0.1650  0.0309  1.2605
11045TIP3    H254551   5.494   3.274   5.000  0.1286 -0.1397  1.6210
11046TIP3   OH254552   0.757   6.338  15.138  0.1476 -0.2689  0.2466
11046TIP3    H154553   0.775   6.417  15.087  2.5701 -1.1936 -0.4380
11046TIP3    H254554   0.772   6.267  15.076 -1.8357 -1.2777  0.9038
11047TIP3   OH254555   3.604   5.387  15.142 -0.1099 -0.0811 -0.2614
11047TIP3    H154556   3.567   5.360  15.058 -0.0142  0.1462 -0.3762
11047TIP3    H254557   3.683   5.334  15.151  0.4034  0.5866 -0.7691
11048TIP3   OH254558   6.757   5.078  16.772 -0.2030  0.1887 -0.4303
11048TIP3    H154559   6.736   5.109  16.684  2.7305 -0.3107 -1.3640
11048TIP3    H254560   6.812   5.000  16.758 -1.3521 -1.0968  1.8596
11049TIP3   OH254561   0.647   0.916  15.985  0.4030  0.0612 -0.0592
11049TIP3    H154562   0.584   0.852  15.950 -1.0905  0.6084  1.5383
11049TIP3    H254563   0.592   0.980  16.030  2.1384  0.2601  1.8221
11050TIP3   OH254564   4.573   2.621  16.377  0.0240 -0.3108  0.3111
11050TIP3    H154565   4.581   2.532  16.342 -1.3959 -0.2987 -0.0966
11050TIP3    H254566   4.505   2.661  16.323  0.8996  1.1361  0.2721
11051TIP3   OH254567   3.711   0.107   0.466  0.3608 -0.0262 -0.3477
11051TIP3    H154568   3.644   0.174   0.481  2.1663  1.7010  0.3025
11051TIP3    H254569   3.722   0.105   0.371  0.6249  0.9566 -0.3427
11052TIP3   OH254570   2.763   0.840   3.911  0.0488 -0.0635 -0.5327
11052TIP3    H154571   2.856   0.820   3.905  0.2480  0.9959 -1.0788
11052TIP3    H254572   2.753   0.887   3.993  0.0668  0.2092 -0.6869
11053TIP3   OH254573   3.575   3.038  15.639 -0.3751  0.3659 -0.7559
11053TIP3    H154574   3.571   3.089  15.720  0.3808  2.3133 -1.9091
11053TIP3    H254575   3.494   2.987  15.638 -1.2539  1.7215  0.3152
11054TIP3   OH254576   0.373   1.411   5.795  0.6705 -0.3042  0.3101
11054TIP3    H154577   0.426   1.438   5.870  1.2648  2.4737 -1.0338
11054TIP3    H254578   0.284   1.407   5.829  1.4163 -3.0315  2.1015
11055TIP3   OH254579   1.485   3.394   4.947  0.0649  0.4709 -0.0446
11055TIP3    H154580   1.559   3.454   4.954  0.3726 -0.0315  1.0564
11055TIP3    H254581   1.518   3.322   4.894  0.0354  0.7388 -0.4314
11056TIP3   OH254582   0.802   5.234   2.270  0.4209  0.0977 -0.2282
11056TIP3    H154583   0.851   5.163   2.230 -0.6643 -0.1085 -1.1936
11056TIP3    H254584   0.864   5.308   2.269  1.0178 -0.3973 -0.6196
11057TIP3   OH254585   6.770   1.200   2.142 -0.2111  0.2589  0.0137
11057TIP3    H154586   6.732   1.176   2.058 -0.9136  1.7666 -0.1255
11057TIP3    H254587   6.836   1.133   2.159 -2.1564 -1.8017 -0.2636
11058TIP3   OH254588   5.564   4.133   1.823  0.0925 -0.1075  0.2624
11058TIP3    H154589   5.555   4.132   1.727 -1.1323 -1.9157  0.3594
11058TIP3    H254590   5.656   4.155   1.838  0.5617 -0.8233 -1.3616
11059TIP3   OH254591   4.243   3.950   6.457  0.0219 -0.0735 -0.0458
11059TIP3    H154592   4.274   3.862   6.477  3.2204  0.9743 -0.0144
11059TIP3    H254593   4.213   3.985   6.541 -0.4291 -0.8332  0.1060
11060TIP3   OH254594   2.659   1.264   6.035 -0.2357 -0.0007  0.6517
11060TIP3    H154595   2.638   1.341   6.089 -0.7793  0.6280 -0.4536
11060TIP3    H254596   2.651   1.190   6.096  1.4992  0.9209  2.0315
11061TIP3   OH254597   2.383   2.847   4.604 -0.3454  0.3791  0.4449
11061TIP3    H154598   2.362   2.758   4.633 -1.1807  0.0870 -1.0228
11061TIP3    H254599   2.477   2.856   4.624 -0.6545 -0.1717  2.2394
11062TIP3   OH254600   0.099   0.078  13.995  0.0891  0.6536  0.0262
11062TIP3    H154601   0.037   0.087  14.068  0.2650 -2.6088  0.6590
11062TIP3    H254602   0.049   0.103  13.918 -0.8797  1.6762  0.9668
11063TIP3   OH254603   4.644   2.109   5.082 -0.4119  0.0527 -0.3374
11063TIP3    H154604   4.730   2.070   5.096 -0.0602  0.5490 -1.1556
11063TIP3    H254605   4.594   2.082   5.159  1.0836  1.5035  1.1817
11064TIP3   OH254606   5.741   5.121  14.945 -0.5876 -0.5110  0.3071
11064TIP3    H154607   5.646   5.117  14.941 -0.5999  0.4552 -0.5485
11064TIP3    H254608   5.771   5.067  14.872 -0.4896 -0.4310  0.2866
11065TIP3   OH254609   0.881   1.703  13.581  0.1806  0.2598 -0.3141
11065TIP3    H154610   0.977   1.712  13.580  0.3660 -1.3774  0.9058
11065TIP3    H254611   0.855   1.737  13.667 -0.1851 -0.5111 -0.1124
11066TIP3   OH254612   5.613   5.230  16.397 -0.4982  0.0159  0.0373
11066TIP3    H154613   5.565   5.313  16.397 -1.1817 -0.3720 -0.3954
11066TIP3    H254614   5.704   5.255  16.408 -0.8900  0.7095  1.7863
11067TIP3   OH254615   2.748   1.295   0.964 -0.2966  0.4686  0.2396
11067TIP3    H154616   2.807   1.312   1.038  0.9088 -0.5853 -0.4552
11067TIP3    H254617   2.798   1.236   0.908 -1.7821  0.0986 -0.6922
11068TIP3   OH254618   3.048   4.537   1.563  0.1016 -0.3784 -0.5031
11068TIP3    H154619   3.131   4.512   1.523 -0.6290 -1.1146 -1.6056
11068TIP3    H254620   3.033   4.471   1.630 -0.3650 -1.1964 -1.3941
11069TIP3   OH254621   0.711   0.959  11.858 -0.2008 -0.0980 -1.0619
11069TIP3    H154622   0.742   0.948  11.768  1.0862  1.2123 -0.7847
11069TIP3    H254623   0.790   0.969  11.910 -0.8875 -1.6788  0.3612
11070TIP3   OH254624   1.249   5.273   5.118 -0.5452 -0.4269 -0.4198
11070TIP3    H154625   1.195   5.196   5.133 -1.9770  0.7874  0.8641
11070TIP3    H254626   1.320   5.266   5.182 -1.8495  0.3712  1.1398
11071TIP3   OH254627   5.685   2.404   0.386 -0.5822 -0.2308 -0.3925
11071TIP3    H154628   5.738   2.346   0.439 -0.0526  0.1041 -0.5501
11071TIP3    H254629   5.669   2.356   0.305  0.2354  0.0177 -0.7052
11072TIP3   OH254630   3.807   2.613  15.569  0.1013 -0.1249  0.0061
11072TIP3    H154631   3.770   2.607  15.657 -1.6578  1.0718 -0.6311
11072TIP3    H254632   3.824   2.522  15.544 -0.8961 -0.5839  0.9529
11073TIP3   OH254633   0.510   4.124   5.662  0.0809 -0.3760  0.0817
11073TIP3    H154634   0.573   4.149   5.729  1.0701 -0.3992 -0.8290
11073TIP3    H254635   0.481   4.036   5.687  0.5085 -0.4168  0.4269
11074TIP3   OH254636   1.187   0.090   4.706 -0.0860  0.1205  0.1090
11074TIP3    H154637   1.210  -0.003   4.708 -0.2983  0.0790  0.8020
11074TIP3    H254638   1.261   0.133   4.748 -0.5839  0.1279  1.0057
11075TIP3   OH254639   4.439   0.592   3.937  0.2602 -0.0866  0.1641
11075TIP3    H154640   4.429   0.646   4.016 -0.0574 -2.2191  1.6219
11075TIP3    H254641   4.533   0.585   3.925  0.3049  1.1451 -0.3043
11076TIP3   OH254642   2.612   4.019   5.361  0.3865 -0.0740  0.3558
11076TIP3    H154643   2.625   4.109   5.390 -0.8142  0.6535 -1.2545
11076TIP3    H254644   2.693   3.974   5.385  1.7807  1.8863 -0.4551
11077TIP3   OH254645   2.659   1.127  14.602  0.0063  0.2947 -0.5639
11077TIP3    H154646   2.710   1.063  14.652  1.6740  1.4588 -0.7446
11077TIP3    H254647   2.711   1.143  14.523 -0.9690  0.9795 -1.0786
11078TIP3   OH254648   3.348   1.891  15.267 -0.2731 -0.2457 -0.1478
11078TIP3    H154649   3.295   1.827  15.314  0.3045  0.1316  1.0459
11078TIP3    H254650   3.359   1.854  15.179 -2.1101 -0.5333 -0.2669
11079TIP3   OH254651   0.346   0.537   0.611 -0.7311 -0.3960  0.3744
11079TIP3    H154652   0.259   0.536   0.652 -1.5699 -1.0580 -1.3687
11079TIP3    H254653   0.407   0.524   0.684 -2.0698  0.3324  1.6537
11080TIP3   OH254654   5.916   0.624   3.683  0.2713  0.4843 -0.4286
11080TIP3    H154655   5.991   0.621   3.743  1.1252 -1.2073 -1.5397
11080TIP3    H254656   5.867   0.544   3.704  0.1125  0.3304 -1.3831
11081TIP3   OH254657   5.313   1.840  12.857 -0.0125  0.5854 -0.2381
11081TIP3    H154658   5.242   1.777  12.844 -1.4117  2.1957 -0.5821
11081TIP3    H254659   5.280   1.901  12.923  1.1692  1.2056 -0.1941
11082TIP3   OH254660   0.847   3.416   4.198 -0.0362 -0.1947  0.3665
11082TIP3    H154661   0.812   3.327   4.206  0.7901 -0.5169  0.4390
11082TIP3    H254662   0.770   3.471   4.185 -0.4983 -1.0099 -0.4036
11083TIP3   OH254663   1.818   4.945  12.324 -0.3769  0.2030 -0.4942
11083TIP3    H154664   1.890   4.972  12.381 -0.4668  0.1125 -0.3341
11083TIP3    H254665   1.745   5.002  12.349 -0.8577 -0.8479  0.5402
11084TIP3   OH254666   3.241   1.139  17.126 -0.5037  0.5638  0.6559
11084TIP3    H154667   3.273   1.050  17.111 -0.5816  0.7738 -0.8164
11084TIP3    H254668   3.178   1.130  17.198 -0.9046 -0.6631  0.1669
11085TIP3   OH254669   2.618   4.249  12.053 -0.1434  0.0846  0.2566
11085TIP3    H154670   2.575   4.258  12.138 -0.5988 -2.0368  0.2783
11085TIP3    H254671   2.612   4.156  12.033 -3.3194  0.9983 -3.8035
11086TIP3   OH254672   1.893   5.917   2.547 -0.4282 -0.0773 -0.5535
11086TIP3    H154673   1.864   5.951   2.632  0.2002 -2.1163  0.4946
11086TIP3    H254674   1.838   5.963   2.483 -0.1517  2.2985  0.8573
11087TIP3   OH254675   1.459   1.357  14.735 -0.1168 -0.0150  0.1502
11087TIP3    H154676   1.549   1.381  14.758 -0.4636  1.3415  0.1022
11087TIP3    H254677   1.405   1.422  14.778 -1.1118 -0.9993  0.4162
11088TIP3   OH254678   6.582   0.237   2.147  0.3638 -0.3665 -1.1136
11088TIP3    H154679   6.551   0.225   2.236  0.3748  1.5186 -0.8263
11088TIP3    H254680   6.561   0.155   2.102 -1.4359 -0.5931  0.1055
11089TIP3   OH254681   1.225   3.675  12.165  0.4376 -0.1844 -0.2072
11089TIP3    H154682   1.188   3.587  12.173  0.0765  0.0928  1.3858
11089TIP3    H254683   1.307   3.670  12.214  0.8967  0.1199 -0.9309
11090TIP3   OH254684   4.299   0.311   4.089 -0.3561  0.2822  0.1424
11090TIP3    H154685   4.353   0.391   4.086 -1.6182  1.1338 -0.5665
11090TIP3    H254686   4.352   0.245   4.045  0.2837  1.0077 -0.2027
11091TIP3   OH254687   0.278   5.735  14.494  0.7498  0.1666 -1.0554
11091TIP3    H154688   0.244   5.820  14.522  0.6263  0.4162 -1.9256
11091TIP3    H254689   0.249   5.674  14.561  0.5123  0.7497 -0.6197
11092TIP3   OH254690   4.068   4.037  16.081  0.2145  0.6647  0.5598
11092TIP3    H154691   4.088   3.953  16.121  0.2236  0.1484 -0.5090
11092TIP3    H254692   4.118   4.037  15.999 -0.4573  1.3449  0.1411
11093TIP3   OH254693   3.513   5.357  11.218 -0.7929 -0.0051 -0.2155
11093TIP3    H154694   3.489   5.280  11.269  0.0890  0.2532  0.6024
11093TIP3    H254695   3.459   5.427  11.253 -2.5826 -0.5184 -1.8660
11094TIP3   OH254696   3.741   1.645   4.402  0.0371 -0.2188  0.1746
11094TIP3    H154697   3.688   1.565   4.400 -0.9152  0.4200 -0.2331
11094TIP3    H254698   3.783   1.643   4.488 -1.9903  0.1299  1.2103
11095TIP3   OH254699   1.549   0.027   2.636  0.0247  0.2939  0.2506
11095TIP3    H154700   1.512   0.115   2.644  0.1528  0.3425  0.3190
11095TIP3    H254701   1.631   0.040   2.589 -0.7093  0.0100 -1.1244
11096TIP3   OH254702   4.052   2.386  14.310 -0.7706  0.5768  0.3347
11096TIP3    H154703   4.130   2.437  14.291 -0.5442  0.3220  0.5768
11096TIP3    H254704   4.083   2.311  14.361 -0.9994 -0.1955 -0.6489
11097TIP3   OH254705   5.451   2.377  13.180 -0.0244  1.2728  0.4381
11097TIP3    H154706   5.503   2.415  13.250 -1.1871  1.7300  1.0547
11097TIP3    H254707   5.387   2.322  13.224 -0.0539  0.6804 -0.3213
11098TIP3   OH254708   0.891   0.090  13.028 -0.4400 -0.2500 -0.0254
11098TIP3    H154709   0.950   0.161  13.052  0.4382 -0.7685 -0.6287
11098TIP3    H254710   0.883   0.038  13.108 -0.8745  0.3819  0.3408
11099TIP3   OH254711   4.206   1.231  11.920 -0.4449 -0.1799  0.1458
11099TIP3    H154712   4.114   1.227  11.894 -0.0433 -0.6827 -1.2971
11099TIP3    H254713   4.248   1.162  11.868  1.2483  1.9186 -1.3944
11100TIP3   OH254714   5.088   0.913  11.396  0.4572 -0.1169  0.0848
11100TIP3    H154715   5.095   0.876  11.308 -1.0431  1.7682 -0.8632
11100TIP3    H254716   5.154   0.982  11.398  0.1280  0.1900  0.2687
11101TIP3   OH254717   1.110   3.188  12.351 -0.3140  0.2202 -0.0935
11101TIP3    H154718   1.019   3.170  12.329 -0.8587  2.1012  0.5364
11101TIP3    H254719   1.126   3.137  12.431 -1.0547  0.5632  0.2683
11102TIP3   OH254720   4.738   6.673  13.329  0.9066  0.3356  0.1887
11102TIP3    H154721   4.831   6.687  13.348  1.4540 -2.9042  0.1953
11102TIP3    H254722   4.732   6.672  13.234  0.8124  0.9239  0.1881
11103TIP3   OH254723   2.892   6.014   5.798  0.0028 -0.0000 -0.3266
11103TIP3    H154724   2.868   6.057   5.880  0.9946 -0.8018  0.3905
11103TIP3    H254725   2.886   5.920   5.816  0.6551 -0.1868 -1.0361
11104TIP3   OH254726   1.750   0.746   0.008  0.4430 -0.2223  0.0448
11104TIP3    H154727   1.780   0.698   0.086 -2.0053  1.1008  1.8606
11104TIP3    H254728   1.665   0.782   0.033  0.2283  1.3934 -2.8025
11105TIP3   OH254729   2.355   4.727   2.089 -0.2799  0.4415  0.0696
11105TIP3    H154730   2.408   4.700   2.165 -0.3373  0.3583  0.0799
11105TIP3    H254731   2.266   4.701   2.111 -0.1776 -0.2966 -0.3600
11106TIP3   OH254732   2.106   4.641   2.167  0.1868 -0.4182  0.4059
11106TIP3    H154733   2.021   4.604   2.189 -0.6540  0.4292 -1.4254
11106TIP3    H254734   2.115   4.716   2.226 -1.3769  0.9154 -1.0368
11107TIP3   OH254735   4.489   2.399  11.883  0.3678  0.4723 -0.3101
11107TIP3    H154736   4.513   2.405  11.975  3.2940 -1.1976 -0.9163
11107TIP3    H254737   4.413   2.341  11.882  0.0949  0.7845  1.0772
11108TIP3   OH254738   2.047   4.260   4.604  0.3998  0.7741  0.0947
11108TIP3    H154739   1.953   4.251   4.619  0.0691  0.5430 -2.0186
11108TIP3    H254740   2.074   4.330   4.663 -1.3635  1.8106 -0.3024
11109TIP3   OH254741   2.347   0.457  13.510 -0.3868  0.7505 -0.0072
11109TIP3    H154742   2.288   0.528  13.486 -0.9989 -0.5278 -2.4818
11109TIP3    H254743   2.434   0.490  13.486 -0.4101  1.5193  0.9457
11110TIP3   OH254744   1.036   0.576  13.572 -0.7184  0.3658 -0.1324
11110TIP3    H154745   1.093   0.514  13.617 -1.1078 -0.4219 -0.7129
11110TIP3    H254746   0.963   0.523  13.541 -0.2183  0.7909 -2.1223
11111TIP3   OH254747   5.765   4.835  14.230 -0.3573  0.1758 -0.0925
11111TIP3    H154748   5.692   4.828  14.291  0.9860 -2.2416  1.3299
11111TIP3    H254749   5.736   4.789  14.151 -0.0395 -1.6679  0.8396
11112TIP3   OH254750   0.184   4.593   0.991 -0.0516  0.0909 -0.3573
11112TIP3    H154751   0.235   4.617   1.069  0.7235 -2.2657 -0.0886
11112TIP3    H254752   0.249   4.581   0.923 -0.7804  2.6893 -1.5736
11113TIP3   OH254753   3.288   3.035   5.787 -0.0212  0.0991 -0.5840
11113TIP3    H154754   3.285   2.943   5.760  1.7219 -0.5543  1.3094
11113TIP3    H254755   3.276   3.032   5.881 -1.4870  1.9627 -0.7009
11114TIP3   OH254756   0.491   2.463   4.917  0.1397 -0.1903 -0.5626
11114TIP3    H154757   0.417   2.427   4.867  0.5974 -0.3877 -1.1016
11114TIP3    H254758   0.459   2.548   4.948 -0.6579 -0.7103  0.0398
11115TIP3   OH254759   3.022   2.009   1.440 -0.0654 -0.2669  0.0540
11115TIP3    H154760   2.996   1.967   1.522 -0.7180  0.1050  0.0415
11115TIP3    H254761   3.059   1.939   1.387 -1.8295 -0.9912 -0.2571
11116TIP3   OH254762   2.529   2.700  11.182  0.1166  0.2873 -0.5218
11116TIP3    H154763   2.489   2.689  11.096 -1.1836 -0.2585  0.1460
11116TIP3    H254764   2.550   2.794  11.186  0.5056  0.2625 -1.5515
11117TIP3   OH254765   5.080   3.373  12.562  0.2394  0.0113 -0.2014
11117TIP3    H154766   5.116   3.440  12.503 -1.1340 -0.6674 -1.8664
11117TIP3    H254767   5.059   3.300  12.504 -2.1668 -0.2548  0.9530
11118TIP3   OH254768   1.032   6.492   3.821 -0.1761 -0.8110 -0.5051
11118TIP3    H154769   1.041   6.534   3.735  1.0830  0.2593  0.1247
11118TIP3    H254770   0.946   6.450   3.818 -0.4533 -0.1936 -2.0300
11119TIP3   OH254771   1.391   5.639  15.652 -0.1917 -0.0900  0.0216
11119TIP3    H154772   1.459   5.685  15.702  2.0923 -1.3727 -1.7887
11119TIP3    H254773   1.329   5.708  15.627  0.1348  1.0247  2.1339
11120TIP3   OH254774   3.980   4.705   3.975  0.3254  0.1494  0.5829
11120TIP3    H154775   3.890   4.674   3.969 -0.1477  1.7445 -0.8297
11120TIP3    H254776   3.983   4.752   4.059 -0.1823  0.1745  0.5892
11121TIP3   OH254777   5.800   0.228  11.303  0.3855 -0.6165  0.3133
11121TIP3    H154778   5.895   0.215  11.301  0.6526  1.4740 -2.0284
11121TIP3    H254779   5.770   0.201  11.216 -0.8138  1.1697  0.1517
11122TIP3   OH254780   4.690   1.894  13.985 -0.1033 -0.4272 -0.0410
11122TIP3    H154781   4.735   1.898  13.901  1.1388 -0.9143  0.5722
11122TIP3    H254782   4.727   1.816  14.028 -2.8357 -1.8713 -0.2283
11123TIP3   OH254783   0.504   1.675   4.041 -0.0098  0.0990  0.2916
11123TIP3    H154784   0.411   1.676   4.021 -0.2235 -0.7594  1.1898
11123TIP3    H254785   0.515   1.744   4.107 -0.4373 -1.3454  1.9178
11124TIP3   OH254786   5.695   5.148  13.043 -0.2388 -0.6714  0.3165
11124TIP3    H154787   5.622   5.208  13.058  0.4042  0.3274 -0.4640
11124TIP3    H254788   5.694   5.133  12.949  1.5344  0.6123  0.0798
11125TIP3   OH254789   5.271   5.359  12.485 -0.7543 -0.1431 -0.5389
11125TIP3    H154790   5.287   5.436  12.539 -0.0782 -1.1857  0.7836
11125TIP3    H254791   5.227   5.392  12.407  0.6407  1.7395 -0.5495
11126TIP3   OH254792   2.678   6.210   2.082  0.3139  0.2600  0.2064
11126TIP3    H154793   2.764   6.198   2.122  0.5623 -0.2879 -0.4839
11126TIP3    H254794   2.638   6.123   2.083 -0.0546  0.4252  0.1212
11127TIP3   OH254795   0.862   4.496  14.193  0.3842  0.5266  0.2321
11127TIP3    H154796   0.770   4.505  14.169  0.3983 -0.0208 -0.0493
11127TIP3    H254797   0.861   4.442  14.272  0.4989 -0.1077 -0.1910
11128TIP3   OH254798   0.919   5.471   3.520 -0.6309 -0.0906 -0.1660
11128TIP3    H154799   0.893   5.475   3.428  0.7227 -0.6642 -0.5773
11128TIP3    H254800   0.954   5.383   3.532 -2.0400 -0.4866  1.2434
11129TIP3   OH254801   3.805   3.578   4.574  0.3857  0.2539  0.6223
11129TIP3    H154802   3.807   3.551   4.666  1.1501 -0.3191  0.4375
11129TIP3    H254803   3.742   3.520   4.533 -0.2727  0.7848  0.8629
11130TIP3   OH254804   1.252   1.791  13.821  0.4098  0.2774 -0.1794
11130TIP3    H154805   1.276   1.884  13.828  0.6554  0.2589 -0.7914
11130TIP3    H254806   1.314   1.746  13.878 -2.2632  0.9025  3.3638
11131TIP3   OH254807   0.573   4.696   4.534  1.2140  0.0983  0.2736
11131TIP3    H154808   0.606   4.741   4.456 -0.2532  0.2312 -0.2914
11131TIP3    H254809   0.540   4.766   4.590  0.1025 -0.1683 -0.0404
11132TIP3   OH254810   5.415   1.921   3.859  0.3897 -0.3375  0.4252
11132TIP3    H154811   5.440   1.904   3.768  0.7445 -0.9223  0.6267
11132TIP3    H254812   5.356   1.996   3.855  0.5614 -0.2429 -0.2680
11133TIP3   OH254813   4.920   3.678   4.788 -0.2005  0.3249  0.0380
11133TIP3    H154814   4.918   3.647   4.697 -1.7611  1.3689 -0.3002
11133TIP3    H254815   5.013   3.687   4.808  0.1528  1.3724 -1.9095
11134TIP3   OH254816   2.202   0.830   4.229  0.3124 -0.0198  0.3108
11134TIP3    H154817   2.141   0.883   4.281 -1.1404 -1.8501  0.5405
11134TIP3    H254818   2.149   0.798   4.156  0.8771 -1.9098  0.7040
11135TIP3   OH254819   5.644   3.841  15.113  0.1937  0.5970  0.2501
11135TIP3    H154820   5.657   3.820  15.206  1.0175 -0.2694 -0.0498
11135TIP3    H254821   5.733   3.858  15.080  0.0977 -0.7499 -0.7611
11136TIP3   OH254822   4.940   3.916  14.998 -0.1931 -0.0525 -0.3787
11136TIP3    H154823   5.013   3.943  15.053  1.2378  1.1471 -2.7876
11136TIP3    H254824   4.964   3.829  14.968 -0.5259 -0.3159  0.1096
11137TIP3   OH254825   6.713   3.796  13.493  0.1093  0.0384 -0.3727
11137TIP3    H154826   6.707   3.891  13.488 -0.3040  0.1161  1.2898
11137TIP3    H254827   6.716   3.777  13.587 -0.5859 -1.6285 -0.6703
11138TIP3   OH254828   1.676   2.790  15.318  0.3712  0.1257 -0.0546
11138TIP3    H154829   1.609   2.806  15.252 -0.0201  1.0811  0.5665
11138TIP3    H254830   1.627   2.782  15.400  0.8230 -1.3801  0.0866
11139TIP3   OH254831   4.029   1.537   3.965  0.7173  0.0395  0.3604
11139TIP3    H154832   3.978   1.618   3.966  1.1177  0.2908  1.5053
11139TIP3    H254833   4.120   1.565   3.960  0.8961 -0.3095  1.4651
11140TIP3   OH254834   3.900   2.092   0.393  0.8407 -0.0394 -0.2213
11140TIP3    H154835   3.907   2.066   0.301 -0.0281 -0.1678 -0.2609
11140TIP3    H254836   3.839   2.029   0.431  1.9137 -0.5634  0.6730
11141TIP3   OH254837   3.930   0.867  12.261 -0.1860 -0.0147  0.3121
11141TIP3    H154838   4.026   0.861  12.263 -0.2586 -1.5708 -0.2125
11141TIP3    H254839   3.903   0.867  12.352  0.0753 -4.2684  0.4669
11142TIP3   OH254840   4.354   2.535  14.260 -0.4138 -0.0525 -0.2513
11142TIP3    H154841   4.418   2.590  14.216 -2.0559  1.8325 -0.3351
11142TIP3    H254842   4.319   2.478  14.191 -0.0033  0.0287 -0.5250
11143TIP3   OH254843   4.978   4.240  10.711 -0.1753  0.2125 -0.4101
11143TIP3    H154844   4.885   4.225  10.690  0.0351  0.2216 -1.3652
11143TIP3    H254845   5.019   4.155  10.697 -0.0720  0.1675  0.1846
11144TIP3   OH254846   2.677   3.644  14.492 -0.3313 -0.1854  0.1598
11144TIP3    H154847   2.738   3.685  14.553 -1.1426  0.4474  0.5540
11144TIP3    H254848   2.597   3.633  14.543 -0.4699 -1.2415 -0.2748
11145TIP3   OH254849   4.472   1.544  13.335 -0.5173  0.4185  0.0452
11145TIP3    H154850   4.389   1.498  13.320  0.6156 -1.9828  0.7649
11145TIP3    H254851   4.537   1.492  13.288  0.7534  1.6222  0.4324
11146TIP3   OH254852   1.729   0.547   2.767  0.1868 -0.5895  0.2224
11146TIP3    H154853   1.634   0.554   2.760  0.3775 -0.1490 -2.0712
11146TIP3    H254854   1.746   0.453   2.776 -0.4233 -0.7210  0.0086
11147TIP3   OH254855   6.210   6.055  11.767 -0.0507  0.3029  0.4115
11147TIP3    H154856   6.174   6.014  11.845  1.0097 -0.9874  0.2392
11147TIP3    H254857   6.301   6.076  11.791  0.5549 -0.9237 -0.7587
11148TIP3   OH254858   1.674   0.336   3.690 -0.5332  0.1775 -0.3827
11148TIP3    H154859   1.641   0.248   3.705 -1.5006  0.3380 -1.5008
11148TIP3    H254860   1.769   0.327   3.691 -0.6256 -0.7163  0.4121
11149TIP3   OH254861   2.982   0.352  16.084  0.2423  0.0805  0.5761
11149TIP3    H154862   2.998   0.297  16.160  0.4185 -1.2623 -0.4294
11149TIP3    H254863   3.061   0.405  16.075  0.8935 -0.9312  0.3393
11150TIP3   OH254864   2.895   6.757  14.766  0.8011 -0.4727 -0.2992
11150TIP3    H154865   2.850   6.839  14.785  0.5182 -0.9494  1.1098
11150TIP3    H254866   2.923   6.766  14.675 -0.3610  0.6552 -0.5580
11151TIP3   OH254867   6.255   0.267  13.984  0.7416  0.4710  0.1077
11151TIP3    H154868   6.312   0.225  13.920  0.6358 -0.4289  0.6051
11151TIP3    H254869   6.166   0.244  13.957  0.6852  0.3501  0.3943
11152TIP3   OH254870   0.270   4.669  14.790 -0.2619  0.1008  0.1565
11152TIP3    H154871   0.248   4.762  14.788 -1.8349 -0.2799 -1.9741
11152TIP3    H254872   0.366   4.667  14.785 -0.1944  1.6027  0.6169
11153TIP3   OH254873   0.419   6.228   0.479 -0.2009  0.5026 -0.0152
11153TIP3    H154874   0.504   6.212   0.520 -0.6371 -2.0549 -0.0595
11153TIP3    H254875   0.365   6.154   0.505 -1.7340  0.9219 -1.8927
11154TIP3   OH254876   5.061   5.042   4.931 -0.1425  0.4496  0.1361
11154TIP3    H154877   5.052   5.007   5.020 -3.7735 -0.1601 -0.3722
11154TIP3    H254878   5.043   5.135   4.941  0.9379  0.6501  0.2429
11155TIP3   OH254879   2.996   3.253   0.771 -0.8516 -0.0924  0.4317
11155TIP3    H154880   2.936   3.324   0.793 -0.8834  0.1230 -0.3397
11155TIP3    H254881   2.946   3.173   0.787 -1.9926  0.0979 -1.9549
11156TIP3   OH254882   0.196   2.716  10.461  0.1774  0.1016  0.4575
11156TIP3    H154883   0.289   2.732  10.443  0.3205 -0.1360  0.9930
11156TIP3    H254884   0.151   2.785  10.412  0.8172  2.5625  3.2159
11157TIP3   OH254885   4.699   0.961  13.897  0.2773 -0.5339  0.3652
11157TIP3    H154886   4.717   1.055  13.893 -0.7275 -0.2981  1.2197
11157TIP3    H254887   4.742   0.926  13.819  1.9897  0.4030  0.8501
11158TIP3   OH254888   6.742   5.615   5.843  0.1991 -0.1588  0.1651
11158TIP3    H154889   6.696   5.534   5.821 -0.0185 -0.1956  0.7545
11158TIP3    H254890   6.832   5.600   5.813  0.0539 -0.4461 -0.1314
11159TIP3   OH254891   2.769   6.123  15.938 -0.3402  0.4345 -0.1957
11159TIP3    H154892   2.724   6.187  15.993 -0.8604  0.2479 -0.3975
11159TIP3    H254893   2.862   6.144  15.947 -0.4590  0.7207  0.3512
11160TIP3   OH254894   5.943   1.004  14.534 -0.2968 -0.2801  0.0289
11160TIP3    H154895   5.884   0.971  14.601 -1.3007  1.3969 -0.0039
11160TIP3    H254896   6.020   1.035  14.582 -0.5126 -0.1561  0.2926
11161TIP3   OH254897   0.185   4.710   2.325  0.3889 -0.1975  0.0753
11161TIP3    H154898   0.119   4.647   2.298  0.3821 -0.4197  0.6006
11161TIP3    H254899   0.161   4.791   2.281  1.9365 -1.2097 -2.8108
11162TIP3   OH254900   1.859   0.349  15.575  0.5061  0.4047  0.0027
11162TIP3    H154901   1.931   0.375  15.518  0.6798  1.7308  0.8236
11162TIP3    H254902   1.898   0.287  15.637  1.3644  2.4167  1.5331
11163TIP3   OH254903   0.526   1.878   3.204 -0.4468  0.3437  0.6284
11163TIP3    H154904   0.433   1.864   3.222 -0.1331 -0.7000  1.4914
11163TIP3    H254905   0.545   1.821   3.130 -0.6141  0.9788  0.0890
11164TIP3   OH254906   0.378   0.525  17.182  0.2670 -0.6506  0.2047
11164TIP3    H154907   0.467   0.506  17.153  0.5932  0.0169  0.7469
11164TIP3    H254908   0.325   0.520  17.103  1.3590  2.6003 -0.8210
11165TIP3   OH254909   0.250   2.422   6.526  0.2740 -0.1704 -0.1382
11165TIP3    H154910   0.192   2.424   6.602 -1.1231  1.9764 -1.2083
11165TIP3    H254911   0.224   2.344   6.478 -0.5494 -0.1730  0.3055
11166TIP3   OH254912   4.489   6.463  16.976  0.0004 -0.2245  0.6347
11166TIP3    H154913   4.534   6.378  16.983  0.5663  0.0592  0.4302
11166TIP3    H254914   4.410   6.444  16.924 -0.0555 -0.6993  0.8912
11167TIP3   OH254915   1.396   5.976  13.915  0.7097  0.1696 -0.2954
11167TIP3    H154916   1.330   6.038  13.946 -0.9715 -1.7157  0.0598
11167TIP3    H254917   1.479   6.013  13.944 -0.3152  1.8531  0.5875
11168TIP3   OH254918   4.850   3.865  15.797 -0.0726  0.1884  0.0054
11168TIP3    H154919   4.843   3.943  15.741  1.8255  0.3677 -0.0085
11168TIP3    H254920   4.759   3.840  15.814 -0.7244  2.7926  0.5641
11169TIP3   OH254921   4.022   4.019  11.475  0.3420  0.0994 -0.3669
11169TIP3    H154922   4.019   4.110  11.505  0.2984 -0.1242  0.3155
11169TIP3    H254923   3.930   3.994  11.466  0.3551  0.2713 -1.0264
11170TIP3   OH254924   6.082   1.499   3.470 -0.0062  0.0957  0.3694
11170TIP3    H154925   6.173   1.491   3.497  0.0425  0.9831  0.4779
11170TIP3    H254926   6.086   1.534   3.381 -0.1757 -2.4341 -0.6796
11171TIP3   OH254927   3.752   2.837  14.162  0.2036  0.2680  0.0961
11171TIP3    H154928   3.744   2.748  14.197 -1.6721  0.9403  1.4346
11171TIP3    H254929   3.775   2.891  14.237  1.2040  0.9463 -0.6867
11172TIP3   OH254930   0.893   5.943   0.808 -0.5204  0.0544 -0.0265
11172TIP3    H154931   0.885   5.970   0.717  0.8263  0.7505  0.0543
11172TIP3    H254932   0.833   6.000   0.855 -1.5523 -0.6004 -0.5127
11173TIP3   OH254933   5.437   4.414   5.602 -0.8135  0.1587 -0.7739
11173TIP3    H154934   5.455   4.367   5.683 -1.1748 -0.5825 -1.1250
11173TIP3    H254935   5.342   4.419   5.598 -0.7757  1.3714 -0.4815
11174TIP3   OH254936   3.758   1.953   0.184 -0.9380 -0.2832  0.2683
11174TIP3    H154937   3.743   1.863   0.157  1.3196 -0.9259  1.0802
11174TIP3    H254938   3.766   1.949   0.279 -0.5825  0.7428  0.2930
11175TIP3   OH254939   3.956   4.668   3.532  0.0940 -0.4688 -0.1409
11175TIP3    H154940   4.031   4.719   3.501 -0.4916  1.1690  1.0699
11175TIP3    H254941   3.987   4.577   3.532  1.2801 -0.1046 -1.9581
11176TIP3   OH254942   1.639   2.204   5.581  0.5505 -0.2634  0.3589
11176TIP3    H154943   1.603   2.171   5.663  0.4335 -1.8407 -0.3158
11176TIP3    H254944   1.733   2.215   5.599  0.7957 -2.0187  0.2849
11177TIP3   OH254945   4.381   0.384  14.410 -0.2200  0.6090 -0.2511
11177TIP3    H154946   4.339   0.405  14.327 -0.3882 -1.5528 -0.7412
11177TIP3    H254947   4.357   0.293  14.427  1.9239  0.2212  0.8949
11178TIP3   OH254948   4.375   0.604   2.953  0.1836  0.1623 -0.1488
11178TIP3    H154949   4.416   0.685   2.981  1.7747  0.0489 -2.1177
11178TIP3    H254950   4.305   0.590   3.017  1.1738  2.0066  1.3862
11179TIP3   OH254951   1.784   5.906   1.780 -0.0513  0.3171  0.4085
11179TIP3    H154952   1.843   5.879   1.710  0.7532  0.2372  1.1104
11179TIP3    H254953   1.745   5.987   1.748  1.1821  0.8981  0.3480
11180TIP3   OH254954   0.226   5.522   5.350  0.0820 -0.1744  0.2605
11180TIP3    H154955   0.287   5.486   5.414  1.4464  0.6034 -0.6040
11180TIP3    H254956   0.213   5.451   5.287  0.9806  0.0417 -0.1748
11181TIP3   OH254957   3.650   4.269   6.861  0.0751  0.2263 -0.5612
11181TIP3    H154958   3.729   4.258   6.808 -0.5427 -0.3644 -1.3620
11181TIP3    H254959   3.650   4.362   6.885  0.3921  0.4845 -1.5426
11182TIP3   OH254960   3.631   1.416   1.128 -0.0312  0.0453 -0.1026
11182TIP3    H154961   3.647   1.484   1.062  1.8787  0.1176  0.4334
11182TIP3    H254962   3.597   1.463   1.204  0.8973  0.3621  0.1209
11183TIP3   OH254963   2.602   1.421  12.635 -0.1100 -0.3315  0.1502
11183TIP3    H154964   2.666   1.360  12.671 -1.2852 -1.6189  0.1297
11183TIP3    H254965   2.518   1.375  12.643 -0.7593  0.4498 -1.7466
11184TIP3   OH254966   1.192   6.080  15.482  0.1798 -0.2195 -0.8321
11184TIP3    H154967   1.270   6.027  15.498  0.1729  0.0454  0.1137
11184TIP3    H254968   1.202   6.111  15.392  1.8347  0.9157 -0.2817
11185TIP3   OH254969   3.846   4.698  14.141 -0.2652 -0.1098 -0.4378
11185TIP3    H154970   3.939   4.705  14.121 -0.0862 -0.3652  0.3022
11185TIP3    H254971   3.825   4.777  14.190  0.0382 -1.0294  1.2156
11186TIP3   OH254972   2.820   4.286  12.632  0.8921  0.0453  0.4419
11186TIP3    H154973   2.819   4.381  12.619 -1.8953 -0.1137 -0.7752
11186TIP3    H254974   2.746   4.254  12.581  1.1552 -2.6775  1.6993
11187TIP3   OH254975   1.141   3.545   4.756 -0.3623  0.1149 -0.0489
11187TIP3    H154976   1.124   3.542   4.850 -0.4192 -2.3165 -0.1038
11187TIP3    H254977   1.069   3.597   4.720 -1.0889 -0.0786  1.1103
11188TIP3   OH254978   0.824   3.139   0.370  0.2267 -0.3951  1.1166
11188TIP3    H154979   0.822   3.235   0.371 -0.1387 -0.4000  0.7604
11188TIP3    H254980   0.798   3.113   0.459 -3.0217 -0.2330  0.2598
11189TIP3   OH254981   4.988   0.507   3.426  0.0114 -0.2615 -0.0886
11189TIP3    H154982   4.960   0.419   3.450  0.8720 -0.5903 -0.2469
11189TIP3    H254983   5.080   0.496   3.401 -0.1026  0.5443 -0.8679
11190TIP3   OH254984   4.601   4.879   5.978  0.4282  0.0921  0.3075
11190TIP3    H154985   4.619   4.884   6.072 -0.6837  0.6831  0.4992
11190TIP3    H254986   4.579   4.787   5.963  1.5602 -0.2143  0.4339
11191TIP3   OH254987   1.806   2.879  11.940 -0.7642 -0.6667 -0.6056
11191TIP3    H154988   1.843   2.793  11.963 -0.6885 -0.5025 -0.1177
11191TIP3    H254989   1.881   2.927  11.904 -0.2396  0.0424  1.3827
11192TIP3   OH254990   2.403   5.871   1.337  0.2546  0.3168 -0.0578
11192TIP3    H154991   2.423   5.796   1.393  0.4352  1.2490  1.1413
11192TIP3    H254992   2.477   5.877   1.277  1.0558  0.5685  0.9531
11193TIP3   OH254993   4.442   1.568   4.606 -0.0740 -0.2591  0.4645
11193TIP3    H154994   4.465   1.646   4.657 -2.4577 -0.9019  2.5821
11193TIP3    H254995   4.506   1.502   4.633 -0.0911  0.0028  1.1617
11194TIP3   OH254996   0.427   3.182  11.366 -0.9904 -0.4597  0.0431
11194TIP3    H154997   0.430   3.190  11.271 -0.8153  1.5903  0.2000
11194TIP3    H254998   0.337   3.205  11.390 -0.5538  0.8095  0.5040
11195TIP3   OH254999   0.696   3.300   2.568 -0.1567  0.0056  0.2178
11195TIP3    H155000   0.640   3.367   2.608 -0.5838 -0.2672  0.0817
11195TIP3    H255001   0.776   3.302   2.620  0.8259  2.3259 -1.2602
11196TIP3   OH255002   4.647   5.393   0.021  0.5027 -0.0255  0.9098
11196TIP3    H155003   4.696   5.386   0.103 -1.4038 -0.3228  2.0521
11196TIP3    H255004   4.565   5.345   0.038  0.3023 -0.5191 -1.3339
11197TIP3   OH255005   6.190   3.393  12.643  0.0212  0.0904 -0.8253
11197TIP3    H155006   6.227   3.444  12.715 -0.4222 -0.4930 -0.1685
11197TIP3    H255007   6.252   3.321  12.631 -2.6298 -2.9879  2.7388
11198TIP3   OH255008   2.381   6.715  14.258  0.4368  0.8035  0.0332
11198TIP3    H155009   2.392   6.682  14.169 -0.1504 -0.3884  0.4059
11198TIP3    H255010   2.379   6.811  14.248 -0.5988  0.6387 -1.3231
11199TIP3   OH255011   1.630   1.035   4.989  0.2077  0.1630 -0.3930
11199TIP3    H155012   1.609   0.959   5.042  0.1663  1.0863  0.9320
11199TIP3    H255013   1.725   1.032   4.977  0.2597  0.1506  0.0378
11200TIP3   OH255014   5.887   3.805   5.446  1.0052  0.5018  0.0917
11200TIP3    H155015   5.931   3.823   5.363  0.2808  1.3291 -0.1268
11200TIP3    H255016   5.805   3.854   5.440  1.3160  1.2235  1.6265
11201TIP3   OH255017   4.176   1.370   3.550 -0.0437  0.5807 -0.5092
11201TIP3    H155018   4.196   1.460   3.524 -0.7368  0.8878  0.0016
11201TIP3    H255019   4.244   1.317   3.508 -0.0229  1.2659 -1.3493
11202TIP3   OH255020   6.394   0.047   0.332 -0.4711  0.0359  0.0827
11202TIP3    H155021   6.446  -0.008   0.274 -1.4946 -0.4441 -0.3986
11202TIP3    H255022   6.408   0.010   0.419  2.6468  1.9805  0.4513
11203TIP3   OH255023   4.647   4.560  11.855 -0.5907 -1.2474 -0.3801
11203TIP3    H155024   4.639   4.629  11.921 -3.1546 -2.0897  0.2297
11203TIP3    H255025   4.730   4.579  11.811  0.7659 -0.1844  2.5094
11204TIP3   OH255026   5.121   6.411   2.009 -0.1864  0.1171  0.1021
11204TIP3    H155027   5.042   6.359   1.996  0.0059 -0.2085  0.2163
11204TIP3    H255028   5.134   6.455   1.925  0.4865 -1.2004 -0.4976
11205TIP3   OH255029   1.778   5.764   4.342 -0.2500 -0.0268  0.0462
11205TIP3    H155030   1.728   5.704   4.395 -1.3115 -0.0847 -1.0074
11205TIP3    H255031   1.760   5.851   4.379  0.2189 -0.2150  0.7184
11206TIP3   OH255032   6.176   3.076   1.329 -0.0819  0.3806 -0.1375
11206TIP3    H155033   6.191   3.033   1.245  1.5102  2.2666 -0.8630
11206TIP3    H255034   6.132   3.158   1.307  1.3735  1.4279  0.7476
11207TIP3   OH255035   5.764   1.320  13.520 -0.2425 -0.1458  0.2193
11207TIP3    H155036   5.791   1.381  13.451  1.7729  0.0024  1.1221
11207TIP3    H255037   5.704   1.371  13.574  0.2937  0.5909  0.1289
11208TIP3   OH255038   3.927   5.705  13.610  0.2449 -0.1997  0.3136
11208TIP3    H155039   3.880   5.655  13.544 -0.0724  0.4718  0.0291
11208TIP3    H255040   3.918   5.653  13.690 -0.2266 -0.5026  0.0650
11209TIP3   OH255041   4.632   5.981  16.029  0.6524  0.4162  0.6281
11209TIP3    H155042   4.698   5.976  15.960  0.1584 -1.3625  0.2420
11209TIP3    H255043   4.681   6.005  16.108  1.4092  1.2755 -0.1019
11210TIP3   OH255044   2.471   3.976  12.655 -0.2889  0.2530  0.0486
11210TIP3    H155045   2.556   3.932  12.658 -0.4578  0.0357  1.8218
11210TIP3    H255046   2.411   3.910  12.619 -0.1741 -0.3733  0.9925
11211TIP3   OH255047   3.615   0.916  14.740 -0.0775  0.0583  0.2335
11211TIP3    H155048   3.675   0.870  14.681  1.7609  2.0321  0.5276
11211TIP3    H255049   3.646   0.893  14.828 -0.7108 -0.1460  0.4062
11212TIP3   OH255050   6.490   3.755   1.509  0.3082 -0.0209  0.6550
11212TIP3    H155051   6.514   3.847   1.500 -0.8853 -0.0035 -3.5638
11212TIP3    H255052   6.566   3.707   1.477  0.9746 -0.5634  2.9597
11213TIP3   OH255053   5.533   5.463   2.872  0.3440  0.1291 -0.2942
11213TIP3    H155054   5.539   5.395   2.805 -0.2953 -1.3067  1.0848
11213TIP3    H255055   5.624   5.481   2.896  0.5310  0.0047 -0.8917
11214TIP3   OH255056   4.991   3.433  13.295 -0.4444 -0.0246  0.1944
11214TIP3    H155057   5.014   3.485  13.219 -0.9895  0.0961  0.1087
11214TIP3    H255058   5.029   3.480  13.369  0.5988 -0.4603 -0.0561
11215TIP3   OH255059   2.398   4.019   2.425 -0.1175 -0.4452  0.4027
11215TIP3    H155060   2.430   4.050   2.341 -1.4751  1.3072  0.5021
11215TIP3    H255061   2.307   3.993   2.408 -0.5430  0.3619  1.4279
11216TIP3   OH255062   2.989   6.511  11.102  0.0653 -0.0294  0.0163
11216TIP3    H155063   3.084   6.514  11.108 -0.0133  1.8885  0.6892
11216TIP3    H255064   2.959   6.533  11.190 -1.0028  0.6945 -0.5178
11217TIP3   OH255065   0.511   0.784   3.994  0.0055  0.0146 -0.0459
11217TIP3    H155066   0.459   0.829   3.927  0.0317 -1.3932 -1.0358
11217TIP3    H255067   0.536   0.853   4.055  0.5485  1.4776 -1.8554
11218TIP3   OH255068   3.852   2.405  12.255 -0.3259 -0.3852  0.5024
11218TIP3    H155069   3.912   2.335  12.282 -0.9455 -2.1564 -2.4705
11218TIP3    H255070   3.898   2.449  12.183  0.4532  2.9417  2.9240
11219TIP3   OH255071   2.229   3.834   4.864  0.3501  0.2502 -0.7510
11219TIP3    H155072   2.324   3.848   4.866  0.5114 -0.2725 -3.5674
11219TIP3    H255073   2.219   3.741   4.843 -0.7740  0.8044 -2.7564
11220TIP3   OH255074   0.792   0.708  11.337 -0.2572  0.6558  0.2434
11220TIP3    H155075   0.870   0.756  11.366 -0.0983  0.4588  0.1484
11220TIP3    H255076   0.821   0.617  11.332 -0.1278  0.7559 -1.0704
11221TIP3   OH255077   3.176   2.983  14.879  0.2233  0.0312  0.7567
11221TIP3    H155078   3.133   2.975  14.964 -1.6308  1.0306 -0.0503
11221TIP3    H255079   3.254   2.928  14.886 -1.8208 -2.8656  1.8389
11222TIP3   OH255080   4.039   6.110  14.806 -0.1344  0.1954  0.3318
11222TIP3    H155081   3.964   6.073  14.759  0.7655 -0.8453 -0.2898
11222TIP3    H255082   4.116   6.071  14.765  0.7336  0.5933  1.5306
11223TIP3   OH255083   4.526   6.483   5.987 -0.1311 -0.6605  0.2504
11223TIP3    H155084   4.609   6.444   6.012  0.5666  1.8525  2.1504
11223TIP3    H255085   4.465   6.455   6.056  0.1019  0.6040  0.9914
11224TIP3   OH255086   3.179   3.699   1.231 -0.2433 -0.0955 -0.2098
11224TIP3    H155087   3.274   3.685   1.235  0.0206  1.7568  0.5207
11224TIP3    H255088   3.148   3.676   1.319 -0.6425 -1.7766 -0.7778
11225TIP3   OH255089   5.625   5.657  13.659  0.0162 -0.5404  0.0478
11225TIP3    H155090   5.680   5.697  13.727  3.2550  0.5617 -3.0915
11225TIP3    H255091   5.646   5.563  13.664  0.4667 -0.4258  0.3719
11226TIP3   OH255092   6.163   3.584  16.031 -0.4538  0.6364 -0.2299
11226TIP3    H155093   6.123   3.613  16.112 -0.6483  0.6320 -0.3274
11226TIP3    H255094   6.167   3.489  16.039 -0.4904  0.6349 -0.2351
11227TIP3   OH255095   2.884   0.113   3.755 -0.1349  0.6482  0.7150
11227TIP3    H155096   2.795   0.149   3.750 -0.1602  0.5464  0.4300
11227TIP3    H255097   2.875   0.022   3.728 -0.0170  0.5137  1.1325
11228TIP3   OH255098   2.192   3.187  12.799 -0.1154 -0.1338 -0.2470
11228TIP3    H155099   2.212   3.260  12.857 -1.0419  1.1636 -1.5333
11228TIP3    H255100   2.106   3.156  12.827  0.2610 -0.7241  0.2757
11229TIP3   OH255101   5.158   2.497  14.232 -0.3927  1.0861  0.2599
11229TIP3    H155102   5.129   2.490  14.323  0.6042 -0.8990  0.4588
11229TIP3    H255103   5.230   2.560  14.234 -1.1308  1.9093  0.6643
11230TIP3   OH255104   2.938   6.208   3.381  0.2454  0.0464 -0.2339
11230TIP3    H155105   2.964   6.233   3.469  0.9872  0.5824 -0.6061
11230TIP3    H255106   2.853   6.165   3.393  0.3046  0.1854  0.7287
11231TIP3   OH255107   6.077   3.041  11.682  0.2183 -0.4648  0.6605
11231TIP3    H155108   6.136   3.068  11.753 -0.5045  0.3438  0.9543
11231TIP3    H255109   6.100   3.097  11.609 -0.7293  0.4245  1.0248
11232TIP3   OH255110   2.256   6.252   1.453 -0.4375 -0.5256  0.4561
11232TIP3    H155111   2.186   6.195   1.484  0.2463 -1.5696  0.0924
11232TIP3    H255112   2.272   6.224   1.363 -0.6650  0.7922 -0.0058
11233TIP3   OH255113   3.881   5.854  15.403  0.2554  0.3999 -0.3999
11233TIP3    H155114   3.845   5.941  15.388  2.0379  0.8573 -2.4556
11233TIP3    H255115   3.938   5.864  15.479  0.7771  1.1694 -0.8777
11234TIP3   OH255116   5.829   4.072   5.074  0.0595  0.2908  0.4417
11234TIP3    H155117   5.788   4.150   5.113 -1.5141  0.0754 -0.7324
11234TIP3    H255118   5.922   4.092   5.075 -0.3431  2.3635 -0.1647
11235TIP3   OH255119   5.068   5.957   5.654 -0.1002 -0.0730 -0.1125
11235TIP3    H155120   5.033   5.999   5.575  1.2874  0.2164 -0.5814
11235TIP3    H255121   5.040   6.014   5.725 -1.5933 -0.4803 -0.3564
11236TIP3   OH255122   5.317   4.198  11.787 -0.1803 -0.3206  0.2198
11236TIP3    H155123   5.381   4.222  11.855 -2.8614  3.8191  1.5309
11236TIP3    H255124   5.359   4.224  11.705  0.7418  0.2148  0.8436
11237TIP3   OH255125   0.104   0.835  13.346  0.5234  0.6086  0.2926
11237TIP3    H155126   0.029   0.866  13.295  1.1668  0.0873 -0.9857
11237TIP3    H255127   0.101   0.739  13.339  1.4375  0.5892  0.0356
11238TIP3   OH255128   5.776   1.512   2.944  0.1499  0.3183  0.2855
11238TIP3    H155129   5.711   1.575   2.974  0.9298  0.1901  2.3499
11238TIP3    H255130   5.859   1.559   2.946  0.7514 -0.7515  1.9290
11239TIP3   OH255131   4.201   1.307   5.636  0.5191 -0.2321 -0.7529
11239TIP3    H155132   4.277   1.264   5.674  0.2527  0.8026  1.0163
11239TIP3    H255133   4.156   1.239   5.587  0.4674 -1.8313  1.4401
11240TIP3   OH255134   1.961   1.858   3.985 -0.2267 -0.6378  0.0634
11240TIP3    H155135   2.008   1.775   3.987  2.4372  0.8330  0.8921
11240TIP3    H255136   2.019   1.917   3.937 -2.2652  0.6617 -0.8751
11241TIP3   OH255137   5.753   3.817  17.149 -0.2224 -0.4891  0.1597
11241TIP3    H155138   5.700   3.857  17.080 -1.3672 -0.0736  1.2770
11241TIP3    H255139   5.799   3.890  17.190  1.2123 -0.8411 -0.7763
11242TIP3   OH255140   1.574   6.555   3.977 -0.0817 -0.1223  0.7296
11242TIP3    H155141   1.566   6.488   3.908 -0.1610  0.4597  0.1697
11242TIP3    H255142   1.483   6.579   3.996 -0.0682 -0.4128  1.1715
11243TIP3   OH255143   4.533   3.658  12.771  0.2425 -0.5948  0.6379
11243TIP3    H155144   4.570   3.731  12.820  1.0942 -1.0277  0.6491
11243TIP3    H255145   4.485   3.700  12.699  0.5567 -0.0198  0.7555
11244TIP3   OH255146   5.269   2.260   4.612 -0.3540  0.2481  0.2350
11244TIP3    H155147   5.308   2.301   4.535 -1.1635  0.1563 -0.2304
11244TIP3    H255148   5.216   2.329   4.652 -2.0941 -0.4341 -0.8117
11245TIP3   OH255149   0.640   1.313   4.200  0.5456  0.8482 -0.0577
11245TIP3    H155150   0.557   1.343   4.237  0.1918  1.1920 -1.0990
11245TIP3    H255151   0.684   1.267   4.272 -1.3194 -0.8772  0.0233
11246TIP3   OH255152   6.484   1.508   3.162 -0.6188  0.7027 -0.6802
11246TIP3    H155153   6.512   1.421   3.136 -1.2449  0.5400 -0.8083
11246TIP3    H255154   6.556   1.541   3.215 -0.2825  0.1972 -0.8187
11247TIP3   OH255155   0.111   6.668   2.353 -0.8116 -0.2799 -0.2042
11247TIP3    H155156   0.078   6.757   2.361  0.4875  0.2816 -0.9924
11247TIP3    H255157   0.036   6.612   2.375 -0.9986  1.0082  2.6094
11248TIP3   OH255158   6.030   6.533  15.114 -0.5424  0.0621  0.4253
11248TIP3    H155159   5.991   6.602  15.061  1.0682  0.5378 -0.1756
11248TIP3    H255160   5.984   6.538  15.198 -1.7146  0.6387 -0.2495
11249TIP3   OH255161   4.056   4.401   3.535 -0.4145 -0.2850 -0.9362
11249TIP3    H155162   4.151   4.404   3.545 -0.5807  0.5882  0.4602
11249TIP3    H255163   4.030   4.321   3.581 -0.4706  0.0687 -0.3537
11250TIP3   OH255164   5.516   3.609   4.173  0.1108 -0.3709  0.6648
11250TIP3    H155165   5.554   3.578   4.256  0.9027 -0.5438  0.2477
11250TIP3    H255166   5.453   3.541   4.149  0.9764 -1.0837  0.3647
11251TIP3   OH255167   3.128   1.924  12.037  0.2654  0.7187 -0.2464
11251TIP3    H155168   3.037   1.897  12.030  0.4231 -0.0881  0.5995
11251TIP3    H255169   3.128   1.991  12.106 -0.0518  2.5718 -1.9985
11252TIP3   OH255170   4.217   6.674   5.085  0.4449  0.0272  0.0524
11252TIP3    H155171   4.241   6.582   5.075 -0.2774 -0.1458 -0.0880
11252TIP3    H255172   4.290   6.713   5.134  0.1793 -0.8719  1.1628
11253TIP3   OH255173   5.811   6.715   1.087  0.4984 -0.1122  0.1879
11253TIP3    H155174   5.796   6.686   0.997  1.0237 -0.3384  0.1777
11253TIP3    H255175   5.858   6.643   1.129 -0.0659 -0.1558  0.7466
11254TIP3   OH255176   2.629   2.450  15.657  0.0391  0.3594  0.2302
11254TIP3    H155177   2.635   2.362  15.620  1.4137  0.7583 -0.5431
11254TIP3    H255178   2.591   2.502  15.587  1.2227  0.8035 -0.1023
11255TIP3   OH255179   3.494   4.378   4.317 -0.3711 -0.6405 -0.0929
11255TIP3    H155180   3.434   4.357   4.246 -1.0952  0.0129  0.3196
11255TIP3    H255181   3.521   4.468   4.301  1.0092 -1.1363 -0.6307
11256TIP3   OH255182   2.961   6.447   2.724 -0.3020  0.0817 -0.3741
11256TIP3    H155183   2.874   6.487   2.729 -1.1214 -1.5100 -1.6444
11256TIP3    H255184   2.953   6.366   2.773  1.1560  1.0683  1.5549
11257TIP3   OH255185   4.279   6.575   4.357  0.4771 -0.3233  0.1982
11257TIP3    H155186   4.233   6.659   4.349 -1.4556 -1.4351 -0.5175
11257TIP3    H255187   4.301   6.570   4.450  1.9388  1.6484 -0.0030
11258TIP3   OH255188   3.218   1.948   2.643  0.2049 -0.1242 -0.0414
11258TIP3    H155189   3.158   1.953   2.718 -0.8169 -1.3486 -0.7757
11258TIP3    H255190   3.228   2.039   2.615  0.1926  0.2929  1.2549
11259TIP3   OH255191   0.243   6.710   1.492 -0.0783 -0.0663  0.4221
11259TIP3    H155192   0.191   6.713   1.573 -1.5132  1.0999 -0.5239
11259TIP3    H255193   0.237   6.798   1.456 -0.7430 -0.9742 -1.7638
11260TIP3   OH255194   5.722   5.567  11.316  0.0725  0.0022  0.1952
11260TIP3    H155195   5.633   5.576  11.282  0.4602 -0.9653 -1.1456
11260TIP3    H255196   5.758   5.655  11.313 -0.3200  0.1392 -0.7653
11261TIP3   OH255197   1.889   4.881  12.975 -0.6042 -0.5092 -0.2532
11261TIP3    H155198   1.909   4.967  13.011  0.0914 -0.8008  0.0683
11261TIP3    H255199   1.801   4.861  13.008 -0.2111 -0.5185  0.8141
11262TIP3   OH255200   0.051   4.197   1.742  0.7212 -0.1334  0.3165
11262TIP3    H155201   0.008   4.112   1.742 -1.2909  0.8543 -1.2752
11262TIP3    H255202   0.005   4.248   1.809  0.2439  0.5300 -0.5159
11263TIP3   OH255203   1.667   0.922  14.338 -1.0977 -0.4326  0.2374
11263TIP3    H155204   1.711   0.868  14.404 -2.5249 -0.4025  1.2200
11263TIP3    H255205   1.691   1.012  14.362  0.5752 -0.5559 -0.8918
11264TIP3   OH255206   2.956   1.133  15.645  0.0593  0.4769 -0.3409
11264TIP3    H155207   2.931   1.041  15.640  0.0655  0.4320  0.3693
11264TIP3    H255208   3.041   1.132  15.689  0.3440  0.7786 -0.8812
11265TIP3   OH255209   3.410   6.315   6.468  0.4682  0.4865  0.2455
11265TIP3    H155210   3.443   6.226   6.453  0.2140  0.6039 -1.1001
11265TIP3    H255211   3.316   6.308   6.454  0.4127  0.9160  0.4110
11266TIP3   OH255212   1.472   4.431  11.493 -0.1632 -0.1476 -0.4387
11266TIP3    H155213   1.464   4.340  11.465  0.5277 -0.4537  0.3232
11266TIP3    H255214   1.382   4.458  11.513 -0.2691 -0.9610  0.2291
11267TIP3   OH255215   5.696   6.521   3.303 -0.1702  0.5330  0.6399
11267TIP3    H155216   5.690   6.434   3.265  0.4339  0.9299 -0.3832
11267TIP3    H255217   5.736   6.508   3.388 -2.9516 -0.5614  1.8387
11268TIP3   OH255218   2.305   5.490  12.286  0.3788 -0.0103  0.0328
11268TIP3    H155219   2.224   5.470  12.240 -0.8418  0.6857  1.8273
11268TIP3    H255220   2.294   5.580  12.317  2.2429  0.4447 -0.5158
11269TIP3   OH255221   1.256   6.624   1.504  0.3021 -0.6521 -0.3577
11269TIP3    H155222   1.344   6.591   1.489  0.3077 -0.8545  0.1340
11269TIP3    H255223   1.263   6.677   1.583 -0.2853 -1.6780  0.3810
11270TIP3   OH255224   0.527   2.530   0.541 -0.7018  0.1713  0.0404
11270TIP3    H155225   0.612   2.536   0.499 -0.1209 -3.0462  0.6533
11270TIP3    H255226   0.545   2.542   0.634 -1.5048  3.5573 -0.1709
11271TIP3   OH255227   6.001   4.897   1.298 -0.6262 -0.8770 -0.4429
11271TIP3    H155228   6.045   4.846   1.230 -0.8098 -0.6900 -0.7059
11271TIP3    H255229   5.932   4.840   1.330 -0.1086 -1.2178  0.0597
11272TIP3   OH255230   4.889   6.588   2.740 -0.5312 -0.3662 -0.0262
11272TIP3    H155231   4.899   6.543   2.657 -3.0891 -0.7295 -0.1849
11272TIP3    H255232   4.964   6.560   2.792  0.7926 -0.5457 -2.0142
11273TIP3   OH255233   4.823   2.456  12.043  0.4139  0.5746  0.1945
11273TIP3    H155234   4.824   2.540  11.998  0.2096 -0.0333 -0.9537
11273TIP3    H255235   4.738   2.453  12.087 -0.1190  0.4041 -0.8437
11274TIP3   OH255236   2.872   1.554   4.494 -0.0268  0.3704 -0.2607
11274TIP3    H155237   2.951   1.565   4.441 -0.2110 -0.2816 -0.6743
11274TIP3    H255238   2.874   1.627   4.556  0.3352  0.9737 -0.9799
11275TIP3   OH255239   3.367   6.201   2.040  0.1063  0.1946  0.8677
11275TIP3    H155240   3.447   6.214   2.091  0.8250 -0.7254 -0.0096
11275TIP3    H255241   3.397   6.167   1.956 -1.1767  0.3105  0.3450
11276TIP3   OH255242   4.346   5.365  16.094  0.5661 -0.2345  0.4089
11276TIP3    H155243   4.343   5.398  16.184 -1.0594 -1.1066  0.7011
11276TIP3    H255244   4.379   5.275  16.103 -1.8554 -1.1509  0.4157
11277TIP3   OH255245   6.085   0.525  15.753 -0.1225  0.4238  0.3563
11277TIP3    H155246   6.023   0.464  15.792 -0.6436  0.3504 -0.5540
11277TIP3    H255247   6.160   0.526  15.813  0.4727 -2.1369 -0.2837
11278TIP3   OH255248   3.331   0.961   0.239 -0.2875  0.0857  0.1455
11278TIP3    H155249   3.321   0.904   0.316  0.2249  1.3571  1.1849
11278TIP3    H255250   3.245   0.960   0.197 -0.6402 -0.4456  0.8614
11279TIP3   OH255251   2.373   0.616  15.688 -0.2398  0.5213  0.6323
11279TIP3    H155252   2.300   0.557  15.703  1.4058 -1.5610  0.7914
11279TIP3    H255253   2.443   0.583  15.745  1.7606  0.6731 -1.6637
11280TIP3   OH255254   0.524   6.261   6.620  0.0841  0.6949  0.5490
11280TIP3    H155255   0.582   6.289   6.549 -0.9537  3.0832  0.5716
11280TIP3    H255256   0.579   6.262   6.699  0.2679  1.9989  0.4143
11281TIP3   OH255257   1.890   1.574  16.088  0.0658 -0.5842  0.2729
11281TIP3    H155258   1.984   1.567  16.105 -0.0566  1.8040  2.4423
11281TIP3    H255259   1.856   1.486  16.102  1.7004 -1.0351  1.6330
11282TIP3   OH255260   4.218   2.773  14.305  0.6250 -0.3538  1.6029
11282TIP3    H155261   4.255   2.855  14.273 -0.9070 -0.4700 -0.5253
11282TIP3    H255262   4.291   2.711  14.303  0.6634 -0.2565 -1.3520
11283TIP3   OH255263   2.820   3.737   6.208  0.3312  0.2682  0.3810
11283TIP3    H155264   2.805   3.671   6.275 -0.1349  0.3523  0.3587
11283TIP3    H255265   2.808   3.821   6.253 -0.4227  0.3169  0.0844
11284TIP3   OH255266   6.508   5.965   3.608 -0.3283 -0.1306 -0.0522
11284TIP3    H155267   6.545   6.032   3.666 -1.3227  0.6570 -0.3206
11284TIP3    H255268   6.545   5.984   3.522  0.7422 -0.9875  0.1996
11285TIP3   OH255269   1.141   5.829  12.653  0.4992 -0.1316 -0.1373
11285TIP3    H155270   1.086   5.757  12.683  1.1004 -0.3541  0.4546
11285TIP3    H255271   1.100   5.859  12.572  1.4308 -2.5716 -1.5912
11286TIP3   OH255272   0.645   3.973  17.024 -1.0884  0.7220  0.2123
11286TIP3    H155273   0.606   3.887  17.040  0.3509 -0.0804 -0.5455
11286TIP3    H255274   0.678   4.001  17.109  1.3163 -0.9284 -0.1484
11287TIP3   OH255275   1.342   5.530   2.019 -0.3170 -0.4443  1.0999
11287TIP3    H155276   1.414   5.479   1.982 -0.0857 -0.4695  1.5802
11287TIP3    H255277   1.377   5.619   2.027 -1.3157  0.2043 -1.4436
11288TIP3   OH255278   4.155   5.818  16.106 -0.2620  0.0639 -0.5355
11288TIP3    H155279   4.168   5.884  16.038  0.6276 -1.0157 -1.4264
11288TIP3    H255280   4.203   5.851  16.181  1.1462 -0.1177 -1.3434
11289TIP3   OH255281   4.115   4.454   2.226 -1.2910  0.0468 -0.4546
11289TIP3    H155282   4.187   4.395   2.249 -2.1628 -1.2695 -1.0684
11289TIP3    H255283   4.153   4.514   2.162 -0.3066  0.3821  0.4252
11290TIP3   OH255284   2.696   3.037   1.839  0.5033  0.2905 -0.6510
11290TIP3    H155285   2.698   3.132   1.852  0.8447  0.0688  1.0715
11290TIP3    H255286   2.771   3.005   1.887 -2.9255 -1.3986  3.9396
11291TIP3   OH255287   3.485   4.586   3.676  0.2148  0.5972  0.4176
11291TIP3    H155288   3.473   4.604   3.583 -0.9552 -0.8265  0.2777
11291TIP3    H255289   3.496   4.673   3.716  0.1224  1.2528 -0.9600
11292TIP3   OH255290   2.609   0.478   3.612 -0.4302 -0.3594  0.0474
11292TIP3    H155291   2.703   0.463   3.604 -0.3146  0.2448  0.1973
11292TIP3    H255292   2.600   0.526   3.695 -0.9039 -0.7028  0.1944
11293TIP3   OH255293   1.157   6.674   6.085  0.2695 -0.6181  0.0823
11293TIP3    H155294   1.178   6.613   6.155  0.9607 -0.6364 -0.1414
11293TIP3    H255295   1.062   6.688   6.093  0.2255 -1.1812  0.5605
11294TIP3   OH255296   0.896   4.206   2.974  0.1288  0.1863  0.2524
11294TIP3    H155297   0.986   4.196   2.944  0.0046 -2.4179  0.6064
11294TIP3    H255298   0.904   4.229   3.067  0.4313  1.3931 -0.0654
11295TIP3   OH255299   0.935   4.777   2.230  0.2336  0.4407  0.1404
11295TIP3    H155300   0.927   4.707   2.295  0.6945 -0.7704 -1.0795
11295TIP3    H255301   0.851   4.776   2.184  0.4320  0.3526 -0.2179
11296TIP3   OH255302   1.904   4.735  13.958 -0.3620 -0.0762 -0.0068
11296TIP3    H155303   1.841   4.763  14.025  1.3597 -2.0452  2.5502
11296TIP3    H255304   1.985   4.781  13.980 -0.0606  0.0930 -1.4196
11297TIP3   OH255305   3.413   1.259  14.670  0.3367  0.3149  0.6345
11297TIP3    H155306   3.339   1.231  14.724 -0.2151  0.9104  0.1857
11297TIP3    H255307   3.489   1.246  14.726  0.1174 -2.2112  0.4072
11298TIP3   OH255308   4.870   6.552  11.691 -0.1303 -0.0678  0.0596
11298TIP3    H155309   4.920   6.533  11.770 -1.2020  1.6982  1.2000
11298TIP3    H255310   4.933   6.591  11.631  0.1630  0.9247  0.9988
11299TIP3   OH255311   2.818   3.304  11.681  0.3151 -0.1477 -0.2101
11299TIP3    H155312   2.842   3.235  11.619  0.7339 -0.9614  0.8459
11299TIP3    H255313   2.887   3.370  11.671 -0.4323  0.4299 -1.6793
11300TIP3   OH255314   4.162   5.490   1.042 -0.1788  0.1482 -0.0529
11300TIP3    H155315   4.170   5.516   1.133  0.6417 -3.1898  0.8946
11300TIP3    H255316   4.240   5.527   0.999 -0.2007  1.1180  0.7299
11301TIP3   OH255317   1.411   0.360  12.737 -0.1984  0.1752 -0.3792
11301TIP3    H155318   1.364   0.311  12.670  0.1110 -0.6150 -0.0215
11301TIP3    H255319   1.391   0.315  12.819  1.6382 -0.5285 -0.2913
11302TIP3   OH255320   0.253   2.902   2.337 -0.8439  0.1960 -0.1501
11302TIP3    H155321   0.242   2.989   2.301 -0.0014  0.3823  0.0468
11302TIP3    H255322   0.181   2.893   2.400 -1.8748  0.1414 -1.3321
11303TIP3   OH255323   2.294   4.449   4.743 -0.0106 -0.4646 -0.5465
11303TIP3    H155324   2.300   4.354   4.738 -0.1202 -0.3990 -2.1816
11303TIP3    H255325   2.203   4.466   4.765 -0.1153 -0.7278 -0.7707
11304TIP3   OH255326   4.368   2.791  13.610  0.4929 -0.5390  0.1955
11304TIP3    H155327   4.302   2.860  13.622  1.7476  0.5675  0.8725
11304TIP3    H255328   4.452   2.835  13.627  1.3341 -2.1721  0.3456
11305TIP3   OH255329   2.608   2.487  11.719  0.3483 -0.0979  0.2412
11305TIP3    H155330   2.658   2.523  11.646  0.8742  0.9453  1.1124
11305TIP3    H255331   2.602   2.393  11.699  1.6827 -0.0526 -0.4362
11306TIP3   OH255332   5.728   3.420  13.602  0.0957  0.2523  0.2892
11306TIP3    H155333   5.784   3.455  13.670  1.8729 -2.7188  0.4501
11306TIP3    H255334   5.777   3.434  13.521  0.0146 -0.1745  0.1616
11307TIP3   OH255335   1.631   2.184  15.513 -0.1888 -0.0636 -0.0995
11307TIP3    H155336   1.682   2.106  15.488 -1.3525  0.4937 -4.6404
11307TIP3    H255337   1.540   2.154  15.516 -0.1689  0.0184  3.3505
11308TIP3   OH255338   4.616   4.853   3.759  0.2622 -0.1014 -0.4787
11308TIP3    H155339   4.591   4.862   3.851  1.5005 -0.9322 -0.0470
11308TIP3    H255340   4.648   4.940   3.734  0.4593 -0.0191  0.0466
11309TIP3   OH255341   3.549   5.843  12.755  0.3290  0.6808  0.6238
11309TIP3    H155342   3.529   5.777  12.821  1.2599  0.5667  0.7874
11309TIP3    H255343   3.644   5.841  12.746  0.1857  0.3818 -1.0464
11310TIP3   OH255344   5.005   2.711   0.129  0.4801  0.1404  0.1751
11310TIP3    H155345   5.039   2.651   0.062  0.9880  0.9539 -0.2965
11310TIP3    H255346   5.049   2.684   0.209 -0.2374 -0.9309  0.2181
11311TIP3   OH255347   0.277   1.241  13.468 -0.5786 -1.0261  0.0751
11311TIP3    H155348   0.316   1.306  13.527 -2.6903 -0.2306  0.6412
11311TIP3    H255349   0.299   1.271  13.380 -0.1330 -0.4649  0.3772
11312TIP3   OH255350   6.021   3.999  14.797 -0.1898  0.4581  0.4585
11312TIP3    H155351   5.994   4.078  14.751  0.6893  0.9940  0.8432
11312TIP3    H255352   5.966   3.929  14.760 -1.5844  1.3858  0.7294
11313TIP3   OH255353   1.777   0.059  12.702 -1.1033 -0.9845  0.1906
11313TIP3    H155354   1.839   0.018  12.642 -1.6113  0.4290 -1.3628
11313TIP3    H255355   1.706   0.089  12.645 -1.8896 -0.1382  1.5852
11314TIP3   OH255356   0.965   2.666   0.123 -0.6680  0.1379 -0.0027
11314TIP3    H155357   0.931   2.749   0.156  1.0077  1.3894 -1.3570
11314TIP3    H255358   1.057   2.683   0.103  0.1971 -2.5399  1.3860
11315TIP3   OH255359   3.023   4.088   1.072 -0.4536 -0.0118 -0.0735
11315TIP3    H155360   3.048   4.178   1.093 -0.5840  0.7193 -2.8512
11315TIP3    H255361   3.101   4.051   1.030 -1.3879 -0.2368 -1.6302
11316TIP3   OH255362   1.548   4.631  13.584 -0.1196 -0.1647  0.0251
11316TIP3    H155363   1.576   4.542  13.561 -0.9155 -0.4647  0.2011
11316TIP3    H255364   1.612   4.661  13.649  0.5225 -0.3653 -0.5120
11317TIP3   OH255365   6.290   0.091  15.819  0.5968  0.2427  0.3800
11317TIP3    H155366   6.253   0.003  15.834  1.5460 -0.2048  0.1492
11317TIP3    H255367   6.345   0.081  15.741  3.4958  0.1625  2.3448
11318TIP3   OH255368   0.120   0.386  16.362 -0.2958  0.2521  0.7724
11318TIP3    H155369   0.033   0.355  16.387  0.0198  0.6580  2.3870
11318TIP3    H255370   0.180   0.325  16.404  0.2224 -0.1283 -0.4737
11319TIP3   OH255371   1.496   2.064   2.853  0.1010 -0.1758  0.0307
11319TIP3    H155372   1.508   1.987   2.908 -2.7012 -0.5458  0.2180
11319TIP3    H255373   1.445   2.124   2.906  2.5658  2.0294  0.0148
11320TIP3   OH255374   5.430   2.418  15.859  0.1439 -0.6362 -0.0613
11320TIP3    H155375   5.414   2.433  15.952  0.5318 -0.0990 -0.0755
11320TIP3    H255376   5.524   2.402  15.853  0.3096  0.4156 -0.4874
11321TIP3   OH255377   6.733   6.784   5.481  0.1118 -0.9547 -0.0507
11321TIP3    H155378   6.713   6.856   5.421 -0.2251  0.2482  1.4784
11321TIP3    H255379   6.824   6.797   5.506 -0.4208 -0.0480  1.5288
11322TIP3   OH255380   2.296   5.069   5.637  0.8892 -0.5560  0.1831
11322TIP3    H155381   2.350   5.140   5.672  0.9407 -0.0521 -0.8870
11322TIP3    H255382   2.342   4.989   5.662  2.0434 -0.1327 -0.5412
11323TIP3   OH255383   6.337   0.872  11.760 -0.1415  0.7587 -0.2476
11323TIP3    H155384   6.356   0.889  11.668  0.1271  0.3631 -0.2655
11323TIP3    H255385   6.412   0.906  11.807  0.0112  0.3944 -0.2231
11324TIP3   OH255386   0.646   2.174   3.842  0.0270 -0.4939  1.2015
11324TIP3    H155387   0.555   2.176   3.815  0.1330 -2.8145  0.5324
11324TIP3    H255388   0.665   2.263   3.873 -2.6102 -0.1453  1.9039
11325TIP3   OH255389   0.067   2.731  14.401  0.1309 -0.0630  0.0740
11325TIP3    H155390   0.119   2.801  14.362 -0.9540  0.4145 -0.5377
11325TIP3    H255391   0.088   2.654  14.349  0.8647 -0.0561  0.3614
11326TIP3   OH255392   5.528   3.991  12.448  0.0436  0.3755 -0.0869
11326TIP3    H155393   5.517   3.986  12.543  0.5984  0.4040 -0.0196
11326TIP3    H255394   5.592   3.923  12.427 -0.8132 -0.2994 -0.5683
11327TIP3   OH255395   2.895   6.021  14.049 -0.4334 -0.8258 -0.0814
11327TIP3    H155396   2.830   6.023  14.119  0.5797  1.2578  0.8338
11327TIP3    H255397   2.847   6.043  13.970 -0.9998 -0.1427  0.4529
11328TIP3   OH255398   5.693   3.932  16.136  0.0958 -0.6952 -0.5274
11328TIP3    H155399   5.735   3.967  16.215  0.5557  0.8508 -1.4219
11328TIP3    H255400   5.630   3.868  16.168  1.8000 -1.6774  0.9675
11329TIP3   OH255401   5.904   5.117  13.637 -0.6792  0.6149  0.2323
11329TIP3    H155402   5.991   5.155  13.649 -0.9193  1.4747 -0.6559
11329TIP3    H255403   5.908   5.033  13.681  0.7719  0.4194 -0.2512
11330TIP3   OH255404   1.788   4.054  15.141 -0.0875  0.2945 -0.3564
11330TIP3    H155405   1.703   4.098  15.135 -1.1971 -1.7007  0.4569
11330TIP3    H255406   1.804   4.020  15.053  0.0704  1.0181 -0.6122
11331TIP3   OH255407   6.655   2.870   1.972 -0.2695  0.6354  0.1723
11331TIP3    H155408   6.657   2.856   2.067  0.2599  0.0451  0.0773
11331TIP3    H255409   6.575   2.825   1.943  0.6203 -0.9154  0.0756
11332TIP3   OH255410   1.735   0.578  17.001  0.6068 -0.0346  0.2480
11332TIP3    H155411   1.663   0.626  16.960 -1.6041 -0.3529  3.6041
11332TIP3    H255412   1.774   0.640  17.062  0.2619 -1.2581  1.7330
11333TIP3   OH255413   4.096   1.666   0.809 -0.5132 -0.1665  0.3589
11333TIP3    H155414   4.121   1.607   0.737  1.6150 -2.2637  2.6855
11333TIP3    H255415   4.173   1.722   0.822 -0.6363 -0.2148  1.3756
11334TIP3   OH255416   2.836   5.722   4.110  0.0863 -0.3760  0.3364
11334TIP3    H155417   2.750   5.754   4.137  1.5442  2.8845  1.4878
11334TIP3    H255418   2.865   5.667   4.183 -0.5492 -0.5695  0.4442
11335TIP3   OH255419   2.815   6.187  11.913 -0.6044  0.3202  0.4110
11335TIP3    H155420   2.845   6.266  11.957 -1.4530  1.1006 -0.3983
11335TIP3    H255421   2.822   6.118  11.979  1.1169  0.8641  0.8024
11336TIP3   OH255422   1.370   2.734  14.875  0.3677  0.5342 -0.5686
11336TIP3    H155423   1.279   2.738  14.903  0.5677  1.4650 -0.0378
11336TIP3    H255424   1.366   2.741  14.780 -0.1074  0.6098 -0.5433
11337TIP3   OH255425   1.953   0.374  12.598  0.4601  0.1785  0.3694
11337TIP3    H155426   1.997   0.316  12.536  2.0838  0.1598  1.5150
11337TIP3    H255427   1.859   0.361  12.580  0.8801 -0.0446 -1.8440
11338TIP3   OH255428   4.825   4.362  14.571 -0.5110 -0.4176 -0.0499
11338TIP3    H155429   4.814   4.300  14.643  1.2842 -0.4733  0.2174
11338TIP3    H255430   4.894   4.324  14.516 -0.5708  0.5143 -0.8014
11339TIP3   OH255431   6.670   4.895  14.885  0.5936 -0.3932  0.2103
11339TIP3    H155432   6.640   4.978  14.923 -0.5073 -0.6562 -0.0636
11339TIP3    H255433   6.735   4.863  14.947  0.9547  0.6250  0.3763
11340TIP3   OH255434   1.476   5.723   2.996  0.0121  0.5177  0.2124
11340TIP3    H155435   1.463   5.813   2.967  1.1595  0.6606  0.1215
11340TIP3    H255436   1.388   5.687   3.004 -0.3849  1.1611 -1.2765
11341TIP3   OH255437   5.178   2.713   1.459  0.0093 -0.0940 -0.2894
11341TIP3    H155438   5.149   2.649   1.394  1.1921 -1.9856  1.0085
11341TIP3    H255439   5.262   2.745   1.426  1.2347 -2.0024  0.9101
11342TIP3   OH255440   2.397   5.716   5.755 -0.4186 -0.6295 -0.2281
11342TIP3    H155441   2.439   5.780   5.813 -0.2551  1.1596 -2.2297
11342TIP3    H255442   2.324   5.681   5.806 -0.2065  0.8172  1.1011
11343TIP3   OH255443   0.394   2.595   6.353  0.8336  0.1599  0.1863
11343TIP3    H155444   0.475   2.544   6.362 -0.0718 -1.1753  0.9410
11343TIP3    H255445   0.326   2.539   6.390 -0.8468  0.2524 -2.5775
11344TIP3   OH255446   2.546   5.339  15.904  0.2497 -0.0103 -0.4128
11344TIP3    H155447   2.571   5.321  15.813 -0.5034  1.5964 -0.9365
11344TIP3    H255448   2.596   5.416  15.928 -0.0688 -0.0305  0.3282
11345TIP3   OH255449   4.085   5.851   4.652 -0.1081  0.0447  0.1313
11345TIP3    H155450   4.075   5.767   4.697  1.8169 -0.8808 -1.0758
11345TIP3    H255451   4.026   5.910   4.698 -1.8891 -2.0942  0.6840
11346TIP3   OH255452   0.618   2.220  12.877  0.3683 -0.6620  0.4649
11346TIP3    H155453   0.523   2.226  12.869  0.6191  0.4990 -1.9391
11346TIP3    H255454   0.641   2.142  12.826  0.9611  0.6238 -1.2525
11347TIP3   OH255455   1.925   3.193  15.957 -0.1712  0.2066 -0.0562
11347TIP3    H155456   1.867   3.237  16.020  2.0012  1.5262  1.0815
11347TIP3    H255457   2.013   3.212  15.988  0.9003 -3.0974 -0.8567
11348TIP3   OH255458   6.273   1.141   0.141 -0.1552  0.1441 -0.4364
11348TIP3    H155459   6.339   1.142   0.071 -0.1872  0.0479 -0.4664
11348TIP3    H255460   6.240   1.052   0.142  0.0089  0.0861 -0.1450
11349TIP3   OH255461   6.248   4.000   4.006 -0.0122 -0.5170  0.2313
11349TIP3    H155462   6.268   4.067   4.071  1.9152  0.3182 -1.1727
11349TIP3    H255463   6.208   4.048   3.934 -0.5988 -1.1907  0.1063
11350TIP3   OH255464   2.557   2.670   0.126  0.2173  0.2949 -0.0137
11350TIP3    H155465   2.603   2.722   0.192  0.0342 -0.1290  0.4466
11350TIP3    H255466   2.492   2.731   0.089  0.8501  0.7620 -0.3633
11351TIP3   OH255467   0.428   6.139   1.073 -0.4285  0.0537  0.1565
11351TIP3    H155468   0.344   6.106   1.041 -0.3010  0.2227 -0.3624
11351TIP3    H255469   0.435   6.227   1.037  0.4935 -0.3834 -0.7851
11352TIP3   OH255470   4.723   1.473  11.541 -0.2516 -0.2491 -0.8601
11352TIP3    H155471   4.803   1.464  11.489  0.2207 -0.7777 -0.0681
11352TIP3    H255472   4.735   1.556  11.588 -0.2346 -0.2562 -0.8509
11353TIP3   OH255473   0.311   3.261   5.164 -0.3363  0.0897 -1.1754
11353TIP3    H155474   0.387   3.253   5.105  2.0435  4.6022  1.0354
11353TIP3    H255475   0.262   3.336   5.129 -0.9651  0.4067  0.3714
11354TIP3   OH255476   0.825   2.608  16.799  0.5615  0.1159  0.2129
11354TIP3    H155477   0.804   2.689  16.752  0.5272 -0.7182 -1.2428
11354TIP3    H255478   0.768   2.609  16.875  0.9642  1.7341  0.5040
11355TIP3   OH255479   1.152   1.863  17.093  0.2956 -0.1855 -0.1970
11355TIP3    H155480   1.243   1.884  17.071  0.3008 -1.7914 -1.8071
11355TIP3    H255481   1.103   1.884  17.013 -0.7276  0.4637  0.5870
11356TIP3   OH255482   0.708   2.950   4.420  0.4517  0.0189 -0.2371
11356TIP3    H155483   0.755   3.031   4.438  4.6822 -1.8138 -2.4212
11356TIP3    H255484   0.657   2.970   4.341 -1.0637  1.4034  1.0233
11357TIP3   OH255485   5.637   3.615   3.408 -0.4419  0.6311 -0.5691
11357TIP3    H155486   5.554   3.583   3.374 -0.1455  0.5956 -1.2597
11357TIP3    H255487   5.647   3.703   3.370 -1.5006  1.7763  1.7106
11358TIP3   OH255488   3.422   3.143  15.398  0.0208 -0.6868  0.6410
11358TIP3    H155489   3.362   3.077  15.363  1.0454 -0.1506 -2.2400
11358TIP3    H255490   3.496   3.094  15.432 -0.0441 -1.1195  0.1561
11359TIP3   OH255491   4.296   2.739   3.540 -0.2770 -0.6002 -0.1243
11359TIP3    H155492   4.213   2.692   3.532 -0.2072 -0.6948 -0.2909
11359TIP3    H255493   4.279   2.806   3.606 -1.4598  1.5419 -2.5204
11360TIP3   OH255494   4.378   2.258   6.363 -0.3818 -0.0461  0.9048
11360TIP3    H155495   4.395   2.260   6.457  1.8342 -0.6346  0.5302
11360TIP3    H255496   4.463   2.241   6.323 -0.6349  3.5145 -1.3910
11361TIP3   OH255497   0.606   0.071  15.742 -0.2325  0.1403  0.0719
11361TIP3    H155498   0.512   0.061  15.759 -0.3536 -0.3448 -0.8433
11361TIP3    H255499   0.633   0.141  15.801 -1.4235  1.1255 -0.5257
11362TIP3   OH255500   0.597   5.550  17.161  0.0415 -0.1620 -0.1178
11362TIP3    H155501   0.519   5.547  17.106  0.3760 -3.1236 -0.5197
11362TIP3    H255502   0.640   5.465  17.147  2.7621  0.9790  0.9109
11363TIP3   OH255503   3.540   2.765  11.737  0.4271 -0.4350  0.3746
11363TIP3    H155504   3.466   2.713  11.768 -0.0272 -0.0799 -0.1200
11363TIP3    H255505   3.577   2.714  11.665 -0.1092 -0.0183 -0.2086
11364TIP3   OH255506   2.963   5.688   0.155  0.1274  0.1848 -0.0003
11364TIP3    H155507   3.056   5.666   0.147  0.7873  1.5964  3.2094
11364TIP3    H255508   2.919   5.603   0.152  1.5167 -0.5114 -1.4517
11365TIP3   OH255509   3.394   1.340  12.584  0.2030  0.5857  0.5495
11365TIP3    H155510   3.477   1.377  12.614 -0.3532  0.5643  2.1401
11365TIP3    H255511   3.355   1.410  12.530  0.7373  1.0050  0.7009
11366TIP3   OH255512   2.409   2.846  14.404  0.1655 -0.2283  0.3912
11366TIP3    H155513   2.489   2.896  14.418 -0.4801  1.0423 -0.3449
11366TIP3    H255514   2.433   2.755  14.423  1.4683  0.3033  1.2952
11367TIP3   OH255515   4.342   5.686   2.997 -0.1328 -0.1515 -0.3706
11367TIP3    H155516   4.273   5.745   2.964  0.8790  0.0805 -2.1557
11367TIP3    H255517   4.341   5.613   2.935 -0.1892 -1.1647  0.8273
11368TIP3   OH255518   0.728   5.949  14.698  0.2854 -0.5536 -0.1267
11368TIP3    H155519   0.646   5.900  14.707 -0.3882  0.5973  0.2315
11368TIP3    H255520   0.758   5.929  14.610  0.2578 -1.9515  0.1744
11369TIP3   OH255521   5.608   3.629  14.041 -0.7099  0.2301  0.2313
11369TIP3    H155522   5.644   3.690  13.977 -2.2611  1.0785  0.1567
11369TIP3    H255523   5.676   3.622  14.108  0.1881  0.7006 -0.6167
11370TIP3   OH255524   3.325   0.492  15.896 -0.0600 -0.0293 -0.2706
11370TIP3    H155525   3.415   0.460  15.898  0.1715  0.6874  0.9358
11370TIP3    H255526   3.333   0.587  15.889 -0.7089  0.1312  1.1556
11371TIP3   OH255527   5.876   1.439   1.843  0.2371 -0.4377  0.2788
11371TIP3    H155528   5.792   1.484   1.841  0.0349 -0.7384  1.8559
11371TIP3    H255529   5.860   1.355   1.799  0.2648  0.3979 -1.3801
11372TIP3   OH255530   3.191   5.537   5.380 -0.3770  0.3175  0.4747
11372TIP3    H155531   3.172   5.469   5.316  1.5088  0.8077 -0.6355
11372TIP3    H255532   3.176   5.619   5.332  2.8168  0.7053  0.0520
11373TIP3   OH255533   6.644   4.312  17.059 -0.1505 -0.6579  0.5256
11373TIP3    H155534   6.651   4.371  17.133 -0.1357  0.0160 -0.0045
11373TIP3    H255535   6.681   4.362  16.985  1.0097 -1.7734  0.3212
11374TIP3   OH255536   3.450   5.922  13.306  0.8505  0.3147 -0.1025
11374TIP3    H155537   3.467   5.918  13.212  0.0089  1.2074 -0.3120
11374TIP3    H255538   3.394   5.847  13.324  0.1754  0.7116 -0.5161
11375TIP3   OH255539   3.186   1.249   2.421  0.0718 -0.6595 -0.4381
11375TIP3    H155540   3.090   1.244   2.414  0.0017  0.7691 -0.6098
11375TIP3    H255541   3.202   1.328   2.473  1.2165  0.2970 -2.2196
11376TIP3   OH255542   4.795   2.235   1.215 -0.2094 -0.0699  0.2072
11376TIP3    H155543   4.809   2.236   1.309 -1.8422  0.7479  0.4549
11376TIP3    H255544   4.700   2.241   1.204  0.1358  3.2229 -1.5343
11377TIP3   OH255545   5.106   6.526   4.001 -0.8390 -0.2300 -0.3514
11377TIP3    H155546   5.196   6.532   3.968 -0.3242  1.0284  1.2176
11377TIP3    H255547   5.099   6.439   4.039  0.2886  0.3109  1.1205
11378TIP3   OH255548   5.936   2.718  12.038  0.0607 -0.2738 -0.2437
11378TIP3    H155549   5.893   2.801  12.060  4.0608  1.7949  0.4059
11378TIP3    H255550   5.912   2.659  12.109 -1.4405  0.8901  0.2365
11379TIP3   OH255551   6.732   0.934   5.282  0.2514  1.0251 -0.2953
11379TIP3    H155552   6.687   0.927   5.198 -1.1880 -0.6289  0.5732
11379TIP3    H255553   6.781   1.016   5.277  1.3420  0.2417 -3.2818
11380TIP3   OH255554   5.490   0.547  17.028 -0.1022  0.1435  0.1211
11380TIP3    H155555   5.511   0.598  17.106  0.9180  0.3826 -0.3099
11380TIP3    H255556   5.398   0.524  17.039  0.0293  0.2067  1.3740
11381TIP3   OH255557   4.721   6.020   4.597 -0.0654  0.5591  0.7663
11381TIP3    H155558   4.747   5.940   4.551 -1.0156  1.7526 -1.9501
11381TIP3    H255559   4.791   6.036   4.659  2.3535  0.0149 -1.7316
11382TIP3   OH255560   3.665   4.140   4.254  0.4442  0.0031 -0.0657
11382TIP3    H155561   3.622   4.202   4.196  2.1675  1.9103  0.6705
11382TIP3    H255562   3.756   4.139   4.226  0.4195 -2.3264 -0.1671
11383TIP3   OH255563   6.254   6.253   5.557 -0.4930  0.6549 -0.1502
11383TIP3    H155564   6.273   6.186   5.622 -0.7278  0.1190 -0.6342
11383TIP3    H255565   6.296   6.332   5.591  0.6960  0.0119 -0.1072
11384TIP3   OH255566   6.562   0.179  14.392 -0.0517  0.5360 -0.0772
11384TIP3    H155567   6.564   0.108  14.328  0.8860 -1.7753  2.4328
11384TIP3    H255568   6.537   0.256  14.341 -0.0301 -1.3536 -3.0754
11385TIP3   OH255569   5.085   5.110   0.948 -0.1716 -0.3712  0.2254
11385TIP3    H155570   5.025   5.065   1.007 -1.6886 -0.9925 -1.7205
11385TIP3    H255571   5.117   5.041   0.890  0.7186  0.3532 -0.1575
11386TIP3   OH255572   6.538   5.076   0.044  0.2342  0.0431  0.1395
11386TIP3    H155573   6.486   4.995   0.047 -0.1660  0.3196  0.8282
11386TIP3    H255574   6.577   5.076  -0.044 -0.0380 -0.7248  0.0102
11387TIP3   OH255575   2.379   3.074  10.619  0.0461 -0.1213 -0.7396
11387TIP3    H155576   2.380   3.029  10.534 -0.1589 -1.2037 -0.1852
11387TIP3    H255577   2.445   3.029  10.670  0.0003  0.3741 -0.2435
11388TIP3   OH255578   5.612   5.537  15.612 -0.3342  0.1459 -0.4171
11388TIP3    H155579   5.563   5.472  15.562 -0.6533 -1.5210  1.9703
11388TIP3    H255580   5.692   5.492  15.639 -0.8897  0.4511  1.8940
11389TIP3   OH255581   3.052   5.550   4.804 -0.5546  0.1798  0.1379
11389TIP3    H155582   2.989   5.482   4.828 -0.4532 -0.9390 -2.6070
11389TIP3    H255583   3.016   5.630   4.841 -2.5709 -0.7769  0.2929
11390TIP3   OH255584   5.875   1.098  10.438  0.2980  0.6063  0.1389
11390TIP3    H155585   5.843   1.015  10.473  0.0195 -0.4135 -2.4280
11390TIP3    H255586   5.969   1.096  10.452  0.4727 -0.7828 -1.1138
11391TIP3   OH255587   1.122   5.457  16.024  0.2571  0.1860  0.1670
11391TIP3    H155588   1.074   5.446  16.106 -1.0503  2.2888 -0.3037
11391TIP3    H255589   1.055   5.456  15.956  1.3008 -1.1640 -0.8853
11392TIP3   OH255590   1.343   2.086   2.123 -1.2069 -0.2920 -0.5777
11392TIP3    H155591   1.347   2.104   2.218  1.5398 -2.3743 -0.2333
11392TIP3    H255592   1.296   2.161   2.087  1.4345  2.7687  1.9527
11393TIP3   OH255593   1.182   2.688   1.207  0.0520  0.3288 -0.6760
11393TIP3    H155594   1.167   2.701   1.301  0.9469 -2.3014 -0.1199
11393TIP3    H255595   1.105   2.726   1.165  1.2854  4.9001  0.8211
11394TIP3   OH255596   6.234   1.154  16.678  0.1899  0.0823 -0.3903
11394TIP3    H155597   6.232   1.093  16.604  1.1165  0.9519 -1.1368
11394TIP3    H255598   6.327   1.160  16.701  0.0211  0.6631  0.1506
11395TIP3   OH255599   5.922   1.205  13.795  0.1735 -0.2009  0.0510
11395TIP3    H155600   5.898   1.214  13.702 -0.8062 -0.7782  0.2389
11395TIP3    H255601   5.876   1.127  13.824 -1.2954  1.1890  1.5718
11396TIP3   OH255602   0.144   4.952   0.790 -0.1562 -0.0208 -0.1463
11396TIP3    H155603   0.065   4.999   0.765 -0.3136  0.3632  1.0290
11396TIP3    H255604   0.159   4.977   0.882 -0.4159 -2.5032  0.6046
11397TIP3   OH255605   3.308   2.299  16.860 -0.1351 -0.2458 -0.3599
11397TIP3    H155606   3.378   2.357  16.827  0.3203 -0.3308  0.4570
11397TIP3    H255607   3.353   2.217  16.880 -0.5798 -0.4993 -0.4093
11398TIP3   OH255608   2.246   4.482   2.396  0.1476  0.0118  0.0468
11398TIP3    H155609   2.242   4.577   2.385  1.1891  0.2349  1.3779
11398TIP3    H255610   2.182   4.447   2.334  0.0953  1.5547 -0.7850
11399TIP3   OH255611   5.526   2.385  13.930  0.1975 -0.1260 -0.3919
11399TIP3    H155612   5.532   2.289  13.930 -0.1549 -0.1922 -3.9373
11399TIP3    H255613   5.433   2.403  13.941  0.3508 -0.1450  1.0521
11400TIP3   OH255614   6.348   2.564  11.318  0.2257  0.3218  0.2689
11400TIP3    H155615   6.275   2.557  11.256  0.0870 -0.1206  0.4820
11400TIP3    H255616   6.420   2.601  11.266 -0.0164  0.3407 -0.0536
11401TIP3   OH255617   1.624   6.264  12.407  0.1837  0.5933 -0.4838
11401TIP3    H155618   1.578   6.288  12.488  2.1463  1.6250  0.3539
11401TIP3    H255619   1.560   6.280  12.337 -1.1312  0.8248  0.7492
11402TIP3   OH255620   2.452   4.324  17.118 -0.2068  0.0540 -0.0902
11402TIP3    H155621   2.450   4.362  17.206 -3.1836  1.4357 -0.7093
11402TIP3    H255622   2.467   4.399  17.060  0.1342 -0.6206 -0.8914
11403TIP3   OH255623   4.263   1.478  15.544  0.4379 -0.0376  0.2606
11403TIP3    H155624   4.254   1.569  15.518  1.0031 -0.3416 -1.0896
11403TIP3    H255625   4.354   1.470  15.574  0.5451 -0.2606 -0.1111
11404TIP3   OH255626   2.295   5.181  15.553  0.5592 -0.3849 -0.0122
11404TIP3    H155627   2.235   5.248  15.586 -2.0723 -2.2997 -0.6947
11404TIP3    H255628   2.245   5.100  15.558  2.5542 -1.8130 -2.1558
11405TIP3   OH255629   4.669   3.366   0.532 -0.4707 -0.0895  0.5360
11405TIP3    H155630   4.590   3.411   0.560 -0.7616  0.0466 -0.4910
11405TIP3    H255631   4.739   3.406   0.584 -0.7787  1.2672 -0.0637
11406TIP3   OH255632   2.656   6.018   0.503 -0.2508 -0.1631 -0.0608
11406TIP3    H155633   2.743   5.979   0.502  0.4244  1.2702  1.5725
11406TIP3    H255634   2.599   5.947   0.534  0.4390 -0.8425 -0.3151
11407TIP3   OH255635   0.996   5.646  15.090 -0.0107 -0.6767  0.0518
11407TIP3    H155636   1.059   5.591  15.044 -1.8019 -2.2966 -0.4922
11407TIP3    H255637   1.008   5.624  15.183  1.5345  0.4431  0.1515
11408TIP3   OH255638   4.665   3.738   3.973  0.3245 -0.4597  0.5781
11408TIP3    H155639   4.748   3.764   3.932 -0.9768  0.1379 -1.7935
11408TIP3    H255640   4.613   3.702   3.901 -1.6444 -0.4077  1.9337
11409TIP3   OH255641   2.503   2.025  16.083  0.6464  0.0770  0.3908
11409TIP3    H155642   2.578   1.974  16.056 -0.2152 -1.6080  1.1316
11409TIP3    H255643   2.468   1.979  16.159 -2.3241 -0.3428 -1.1555
11410TIP3   OH255644   5.779   6.449   6.487  0.3073 -0.1800  0.2825
11410TIP3    H155645   5.714   6.458   6.557 -0.2825 -0.0885 -0.2664
11410TIP3    H255646   5.797   6.539   6.460  0.5295 -0.2152  0.3203
11411TIP3   OH255647   2.298   5.961   2.671 -0.4736 -0.5583 -0.4931
11411TIP3    H155648   2.252   5.994   2.747  0.5239 -0.3166  0.0126
11411TIP3    H255649   2.323   5.872   2.694 -0.3906 -0.5718 -0.6297
11412TIP3   OH255650   5.365   6.514  17.113 -0.1591 -0.3438  0.8646
11412TIP3    H155651   5.381   6.579  17.044 -1.7616  1.5763  2.2182
11412TIP3    H255652   5.426   6.443  17.094 -0.4718  0.1961 -2.4365
11413TIP3   OH255653   2.826   6.656  13.807 -0.5470  0.5875 -0.7177
11413TIP3    H155654   2.759   6.722  13.788 -0.8245  0.3723 -0.4926
11413TIP3    H255655   2.786   6.573  13.782 -0.3052  0.4717 -0.7258
11414TIP3   OH255656   1.566   6.463   5.552  0.2282 -0.5343  0.0890
11414TIP3    H155657   1.525   6.530   5.498 -1.5735 -0.0951  1.9124
11414TIP3    H255658   1.506   6.452   5.626  2.2453 -1.6408  1.6148
11415TIP3   OH255659   4.742   0.219   4.297 -0.1357 -0.0360 -0.0841
11415TIP3    H155660   4.654   0.202   4.262  0.3712  0.0587 -1.4425
11415TIP3    H255661   4.736   0.194   4.389 -0.6799 -3.3437 -0.9381
11416TIP3   OH255662   1.020   6.597   0.907  0.0510  0.5007  0.3964
11416TIP3    H155663   0.981   6.618   0.822 -0.2322  0.5376  0.5374
11416TIP3    H255664   1.090   6.661   0.917  0.9099 -0.2861 -0.3826
11417TIP3   OH255665   1.805   0.128   2.295 -0.2157 -0.7300 -0.1089
11417TIP3    H155666   1.814   0.102   2.387 -2.9102 -0.7519  0.1928
11417TIP3    H255667   1.806   0.045   2.247 -0.2751 -0.8205  0.0447
11418TIP3   OH255668   5.361   1.388  14.715 -0.6662  0.1456 -0.3478
11418TIP3    H155669   5.292   1.394  14.649  1.0832  0.7673 -2.1799
11418TIP3    H255670   5.437   1.356  14.667  0.9748  1.7326  1.1222
11419TIP3   OH255671   3.662   4.588  15.950 -0.2947 -0.2288  0.3478
11419TIP3    H155672   3.655   4.493  15.955 -0.6562 -0.1722  1.0157
11419TIP3    H255673   3.734   4.604  15.890 -0.7551 -0.9166 -0.3993
11420TIP3   OH255674   2.555   2.185  13.428 -0.0125  0.1581 -0.4920
11420TIP3    H155675   2.486   2.230  13.475  0.5797  1.2514 -0.6462
11420TIP3    H255676   2.518   2.166  13.342 -0.8987 -1.3339  0.1946
11421TIP3   OH255677   0.858   4.276  16.545 -0.5262  0.6274  0.5364
11421TIP3    H155678   0.928   4.277  16.610  0.0066 -1.6525  0.0362
11421TIP3    H255679   0.796   4.343  16.576  1.0093  1.4519  1.9032
11422TIP3   OH255680   0.620   0.074  12.051  0.0241 -0.2625  0.3845
11422TIP3    H155681   0.636   0.163  12.081  0.5252  0.0930 -0.9111
11422TIP3    H255682   0.528   0.058  12.071  0.0858  0.3180  1.1742
11423TIP3   OH255683   4.147   4.921   1.575 -0.2175 -0.0882  0.9497
11423TIP3    H155684   4.230   4.927   1.623 -0.4002  0.0160  1.2542
11423TIP3    H255685   4.172   4.891   1.488 -0.0530 -2.0614  1.6402
11424TIP3   OH255686   2.680   1.036   2.291 -0.0712 -0.4450  1.0861
11424TIP3    H155687   2.635   1.113   2.323  0.9207  0.4957  0.2673
11424TIP3    H255688   2.705   1.058   2.201 -0.8444 -2.1787  0.4091
11425TIP3   OH255689   4.905   3.619  15.921  0.0229 -0.1840 -0.6107
11425TIP3    H155690   4.814   3.609  15.949  0.1745 -0.0984 -0.0772
11425TIP3    H255691   4.906   3.697  15.867 -0.0612  0.3136  0.0991
11426TIP3   OH255692   1.803   4.036   6.109  0.7568 -0.7804 -0.2515
11426TIP3    H155693   1.899   4.034   6.118  1.0872  1.2285 -2.8928
11426TIP3    H255694   1.776   4.114   6.156  0.1980 -2.2168  1.8859
11427TIP3   OH255695   6.364   0.618   4.598 -0.2902 -0.7316 -0.8463
11427TIP3    H155696   6.296   0.677   4.631  1.5414  0.1618  1.4785
11427TIP3    H255697   6.343   0.533   4.636 -0.8349 -0.7519 -1.1889
11428TIP3   OH255698   6.711   1.257  15.056  0.2374  0.6330 -0.5016
11428TIP3    H155699   6.648   1.185  15.062  1.3893 -0.1330  3.7736
11428TIP3    H255700   6.796   1.214  15.043  0.6848  1.2908  0.2104
11429TIP3   OH255701   0.509   0.356   6.078 -0.5059 -0.1878  0.3633
11429TIP3    H155702   0.512   0.439   6.127  1.7874  0.4782 -0.8225
11429TIP3    H255703   0.416   0.335   6.073 -1.1164  2.1564  0.9802
11430TIP3   OH255704   3.909   4.726  15.476  0.9291  0.6730  0.1844
11430TIP3    H155705   3.860   4.708  15.556  0.3840  3.9151  0.6574
11430TIP3    H255706   3.847   4.709  15.405  0.0903  1.6779  0.6567
11431TIP3   OH255707   1.547   1.451   3.298  0.0127  0.3100  0.0764
11431TIP3    H155708   1.483   1.435   3.229 -1.0015  0.1200  1.0553
11431TIP3    H255709   1.569   1.363   3.331 -0.5042  0.4798  0.8865
11432TIP3   OH255710   5.139   3.458   3.529  0.4031  0.1909  0.1825
11432TIP3    H155711   5.145   3.519   3.455 -1.2724  0.6586  0.4147
11432TIP3    H255712   5.076   3.499   3.588  4.2681  1.6084  3.5816
11433TIP3   OH255713   0.933   3.101  13.727  0.5952 -0.1232 -0.0720
11433TIP3    H155714   0.959   3.020  13.771  2.2070 -0.1978 -1.1044
11433TIP3    H255715   1.007   3.160  13.740  0.3740  0.4249 -1.1945
11434TIP3   OH255716   6.779   3.981  15.329  0.8104 -0.3345 -0.7606
11434TIP3    H155717   6.823   3.900  15.303  1.5515 -0.2845  0.3159
11434TIP3    H255718   6.849   4.038  15.359  0.3988  1.0479 -2.3305
11435TIP3   OH255719   1.286   0.796   1.654  0.3762 -0.7363  0.2945
11435TIP3    H155720   1.269   0.849   1.576  1.4307  0.5704  0.9291
11435TIP3    H255721   1.214   0.733   1.656  1.1873 -1.8306 -2.6141
11436TIP3   OH255722   4.387   1.203  15.352  0.0693 -0.3672  0.5264
11436TIP3    H155723   4.377   1.284  15.402 -2.5574  0.4377 -1.1862
11436TIP3    H255724   4.480   1.180  15.360  0.6433  2.2883  1.8170
11437TIP3   OH255725   6.727   4.689   0.871 -0.0955  0.0040 -0.3499
11437TIP3    H155726   6.816   4.669   0.901 -0.1975 -0.6787 -0.4993
11437TIP3    H255727   6.707   4.774   0.910  0.7724  0.3353 -0.6248
11438TIP3   OH255728   4.621   3.117   5.203  0.3512  0.8483 -0.4592
11438TIP3    H155729   4.586   3.105   5.291 -0.5749  2.2477 -0.6348
11438TIP3    H255730   4.704   3.070   5.204 -0.9968 -1.6020  0.2768
11439TIP3   OH255731   0.434   6.652   0.990 -0.1119 -0.4216 -0.0034
11439TIP3    H155732   0.369   6.709   0.949  0.6710  0.8905  0.5507
11439TIP3    H255733   0.467   6.703   1.064  0.4870 -1.6653  0.5906
11440TIP3   OH255734   6.431   0.634  13.402  0.4613 -0.1432 -0.2307
11440TIP3    H155735   6.384   0.717  13.401  2.8839  1.2646 -0.4146
11440TIP3    H255736   6.522   0.658  13.421  0.7819 -2.9699  2.1788
11441TIP3   OH255737   1.100   2.921   2.203 -0.4014 -0.1127  0.7735
11441TIP3    H155738   1.166   2.956   2.142 -1.0227 -0.2589  0.0144
11441TIP3    H255739   1.018   2.962   2.176 -0.9577 -1.3743  0.5117
11442TIP3   OH255740   4.976   5.468   5.785  0.1338  0.2333 -0.1964
11442TIP3    H155741   5.000   5.412   5.710  0.4627 -0.4961  0.4423
11442TIP3    H255742   5.022   5.550   5.769  2.1253 -0.7309  0.3828
11443TIP3   OH255743   2.662   0.339   2.868 -0.3197  0.5323 -0.0787
11443TIP3    H155744   2.737   0.280   2.880 -0.5256  0.4572  0.8692
11443TIP3    H255745   2.586   0.281   2.864 -0.3454  0.6106 -1.0263
11444TIP3   OH255746   2.201   0.193  10.748  0.5878  0.3602 -0.3025
11444TIP3    H155747   2.151   0.170  10.670 -0.5188  1.1081  0.1832
11444TIP3    H255748   2.178   0.125  10.812  0.2666  0.6367 -0.1186
11445TIP3   OH255749   6.587   6.163  14.745  0.0810 -0.4413 -0.7508
11445TIP3    H155750   6.675   6.124  14.739  0.0905 -0.7895  1.1583
11445TIP3    H255751   6.596   6.230  14.813 -0.6959  0.8131 -1.8603
11446TIP3   OH255752   6.677   1.396  16.919 -0.1706  0.4042 -0.6832
11446TIP3    H155753   6.685   1.361  17.008  0.4387 -1.0736 -1.3076
11446TIP3    H255754   6.676   1.491  16.931  1.8501  0.2785  0.7710
11447TIP3   OH255755   3.291   1.146  14.326  0.0620 -0.0455 -0.5640
11447TIP3    H155756   3.266   1.160  14.235  0.1095  0.4460 -0.5031
11447TIP3    H255757   3.387   1.142  14.324  0.1978  2.3549 -0.2157
11448TIP3   OH255758   3.596   4.867   3.650 -0.4654 -0.2638 -0.4215
11448TIP3    H155759   3.664   4.856   3.716 -0.4353 -0.6926 -0.5267
11448TIP3    H255760   3.630   4.934   3.591  0.0138 -0.7231 -0.6702
11449TIP3   OH255761   6.230   4.116   1.139  0.2432  0.4492  0.0495
11449TIP3    H155762   6.305   4.175   1.135 -0.5650  1.4847 -0.1429
11449TIP3    H255763   6.165   4.157   1.083 -1.0413  0.3699  1.4620
11450TIP3   OH255764   2.479   1.962  13.590  0.6881 -0.4951 -0.1189
11450TIP3    H155765   2.544   1.901  13.556  2.3485  1.6856 -0.9393
11450TIP3    H255766   2.482   2.036  13.530 -0.9636  0.6158  1.1300
11451TIP3   OH255767   1.219   3.895  13.591 -0.1350 -0.0650  0.0032
11451TIP3    H155768   1.150   3.926  13.649 -0.4617  0.4544 -0.6663
11451TIP3    H255769   1.211   3.948  13.512 -0.7736 -1.8919 -1.2031
11452TIP3   OH255770   3.231   4.902  15.870 -0.3101  0.3223  0.5763
11452TIP3    H155771   3.308   4.846  15.885 -0.7090 -0.7851 -1.3901
11452TIP3    H255772   3.267   4.985  15.839  0.0267 -1.0001 -2.7134
11453TIP3   OH255773   2.848   3.218   1.612  0.6803  0.6751  0.0265
11453TIP3    H155774   2.896   3.144   1.649  0.1344  0.5213  0.4342
11453TIP3    H255775   2.873   3.292   1.667  1.4664  0.8671 -0.5698
11454TIP3   OH255776   0.789   5.384  14.105 -0.3110 -0.4102  0.5502
11454TIP3    H155777   0.702   5.344  14.117 -0.9060  0.4845 -0.6748
11454TIP3    H255778   0.829   5.332  14.035  0.4928 -1.3509  1.6811
11455TIP3   OH255779   5.668   0.890  11.782 -0.1232  0.3332 -0.3203
11455TIP3    H155780   5.688   0.878  11.689 -1.7183  1.0175 -0.7730
11455TIP3    H255781   5.745   0.857  11.827  2.6226  4.0221 -1.9694
11456TIP3   OH255782   3.995   4.923   2.808  0.9475 -0.0028  0.0636
11456TIP3    H155783   4.028   4.839   2.838 -1.6158 -1.5934 -1.3821
11456TIP3    H255784   4.005   4.921   2.713 -0.1525  0.8501 -0.0876
11457TIP3   OH255785   0.003   4.986   4.695 -0.4175  0.0944  0.1167
11457TIP3    H155786   0.094   4.963   4.714 -0.2677  0.7572  0.2039
11457TIP3    H255787   0.006   5.077   4.666 -1.2046  0.5315  1.3378
11458TIP3   OH255788   2.544   6.457  11.591  0.0153 -0.1001 -0.1189
11458TIP3    H155789   2.589   6.373  11.599 -2.0000 -1.3394 -1.2702
11458TIP3    H255790   2.485   6.460  11.666  0.6620  0.6791  0.3697
11459TIP3   OH255791   6.486   2.992   0.923  0.0286  0.5790  0.8014
11459TIP3    H155792   6.434   2.927   0.969 -0.1627 -0.4057 -0.7507
11459TIP3    H255793   6.508   3.058   0.989 -0.3480 -0.7168  2.2308
11460TIP3   OH255794   2.919   3.202  12.941  0.9867  0.0412  0.6663
11460TIP3    H155795   2.873   3.127  12.979  0.2844  0.4502  0.6333
11460TIP3    H255796   3.010   3.191  12.969  1.2509 -1.7993 -0.8569
11461TIP3   OH255797   4.686   4.553  14.083  0.1434  0.1343  0.1191
11461TIP3    H155798   4.710   4.644  14.101  0.8476 -0.3326  1.5893
11461TIP3    H255799   4.654   4.520  14.167  2.0241 -1.6531  0.1496
11462TIP3   OH255800   6.017   3.430   4.960  0.0125 -0.2537 -0.1812
11462TIP3    H155801   6.005   3.367   5.031  0.8581 -1.0798 -0.7760
11462TIP3    H255802   6.083   3.491   4.994  0.5770 -0.7753 -0.3516
11463TIP3   OH255803   5.337   3.190  14.424  0.4306  0.3985 -0.9143
11463TIP3    H155804   5.320   3.108  14.377 -0.7158  0.7919 -1.2151
11463TIP3    H255805   5.345   3.256  14.356  3.1723  0.2588 -0.7638
11464TIP3   OH255806   5.768   2.536  13.033 -0.0450 -0.2848  0.4023
11464TIP3    H155807   5.852   2.555  13.076 -0.0405 -0.6809  0.5711
11464TIP3    H255808   5.703   2.578  13.089  0.2263  2.1716 -1.0739
11465TIP3   OH255809   5.270   2.497   3.196 -0.4351 -0.2448  0.1887
11465TIP3    H155810   5.251   2.551   3.119  1.3926  0.6556  0.3549
11465TIP3    H255811   5.244   2.409   3.170 -2.4024  0.4940 -0.4787
11466TIP3   OH255812   6.203   1.107  16.320 -0.2725  0.2231  0.4654
11466TIP3    H155813   6.296   1.090  16.305 -0.4463  0.2717 -0.7087
11466TIP3    H255814   6.163   1.021  16.330 -0.4965  0.0666 -1.5121
11467TIP3   OH255815   3.048   1.910  16.714 -0.3250 -0.3372  0.3468
11467TIP3    H155816   3.047   2.003  16.693  0.9420 -0.5733 -0.8280
11467TIP3    H255817   3.138   1.883  16.699 -0.8825 -1.9535 -0.2051
11468TIP3   OH255818   5.907   1.608   0.510 -0.2554  0.1830 -0.0074
11468TIP3    H155819   5.978   1.557   0.471  1.0148  1.4214  0.6652
11468TIP3    H255820   5.856   1.639   0.435  0.0078 -0.5483 -0.5020
11469TIP3   OH255821   1.423   2.985  12.822 -0.0811 -0.1037 -0.2294
11469TIP3    H155822   1.458   2.898  12.807 -1.8119 -0.7377 -0.7082
11469TIP3    H255823   1.476   3.021  12.893  1.2620 -1.1649 -0.6816
11470TIP3   OH255824   1.113   5.631   2.575  0.1953  0.1656  0.3012
11470TIP3    H155825   1.034   5.673   2.608 -0.4750  0.2138 -1.2863
11470TIP3    H255826   1.082   5.549   2.537  1.1141 -0.4794  0.9406
11471TIP3   OH255827   0.360   3.875   2.414  0.7045  0.0732 -0.0843
11471TIP3    H155828   0.384   3.953   2.364  3.8529 -2.4422 -2.7924
11471TIP3    H255829   0.267   3.862   2.396  1.1058  0.8670 -3.0734
11472TIP3   OH255830   1.291   2.955   0.201 -0.0395 -0.2318  0.4357
11472TIP3    H155831   1.218   2.968   0.141 -0.4774 -1.7725  0.6220
11472TIP3    H255832   1.329   3.043   0.212 -0.2926  0.1510 -1.6279
11473TIP3   OH255833   4.676   6.548   1.443 -0.4712  0.6460 -0.2850
11473TIP3    H155834   4.712   6.461   1.457 -0.3107  0.4470 -1.8365
11473TIP3    H255835   4.631   6.569   1.525 -1.4717 -1.3489 -0.3015
11474TIP3   OH255836   3.043   0.234  11.128 -0.2547 -0.7119  0.1595
11474TIP3    H155837   2.998   0.185  11.060  0.4025 -0.7090 -0.2828
11474TIP3    H255838   2.987   0.310  11.143  0.1585 -0.1182 -1.1927
11475TIP3   OH255839   4.638   4.577  15.556  0.2590 -0.6237  0.1430
11475TIP3    H155840   4.619   4.602  15.646  0.1677 -1.5960  0.3930
11475TIP3    H255841   4.706   4.639  15.528 -2.1117  1.8771 -0.2476
11476TIP3   OH255842   1.107   3.865  11.570 -1.0679 -0.3108 -0.0233
11476TIP3    H155843   1.037   3.920  11.607 -1.6174  0.8107 -2.6500
11476TIP3    H255844   1.076   3.844  11.482  0.9710 -1.5561 -0.4473
11477TIP3   OH255845   3.575   2.829  10.905  0.2852 -0.5089 -0.6919
11477TIP3    H155846   3.660   2.869  10.891  1.0793 -0.9348  2.6175
11477TIP3    H255847   3.517   2.901  10.927  0.8109 -0.6919  1.3552
11478TIP3   OH255848   1.213   0.725   4.470  0.1664  0.5979  0.4667
11478TIP3    H155849   1.292   0.672   4.464 -1.0390 -1.1557 -0.5245
11478TIP3    H255850   1.166   0.707   4.388 -1.3935  1.3697  1.1614
11479TIP3   OH255851   0.615   2.859  15.674 -0.2687 -0.6687  0.3664
11479TIP3    H155852   0.595   2.893  15.587 -0.3961 -0.7459  0.3654
11479TIP3    H255853   0.661   2.776  15.657  0.0697 -0.4819  0.3682
11480TIP3   OH255854   5.427   1.477  15.248 -0.0457  0.1938  0.0042
11480TIP3    H155855   5.408   1.443  15.160  2.3075  0.1604 -0.5219
11480TIP3    H255856   5.437   1.572  15.235 -2.6648  0.6283  0.7956
11481TIP3   OH255857   0.581   0.492   0.760  0.4822  0.1613 -0.9658
11481TIP3    H155858   0.667   0.451   0.757  0.6056  0.1601  1.4541
11481TIP3    H255859   0.591   0.565   0.822 -1.4408 -0.3790  0.0405
11482TIP3   OH255860   4.364   0.820   0.713  0.0227  0.4184  0.4435
11482TIP3    H155861   4.391   0.729   0.709  2.1246  1.0683 -0.9750
11482TIP3    H255862   4.311   0.826   0.793  0.6247 -1.8190  1.0365
11483TIP3   OH255863   0.725   3.556  14.173  0.1718  0.4262  0.4831
11483TIP3    H155864   0.721   3.646  14.208 -1.8219  1.1112 -1.3983
11483TIP3    H255865   0.646   3.514  14.206 -0.3436  0.2518 -0.9263
11484TIP3   OH255866   3.922   3.899   3.579 -0.7408 -0.0878 -0.4422
11484TIP3    H155867   3.940   3.918   3.671 -2.3064 -1.3662  0.1524
11484TIP3    H255868   3.955   3.810   3.566  1.6571  0.9439 -1.7808
11485TIP3   OH255869   3.999   5.508  16.958 -0.0142  0.0386 -0.0379
11485TIP3    H155870   3.913   5.531  16.924 -0.4555  2.0570  2.3037
11485TIP3    H255871   4.032   5.590  16.996  2.3282 -1.0527  0.3340
11486TIP3   OH255872   4.644   0.858   3.493  0.4334 -0.6301  0.2364
11486TIP3    H155873   4.703   0.837   3.565  0.4540  0.5922  0.5863
11486TIP3    H255874   4.701   0.890   3.423  0.3628 -1.3058 -0.1395
11487TIP3   OH255875   0.482   0.802   1.662 -0.2195 -0.5967  0.8275
11487TIP3    H155876   0.417   0.862   1.624  0.1544 -0.6271  0.1289
11487TIP3    H255877   0.520   0.852   1.734  1.2195  0.6597 -0.7298
11488TIP3   OH255878   0.093   0.143  16.162 -0.3885 -0.3180 -0.3552
11488TIP3    H155879   0.162   0.126  16.226 -0.9579  0.9968  0.6356
11488TIP3    H255880   0.012   0.142  16.213 -0.8449  0.7769 -1.0345
11489TIP3   OH255881   6.477   2.255  12.086 -0.0560 -0.4300  0.2461
11489TIP3    H155882   6.438   2.275  12.001 -1.0581 -0.2953  0.7332
11489TIP3    H255883   6.548   2.195  12.065  0.2457  0.2524 -0.7774
11490TIP3   OH255884   4.454   3.906   4.436  0.0379 -0.0636  0.0460
11490TIP3    H155885   4.471   3.814   4.415 -4.9153 -0.8867 -1.0064
11490TIP3    H255886   4.418   3.904   4.525  1.8436  1.1367  0.8327
11491TIP3   OH255887   1.521   2.235   1.051 -0.1469  0.0998 -0.2395
11491TIP3    H155888   1.455   2.288   1.006  0.0841  0.6999  0.1290
11491TIP3    H255889   1.474   2.199   1.126 -0.2474 -0.0530 -0.3745
11492TIP3   OH255890   1.155   1.433  11.644 -0.2410 -0.1225  0.0690
11492TIP3    H155891   1.205   1.514  11.637  1.0193 -0.8396  0.5611
11492TIP3    H255892   1.073   1.459  11.686  0.5306  0.7585  1.0825
11493TIP3   OH255893   3.239   3.088  11.332  0.2180 -0.3272  0.5579
11493TIP3    H155894   3.332   3.090  11.308  0.4399  1.5539  1.4833
11493TIP3    H255895   3.224   3.172  11.377 -1.4591 -1.4726  2.1837
11494TIP3   OH255896   0.167   3.297  11.379 -0.0075  0.1155 -0.7152
11494TIP3    H155897   0.099   3.267  11.318 -0.6414  0.6391 -0.2821
11494TIP3    H255898   0.160   3.237  11.453  2.3780 -2.0214 -2.1608
11495TIP3   OH255899   1.074   0.953   0.820 -0.2960  0.6572  0.6293
11495TIP3    H155900   1.153   1.008   0.812 -1.2160  1.8941 -0.1556
11495TIP3    H255901   1.011   0.994   0.761 -0.7691 -1.7033 -0.5528
11496TIP3   OH255902   2.234   5.318   4.749 -0.2512  0.1714  0.5880
11496TIP3    H155903   2.303   5.383   4.749 -2.1594  2.2401  0.3411
11496TIP3    H255904   2.269   5.246   4.802  1.5012  1.8010  1.7093
11497TIP3   OH255905   1.678   0.329  13.004 -0.0001  0.3944  0.2568
11497TIP3    H155906   1.674   0.364  12.915  0.4595 -0.2723 -0.0305
11497TIP3    H255907   1.643   0.240  12.997 -0.6370  0.5971  0.8753
11498TIP3   OH255908   5.430   3.032   1.634 -0.1062 -0.0061  0.5340
11498TIP3    H155909   5.510   3.006   1.679 -0.9313 -0.5206  1.7368
11498TIP3    H255910   5.391   3.098   1.692 -0.8804 -0.2417  0.2820
11499TIP3   OH255911   6.212   0.248  14.592 -0.4739  0.6026 -0.4081
11499TIP3    H155912   6.247   0.170  14.550 -0.9589  0.7878 -1.1677
11499TIP3    H255913   6.270   0.263  14.667  0.5759  0.4264 -1.1676
11500TIP3   OH255914   2.225   3.784  13.105 -0.0744  0.2503  0.2850
11500TIP3    H155915   2.259   3.702  13.142  0.5210 -0.4320 -1.7232
11500TIP3    H255916   2.293   3.849  13.124  1.4717 -0.6682 -1.9182
11501TIP3   OH255917   6.005   2.923   1.489  0.1128  0.1655  0.1557
11501TIP3    H155918   5.997   2.859   1.418  0.4785 -0.0035  0.2644
11501TIP3    H255919   6.058   2.993   1.451  1.2668 -0.4443  0.6124
11502TIP3   OH255920   6.454   4.382  14.102 -0.1437 -0.2482  0.1005
11502TIP3    H155921   6.437   4.423  14.187  1.3366  0.4104  0.0884
11502TIP3    H255922   6.388   4.421  14.044 -2.2919 -1.9732  1.2803
11503TIP3   OH255923   5.207   3.443  14.873 -0.2926  0.0873  0.2421
11503TIP3    H155924   5.285   3.439  14.928 -1.4397  0.6359  1.9583
11503TIP3    H255925   5.236   3.412  14.787  1.5873 -0.5870  1.0971
11504TIP3   OH255926   3.012   0.980  13.775  0.4641  0.1960 -0.9870
11504TIP3    H155927   3.014   1.010  13.866 -1.1684 -1.2884 -0.4270
11504TIP3    H255928   3.049   1.052  13.725  2.8191  0.4333  1.0148
11505TIP3   OH255929   5.749   3.728   3.639 -0.5123 -0.5412 -0.6596
11505TIP3    H155930   5.843   3.714   3.629 -0.0833  1.6103  0.1416
11505TIP3    H255931   5.710   3.684   3.563  1.0792 -1.8613 -0.7496
11506TIP3   OH255932   1.070   3.642   0.077 -0.5236  0.2482  0.7754
11506TIP3    H155933   1.045   3.717   0.023 -0.2402  0.3134  0.7338
11506TIP3    H255934   0.989   3.592   0.088 -0.3424 -0.3783 -0.6640
11507TIP3   OH255935   1.795   6.339   5.450  0.8868 -0.5441  0.2615
11507TIP3    H155936   1.727   6.387   5.499  1.6245  1.5685 -0.7461
11507TIP3    H255937   1.806   6.258   5.500 -1.9437 -0.6852  0.7915
11508TIP3   OH255938   6.093   3.200  14.967 -0.0351  0.1450 -0.4198
11508TIP3    H155939   6.177   3.228  14.932 -0.8043  0.7912 -1.8013
11508TIP3    H255940   6.064   3.272  15.023  0.2941 -0.0397 -0.0155
11509TIP3   OH255941   0.718   6.062  11.911  0.4956  0.4302  0.2293
11509TIP3    H155942   0.688   5.984  11.864 -1.5728  0.9390  0.6623
11509TIP3    H255943   0.720   6.036  12.003  0.7652  0.5942  0.2720
11510TIP3   OH255944   1.459   4.049  13.365 -0.5080 -0.3332 -0.4989
11510TIP3    H155945   1.453   4.106  13.441 -1.5991 -2.9756  1.4955
11510TIP3    H255946   1.553   4.028  13.358 -0.4038 -0.0806  0.1455
11511TIP3   OH255947   3.587   6.619   4.466 -0.1211  0.3081  0.0869
11511TIP3    H155948   3.528   6.658   4.401 -2.1724 -0.2364  1.5775
11511TIP3    H255949   3.605   6.690   4.528  4.2329  1.7262 -2.5409
11512TIP3   OH255950   0.868   1.553  11.674  0.1525  0.4188  0.2354
11512TIP3    H155951   0.841   1.633  11.629 -0.9843  0.3098  0.7071
11512TIP3    H255952   0.792   1.495  11.668  0.1070  0.2778  2.0098
11513TIP3   OH255953   2.969   4.011  16.390 -0.2526 -0.0758 -0.8166
11513TIP3    H155954   2.972   4.063  16.470 -0.7744  0.5669 -1.2065
11513TIP3    H255955   2.910   3.939  16.410  0.4174 -0.4902 -0.2959
11514TIP3   OH255956   3.691   4.785  16.164 -0.2886 -0.9021  0.4001
11514TIP3    H155957   3.727   4.867  16.131  0.1190 -0.6682  1.4303
11514TIP3    H255958   3.676   4.733  16.085  1.1493 -0.5364 -0.1383
11515TIP3   OH255959   5.442   6.329   3.231 -0.4961 -0.3247  0.1512
11515TIP3    H155960   5.474   6.239   3.235  1.5011  0.2711 -1.5562
11515TIP3    H255961   5.361   6.324   3.181 -1.3787 -1.4255  1.6874
11516TIP3   OH255962   5.992   5.101  16.802  0.4149 -0.1000  0.4970
11516TIP3    H155963   6.039   5.122  16.722  1.6397  0.5283  1.3566
11516TIP3    H255964   5.900   5.093  16.776  0.8771 -0.3974 -1.0356
11517TIP3   OH255965   3.637   5.570   1.471  0.6752  0.0896  0.4840
11517TIP3    H155966   3.584   5.560   1.550  0.9876  0.3968  0.7366
11517TIP3    H255967   3.594   5.640   1.422  0.5834  0.0210  0.4671
11518TIP3   OH255968   5.777   0.330  14.077  0.2727 -0.5432  0.1514
11518TIP3    H155969   5.711   0.290  14.134 -0.1677  1.9329  1.4781
11518TIP3    H255970   5.860   0.294  14.107 -0.2033 -1.3750  0.5031
11519TIP3   OH255971   4.896   0.264  14.390 -0.7324  0.3294 -0.2990
11519TIP3    H155972   4.938   0.182  14.416  1.4445  1.5871  0.2509
11519TIP3    H255973   4.862   0.247  14.302 -0.4452 -1.2110 -0.1173
11520TIP3   OH255974   0.194   1.185  16.995 -0.2020 -0.5285  0.2080
11520TIP3    H155975   0.213   1.203  17.087  0.7490 -0.6566  0.0470
11520TIP3    H255976   0.254   1.242  16.947  1.1572 -2.3325 -0.3142
11521TIP3   OH255977   2.963   3.245  12.050  0.2093  0.4831  0.2030
11521TIP3    H155978   2.948   3.321  12.106 -2.8692  2.1461 -2.6310
11521TIP3    H255979   3.016   3.279  11.978 -0.6412 -0.1796 -0.7496
11522TIP3   OH255980   3.016   4.023  12.277  0.3019  0.0623  0.2550
11522TIP3    H155981   2.945   4.011  12.214 -0.7452  0.4600  1.3399
11522TIP3    H255982   3.054   4.108  12.255  0.1910  0.0237 -0.0777
11523TIP3   OH255983   5.870   4.831  10.455 -0.1842 -0.7827 -0.4173
11523TIP3    H155984   5.964   4.838  10.471 -0.2795 -2.1081  0.8448
11523TIP3    H255985   5.854   4.887  10.379  1.7407 -1.1428 -1.1159
11524TIP3   OH255986   5.189   1.610   1.849 -0.2664  0.2907  0.2462
11524TIP3    H155987   5.103   1.651   1.852 -0.8869 -0.8136 -1.5740
11524TIP3    H255988   5.241   1.658   1.913 -2.3346  0.7157  1.6535
11525TIP3   OH255989   0.608   2.480  12.838 -0.0723 -0.1737 -0.6511
11525TIP3    H155990   0.639   2.473  12.748 -1.6306 -2.3755 -1.0631
11525TIP3    H255991   0.614   2.391  12.873  1.3054  0.8150  1.7104
11526TIP3   OH255992   3.361   4.918  15.524  0.0831  0.2497  0.0128
11526TIP3    H155993   3.368   4.933  15.429  1.1300 -0.3964 -0.0213
11526TIP3    H255994   3.307   4.840  15.533  0.8502 -0.3050 -0.1042
11527TIP3   OH255995   5.105   3.958   5.635 -0.1724 -0.2061  0.0525
11527TIP3    H155996   5.063   4.044   5.632 -2.1395 -1.1513 -1.6275
11527TIP3    H255997   5.097   3.930   5.726 -1.2822  0.5756  0.2012
11528TIP3   OH255998   6.786   6.608   3.591  0.0360  0.2234  0.7761
11528TIP3    H155999   6.771   6.553   3.668  1.6938 -1.4842 -0.0764
11528TIP3    H256000   6.698   6.629   3.559 -0.6733  0.7105  2.9363
11529TIP3   OH256001   6.073   1.544   2.034 -0.7589  0.2209 -0.0916
11529TIP3    H156002   6.026   1.508   1.959 -0.4533 -0.1845 -0.0908
11529TIP3    H256003   6.029   1.627   2.053  0.2291  1.1708 -1.7914
11530TIP3   OH256004   2.077   2.777   2.252  0.0302 -0.2855 -0.2358
11530TIP3    H156005   2.105   2.703   2.305 -0.1970 -0.9296 -1.0001
11530TIP3    H256006   2.093   2.749   2.162  0.2286  0.7146 -0.5164
11531TIP3   OH256007   6.350   2.744   5.242 -0.4663  0.0425 -0.1087
11531TIP3    H156008   6.443   2.745   5.222 -1.1179  1.3498 -3.3426
11531TIP3    H256009   6.330   2.834   5.270 -0.8683 -0.0915  0.0464
11532TIP3   OH256010   3.489   6.371  15.973 -0.0913  0.2657 -0.4506
11532TIP3    H156011   3.488   6.463  15.946  1.8102  0.7733  1.1012
11532TIP3    H256012   3.444   6.371  16.058  0.3960 -0.1428 -0.1907
11533TIP3   OH256013   4.899   2.095  10.679 -0.4021 -0.5138  0.2857
11533TIP3    H156014   4.963   2.053  10.620 -1.1170 -2.6537  0.9684
11533TIP3    H256015   4.935   2.081  10.767 -0.2180  1.1235  0.4775
11534TIP3   OH256016   0.212   2.187   1.081 -0.3479 -0.3406  0.3991
11534TIP3    H156017   0.210   2.271   1.034  1.1889  0.8107  2.2931
11534TIP3    H256018   0.299   2.151   1.061 -1.2720 -1.8219 -0.9629
11535TIP3   OH256019   0.793   0.475   5.501 -0.1549 -0.3068  0.2417
11535TIP3    H156020   0.722   0.482   5.565 -0.2658  0.0060  0.0873
11535TIP3    H256021   0.750   0.441   5.422 -0.0486 -0.5411  0.2857
11536TIP3   OH256022   1.751   3.000   6.746 -0.3132 -0.1332  0.5663
11536TIP3    H156023   1.674   3.036   6.790 -0.1823  1.4691 -0.4547
11536TIP3    H256024   1.798   2.953   6.815 -0.9982  0.8628  1.7434
11537TIP3   OH256025   4.028   2.224   3.347 -0.4248 -0.0802 -0.1880
11537TIP3    H156026   4.043   2.311   3.310  0.5118 -0.4348 -0.6644
11537TIP3    H256027   4.085   2.167   3.296  0.8992 -0.5786  1.8121
11538TIP3   OH256028   6.117   1.024  13.376 -0.3598 -0.2666 -0.5691
11538TIP3    H156029   6.073   1.094  13.328  1.8294  1.0338 -0.7486
11538TIP3    H256030   6.210   1.036  13.357  0.3044 -1.4808  1.7042
11539TIP3   OH256031   2.689   3.141  15.151 -0.0812  0.3735 -0.6494
11539TIP3    H156032   2.701   3.171  15.241 -1.4791  0.0759 -0.3595
11539TIP3    H256033   2.631   3.065  15.158  0.2556 -0.0004 -1.7474
11540TIP3   OH256034   4.533   4.812   2.092  0.6300  0.6602  0.0440
11540TIP3    H156035   4.518   4.739   2.032  0.4009  0.0193  0.8840
11540TIP3    H256036   4.568   4.882   2.036 -0.4919  0.3903 -1.0011
11541TIP3   OH256037   3.791   0.418   5.698  0.5904 -0.0357 -0.4880
11541TIP3    H156038   3.718   0.454   5.646  0.2909 -1.0404 -0.7703
11541TIP3    H256039   3.816   0.490   5.755 -0.2216  0.5302 -0.8191
11542TIP3   OH256040   1.912   5.481  13.251  0.3630 -0.0480 -0.1319
11542TIP3    H156041   1.859   5.464  13.173  1.4014 -0.6081 -0.7229
11542TIP3    H256042   1.876   5.423  13.318 -1.0341  0.9914  0.0376
11543TIP3   OH256043   4.805   3.974  12.467  0.1271 -0.1164 -0.0241
11543TIP3    H156044   4.832   3.890  12.430  0.8911  0.8915 -1.8020
11543TIP3    H256045   4.825   4.038  12.399  1.0172  1.7294  1.9245
11544TIP3   OH256046   2.438   3.283  11.422 -0.1838 -0.0146  0.0274
11544TIP3    H156047   2.531   3.296  11.404 -0.4101  1.3482 -0.2165
11544TIP3    H256048   2.408   3.225  11.351  0.4366 -0.3541  0.0365
11545TIP3   OH256049   3.398   0.216   1.284 -0.3909 -0.5425 -0.1047
11545TIP3    H156050   3.410   0.236   1.191 -4.1601  1.5328 -0.2448
11545TIP3    H256051   3.341   0.139   1.285  0.2332 -1.0015  0.4922
11546TIP3   OH256052   0.406   2.018   3.521 -0.4702 -0.0790  0.6669
11546TIP3    H156053   0.495   2.050   3.506 -0.1296 -1.2742  0.1041
11546TIP3    H256054   0.412   1.970   3.604  0.2093 -3.0317 -1.0119
11547TIP3   OH256055   5.820   1.487  13.303 -0.1477 -0.0497  0.0139
11547TIP3    H156056   5.908   1.479  13.266 -0.1034 -0.7474  0.2578
11547TIP3    H256057   5.780   1.561  13.256  1.2275  1.4935  1.2255
11548TIP3   OH256058   0.130   5.311   0.937  0.1053 -0.0705  0.7651
11548TIP3    H156059   0.051   5.262   0.962  0.6460 -0.6805  1.3014
11548TIP3    H256060   0.097   5.395   0.904 -0.7808 -0.4349  0.7161
11549TIP3   OH256061   1.518   0.313  14.882  0.2825  0.4908 -0.5305
11549TIP3    H156062   1.535   0.235  14.935 -2.8508  0.3579  0.3632
11549TIP3    H256063   1.586   0.376  14.910 -0.4137 -0.0580  2.6471
11550TIP3   OH256064   5.293   2.191   0.017 -0.0996 -0.0839 -0.1810
11550TIP3    H156065   5.249   2.116   0.057 -1.5772  0.8431 -0.0192
11550TIP3    H256066   5.238   2.266   0.040  0.9052  0.9389 -1.0383
11551TIP3   OH256067   3.230   6.480   1.170 -0.1984  0.5572 -0.6668
11551TIP3    H156068   3.189   6.394   1.185  0.7105 -0.0402 -1.5194
11551TIP3    H256069   3.321   6.459   1.151  0.2399  1.7909  0.0165
11552TIP3   OH256070   3.620   5.414  12.876  0.0376  0.2850 -0.2583
11552TIP3    H156071   3.710   5.417  12.843 -0.3820  1.7721 -1.3237
11552TIP3    H256072   3.621   5.343  12.941  1.9462  0.2266 -0.3074
11553TIP3   OH256073   5.768   4.989   2.820  0.4389 -0.1444  0.2233
11553TIP3    H156074   5.827   5.056   2.854  1.2330 -0.8227  0.1873
11553TIP3    H256075   5.768   4.921   2.887  1.1621 -0.9923 -0.6180
11554TIP3   OH256076   1.920   2.112   4.715 -0.0357  0.5249  0.2097
11554TIP3    H156077   1.948   2.097   4.625 -0.0920  1.1259  0.0934
11554TIP3    H256078   1.917   2.024   4.754 -1.0520  0.1632 -0.6656
11555TIP3   OH256079   1.644   4.286   5.501 -0.2003  0.3863  0.6503
11555TIP3    H156080   1.664   4.200   5.539 -1.5361  0.2658  1.0876
11555TIP3    H256081   1.654   4.274   5.407  0.3912 -0.0409  0.7639
11556TIP3   OH256082   6.637   4.421  11.799 -0.2666 -0.3812 -0.0101
11556TIP3    H156083   6.647   4.365  11.723  1.2063  0.2008 -0.2554
11556TIP3    H256084   6.624   4.361  11.872  0.8294 -1.0336 -0.3422
11557TIP3   OH256085   0.637   2.743  12.989  0.1097  0.3271 -0.6425
11557TIP3    H156086   0.674   2.656  12.971  1.7675  1.1372 -1.2993
11557TIP3    H256087   0.580   2.730  13.065  1.1416 -1.1309 -0.0953
11558TIP3   OH256088   0.020   1.162   5.491  0.9497 -0.3590 -0.0405
11558TIP3    H156089  -0.066   1.126   5.471  1.2336 -1.9855  1.4961
11558TIP3    H256090   0.039   1.131   5.580  2.8840  0.4020 -0.1594
11559TIP3   OH256091   0.294   2.145   5.005 -0.1968 -0.6520  0.2259
11559TIP3    H156092   0.297   2.081   5.076  0.5784 -1.9378 -0.9278
11559TIP3    H256093   0.248   2.099   4.934  0.1864  0.1355 -0.5379
11560TIP3   OH256094   5.466   2.628  15.032 -0.3596  0.0839 -0.3802
11560TIP3    H156095   5.553   2.662  15.009  0.5051 -1.4802  0.4552
11560TIP3    H256096   5.455   2.651  15.124  0.2100 -1.7565  0.1821
11561TIP3   OH256097   5.251   2.377  13.956 -0.4906 -0.2363 -0.1814
11561TIP3    H156098   5.175   2.399  13.903 -1.3096  0.4660  1.2369
11561TIP3    H256099   5.216   2.368  14.045  1.1821  0.7905  0.6106
11562TIP3   OH256100   6.570   1.971  16.868  0.5949 -0.4714  0.5515
11562TIP3    H156101   6.602   1.932  16.786  2.3530  1.0497  0.4960
11562TIP3    H256102   6.563   2.064  16.849 -3.1061 -0.6105  0.8443
11563TIP3   OH256103   5.927   5.263  13.950  0.0444  0.5100 -0.1651
11563TIP3    H156104   5.929   5.279  13.855 -0.6503  2.2119  0.0708
11563TIP3    H256105   5.873   5.335  13.984 -0.1749 -0.4098  1.4599
11564TIP3   OH256106   5.620   1.240  14.688  0.0371  0.0376  0.3428
11564TIP3    H156107   5.550   1.177  14.705  0.4760 -0.6213 -0.2657
11564TIP3    H256108   5.697   1.185  14.671  0.2396  0.7292 -1.0149
11565TIP3   OH256109   6.386   5.663  10.765 -0.1969  0.4017 -0.0795
11565TIP3    H156110   6.382   5.636  10.673  1.2091  1.4817 -0.4787
11565TIP3    H256111   6.381   5.758  10.762  2.3478  0.5976  0.7643
11566TIP3   OH256112   0.395   0.274  15.087 -0.1239  0.6400  1.3457
11566TIP3    H156113   0.483   0.237  15.084 -0.0008  1.0337 -0.6196
11566TIP3    H256114   0.340   0.205  15.125  0.4084 -0.9125 -0.6344
11567TIP3   OH256115   0.340   5.883   2.212 -0.2571  0.4443 -0.5024
11567TIP3    H156116   0.263   5.938   2.222 -0.1604  0.4697  0.1483
11567TIP3    H256117   0.306   5.794   2.211 -0.6183  0.5710 -3.6586
11568TIP3   OH256118   1.140   2.978  12.570 -0.1680  0.6778  0.0954
11568TIP3    H156119   1.216   2.997  12.625 -1.7727  2.7464  1.6596
11568TIP3    H256120   1.093   2.909  12.617 -0.0200  0.3990 -0.1614
11569TIP3   OH256121   5.176   5.964  16.195 -0.0185 -0.0683 -0.0349
11569TIP3    H156122   5.170   6.035  16.259 -0.3903  0.1987 -0.3655
11569TIP3    H256123   5.227   6.000  16.123 -0.8452  0.1224 -0.5397
11570TIP3   OH256124   5.538   3.002   5.830 -0.6792  0.0259  0.2108
11570TIP3    H156125   5.621   3.048   5.833 -0.6312 -0.1374  1.5255
11570TIP3    H256126   5.544   2.937   5.900 -0.7566 -1.9639 -1.5789
11571TIP3   OH256127   3.102   2.505   4.275 -0.2104  0.5818 -0.5836
11571TIP3    H156128   3.073   2.596   4.267  0.3947  0.7441 -1.0085
11571TIP3    H256129   3.028   2.452   4.246 -1.5822  0.8268  2.2506
11572TIP3   OH256130   6.421   1.398  16.584  0.2360 -0.0221  0.1525
11572TIP3    H156131   6.399   1.347  16.506 -2.0840 -1.4347  1.6663
11572TIP3    H256132   6.504   1.360  16.614 -0.7997 -2.0991  0.5222
11573TIP3   OH256133   3.927   4.872   4.196  0.2989  0.1454  0.2331
11573TIP3    H156134   3.887   4.816   4.263  1.1974 -1.3849 -0.4686
11573TIP3    H256135   3.907   4.961   4.223 -1.5247 -0.5327  1.1644
11574TIP3   OH256136   2.003   5.487   5.071  0.1916  0.0391 -0.8965
11574TIP3    H156137   1.974   5.490   4.979 -2.0889 -0.0512 -0.1981
11574TIP3    H256138   2.040   5.399   5.080 -0.8220 -0.4506 -1.3784
11575TIP3   OH256139   3.601   6.145   1.388 -0.0671  1.0648 -0.0223
11575TIP3    H156140   3.641   6.080   1.331 -2.0535  1.1821 -1.6339
11575TIP3    H256141   3.674   6.193   1.426  1.3508 -0.5810 -0.6275
11576TIP3   OH256142   0.317   3.104   6.032  0.4593 -0.1414 -0.2009
11576TIP3    H156143   0.300   3.129   6.123  1.9442 -1.5373  0.4816
11576TIP3    H256144   0.373   3.175   5.999 -0.1807  0.4317 -0.0630
11577TIP3   OH256145   4.158   3.644   0.846 -0.0576  0.3814 -0.5088
11577TIP3    H156146   4.114   3.704   0.905  0.1290 -2.3376  2.4787
11577TIP3    H256147   4.092   3.621   0.780 -1.5402  0.2704  1.0072
11578TIP3   OH256148   1.126   6.754   2.367  0.2005  0.2650 -0.4458
11578TIP3    H156149   1.071   6.833   2.368 -0.5379 -0.2307 -1.1263
11578TIP3    H256150   1.125   6.726   2.275  2.7091  1.0054 -0.7242
11579TIP3   OH256151   1.897   6.557  11.511 -0.4044  0.3571  0.3627
11579TIP3    H156152   1.968   6.514  11.557 -1.2600 -0.6806  0.7329
11579TIP3    H256153   1.884   6.639  11.559 -0.8432 -0.4054  1.5924
11580TIP3   OH256154   4.865   5.640   5.256  0.2593  0.5368 -0.8719
11580TIP3    H156155   4.848   5.560   5.305  0.4019  0.9437 -0.1532
11580TIP3    H256156   4.940   5.619   5.201  0.0274  0.0447 -0.9996
11581TIP3   OH256157   5.305   5.783  16.953 -0.0845  0.5809  0.4750
11581TIP3    H156158   5.251   5.860  16.937 -0.8272  0.1673  0.9742
11581TIP3    H256159   5.289   5.760  17.044  1.4459  0.8433  0.8321
11582TIP3   OH256160   5.653   4.768   5.795  0.0751  0.0638  0.2667
11582TIP3    H156161   5.713   4.826   5.749  0.3508 -0.1666  0.3311
11582TIP3    H256162   5.593   4.737   5.727 -0.6190  1.1047  0.3947
11583TIP3   OH256163   0.628   1.314   5.247  0.0894 -0.4864  0.1883
11583TIP3    H156164   0.676   1.375   5.191 -1.2231  1.9370  1.6462
11583TIP3    H256165   0.594   1.248   5.186 -1.0451  1.9328 -1.8791
11584TIP3   OH256166   2.220   1.828   5.183 -0.3926 -0.3012 -0.4419
11584TIP3    H156167   2.222   1.816   5.278 -1.6853 -1.4596 -0.5406
11584TIP3    H256168   2.293   1.888   5.165 -2.2322  2.7523  1.6691
11585TIP3   OH256169   5.929   4.374  12.751 -0.7058 -0.6075  0.6656
11585TIP3    H156170   5.987   4.446  12.776 -1.6978 -0.7687  3.6218
11585TIP3    H256171   5.983   4.318  12.696  1.5425 -0.0369  2.2220
11586TIP3   OH256172   4.091   2.078  13.012 -0.0964  0.1420  0.0283
11586TIP3    H156173   4.090   2.018  12.937 -2.1509  0.9454 -0.6247
11586TIP3    H256174   4.004   2.071  13.050  0.8688 -0.0890  2.2363
11587TIP3   OH256175   0.256   3.544  13.799  0.2004  0.4267 -0.3668
11587TIP3    H156176   0.299   3.526  13.715  3.1265 -0.2634  1.2096
11587TIP3    H256177   0.279   3.635  13.818 -0.3926  0.5588 -0.2717
11588TIP3   OH256178   4.950   2.154   5.014 -0.0741  0.0168 -0.0566
11588TIP3    H156179   4.917   2.243   5.000 -0.2219  0.0009  0.1990
11588TIP3    H256180   5.035   2.167   5.055 -1.1269 -0.0054  2.1594
11589TIP3   OH256181   3.786   3.308  14.956  0.2491  0.2747  0.0766
11589TIP3    H156182   3.732   3.262  15.020  0.5529  0.2761  0.3308
11589TIP3    H256183   3.813   3.388  15.000  0.7732  0.0968  0.0872
11590TIP3   OH256184   4.089   6.573  14.133  0.1720 -0.8743 -0.2034
11590TIP3    H156185   4.151   6.502  14.148  0.3508 -0.1912  2.4770
11590TIP3    H256186   4.140   6.641  14.090  0.8097 -1.0987  0.1969
11591TIP3   OH256187   4.884   3.525   5.960 -0.2076  0.2957 -0.2286
11591TIP3    H156188   4.818   3.594   5.970  0.3005  0.7263  0.1853
11591TIP3    H256189   4.945   3.540   6.032  0.3557 -0.0861 -0.6287
11592TIP3   OH256190   6.337   4.453   0.123  0.0899  0.2763  0.6356
11592TIP3    H156191   6.425   4.462   0.160 -0.9719  4.4648  2.4178
11592TIP3    H256192   6.344   4.487   0.034  0.6357 -1.1525  0.1152
11593TIP3   OH256193   4.815   0.446   2.878  0.2808 -0.0180 -0.0034
11593TIP3    H156194   4.887   0.389   2.852 -0.0796 -0.3505 -0.2820
11593TIP3    H256195   4.840   0.479   2.964  0.3256 -0.8829  0.3224
11594TIP3   OH256196   2.769   4.400   3.163  0.1510  0.3004  0.3651
11594TIP3    H156197   2.763   4.478   3.219  0.4009 -0.5618  1.5970
11594TIP3    H256198   2.862   4.395   3.139  0.1255  0.4101  0.2421
11595TIP3   OH256199   6.751   5.853   5.384 -0.3187  0.1941 -0.9211
11595TIP3    H156200   6.735   5.774   5.332  0.1852 -0.4717 -0.0677
11595TIP3    H256201   6.750   5.924   5.320  1.6899 -0.7620 -2.0597
11596TIP3   OH256202   5.155   2.374  14.774 -0.2895 -0.3725 -0.0058
11596TIP3    H156203   5.177   2.435  14.845 -1.1448  2.0089 -1.7029
11596TIP3    H256204   5.119   2.298  14.819 -1.4099  1.3272  2.1309
11597TIP3   OH256205   4.376   2.175   2.186 -0.3035 -0.2696 -0.1779
11597TIP3    H156206   4.428   2.188   2.266 -2.1886 -0.8408  1.1841
11597TIP3    H256207   4.318   2.101   2.207 -2.4270  1.0532 -1.2404
11598TIP3   OH256208   6.184   0.282   5.838 -0.4210  0.3568 -0.3161
11598TIP3    H156209   6.248   0.352   5.850 -1.5074  0.9679  2.2418
11598TIP3    H256210   6.235   0.207   5.807  1.1429  1.5115 -0.5688
11599TIP3   OH256211   0.598   6.713   4.588 -0.2053 -0.1367  0.4349
11599TIP3    H156212   0.584   6.656   4.513 -0.3135 -0.1058  0.4316
11599TIP3    H256213   0.682   6.756   4.571 -1.0327  1.1590 -0.4926
11600TIP3   OH256214   2.660   2.538   4.027 -0.2760 -0.0928 -0.7713
11600TIP3    H156215   2.667   2.564   3.935 -3.2237 -0.2768 -1.0878
11600TIP3    H256216   2.571   2.561   4.052  0.3142 -0.5147  1.9190
11601TIP3   OH256217   4.143   3.212  14.094  0.3925 -0.3683 -0.0215
11601TIP3    H156218   4.061   3.210  14.144  0.8203 -1.1488  0.6686
11601TIP3    H256219   4.133   3.146  14.026  0.0281  0.3012 -0.6223
11602TIP3   OH256220   4.393   1.892  12.643 -0.5283  0.6499  0.0117
11602TIP3    H156221   4.482   1.862  12.658 -0.1414  1.0716 -1.3972
11602TIP3    H256222   4.395   1.986  12.663 -0.2333  1.0185 -1.6615
11603TIP3   OH256223   4.378   1.225   1.706  0.0907 -0.0654 -0.0968
11603TIP3    H156224   4.470   1.239   1.684 -0.2467 -0.1041 -1.5693
11603TIP3    H256225   4.364   1.130   1.696 -0.0278 -0.1142  0.4771
11604TIP3   OH256226   0.833   1.852   0.273  0.5216 -0.3409  0.0261
11604TIP3    H156227   0.900   1.893   0.329 -0.0007 -1.5652  1.5653
11604TIP3    H256228   0.883   1.813   0.201  1.0564  2.7764 -1.3833
11605TIP3   OH256229   2.334   6.193   4.772  0.1204  0.7324  0.1444
11605TIP3    H156230   2.418   6.204   4.727  0.5342 -0.4805  0.6174
11605TIP3    H256231   2.350   6.225   4.861  0.1129  0.3864  0.2697
11606TIP3   OH256232   5.283   6.008  11.493 -0.0152 -0.6484 -0.0918
11606TIP3    H156233   5.238   6.093  11.489 -0.0367 -0.5983  1.0729
11606TIP3    H256234   5.367   6.024  11.450 -0.2436 -0.1822 -0.3710
11607TIP3   OH256235   4.911   3.737  11.517 -0.2709  0.3066  0.3690
11607TIP3    H156236   4.875   3.812  11.564 -0.4106  0.4742 -0.0038
11607TIP3    H256237   4.967   3.693  11.581 -1.3730 -0.1280  1.0526
11608TIP3   OH256238   0.131   5.178   5.861 -1.2421  0.3184 -0.4502
11608TIP3    H156239   0.060   5.211   5.807 -0.7442  0.4765 -1.0209
11608TIP3    H256240   0.202   5.161   5.799 -0.8733 -0.0897  0.0752
11609TIP3   OH256241   6.055   4.358  13.036  0.3811  0.1073 -0.3771
11609TIP3    H156242   6.080   4.343  13.127  0.0734  0.2144 -0.2764
11609TIP3    H256243   5.961   4.373  13.038  0.3465 -0.0325 -0.7294
11610TIP3   OH256244   1.589   0.871  16.028  0.5000 -0.0807 -0.1131
11610TIP3    H156245   1.540   0.793  16.002 -1.9390  1.0971  0.7222
11610TIP3    H256246   1.676   0.859  15.990  0.2052 -3.2056  0.0367
11611TIP3   OH256247   4.039   4.639  16.983 -0.0956 -0.2887  0.8749
11611TIP3    H156248   3.971   4.669  17.043 -1.3399 -1.6432  0.1811
11611TIP3    H256249   4.022   4.685  16.901  0.3573  0.0154  0.9476
11612TIP3   OH256250   2.197   6.160  10.753 -0.0083  0.1126  0.2054
11612TIP3    H156251   2.114   6.118  10.776  0.8718 -1.6514  0.1964
11612TIP3    H256252   2.229   6.112  10.677  0.8654  1.0131 -0.0178
11613TIP3   OH256253   1.035   6.214  16.050  0.3285 -0.5665 -0.4375
11613TIP3    H156254   0.973   6.287  16.041 -0.1447 -0.9297 -0.1861
11613TIP3    H256255   1.035   6.172  15.964  0.7096 -0.1797 -0.6244
11614TIP3   OH256256   2.586   3.733  11.870  0.8984  0.0393 -0.2579
11614TIP3    H156257   2.511   3.734  11.809 -0.3070 -2.1036  1.1416
11614TIP3    H256258   2.661   3.709  11.815 -0.1602 -1.7947 -0.9541
11615TIP3   OH256259   1.949   4.149   1.616  0.6798 -0.5548  0.1910
11615TIP3    H156260   1.925   4.057   1.617  0.6113 -0.5248  1.5813
11615TIP3    H256261   1.865   4.196   1.624  0.2874 -0.2579 -4.2312
11616TIP3   OH256262   1.510   6.119   4.628 -0.4903 -0.1347 -0.4374
11616TIP3    H156263   1.582   6.090   4.684 -0.2207  0.6760 -0.3537
11616TIP3    H256264   1.456   6.173   4.686 -1.3194 -0.9747 -0.4253
11617TIP3   OH256265   6.091   5.297   3.764  0.4784  0.4170  0.0545
11617TIP3    H156266   6.027   5.305   3.835  1.1753 -2.5177  1.1020
11617TIP3    H256267   6.043   5.319   3.685 -0.7054  2.3228  1.2602
11618TIP3   OH256268   1.550   2.670  17.115  0.1539 -0.8514  0.9005
11618TIP3    H156269   1.592   2.594  17.075 -2.5066 -0.5079 -2.7496
11618TIP3    H256270   1.457   2.647  17.120 -0.7283  2.2105 -0.4467
11619TIP3   OH256271   6.602   6.647  13.945 -0.0306 -0.3540 -0.4381
11619TIP3    H156272   6.614   6.728  13.895 -0.0061 -0.5586 -0.7644
11619TIP3    H256273   6.687   6.603  13.939  0.1127 -0.1729  0.1554
11620TIP3   OH256274   6.460   1.784   5.859 -0.2363  0.2546  0.1802
11620TIP3    H156275   6.552   1.798   5.837 -0.3254  2.5545  1.0814
11620TIP3    H256276   6.417   1.866   5.836 -1.8380 -0.3397  0.9477
11621TIP3   OH256277   1.154   5.900   3.793  0.5156 -0.4784  0.0971
11621TIP3    H156278   1.170   5.980   3.843  3.9758 -1.4238  0.6491
11621TIP3    H256279   1.141   5.832   3.859  0.6989 -0.9434 -0.3361
11622TIP3   OH256280   4.498   5.783  12.769  0.0074  0.0889 -0.4521
11622TIP3    H156281   4.465   5.694  12.784 -1.4582  0.8540  1.0861
11622TIP3    H256282   4.556   5.799  12.844 -1.2369  1.0971  0.3293
11623TIP3   OH256283   6.392   0.738  10.950  0.5662 -0.7940  0.2299
11623TIP3    H156284   6.417   0.728  10.858  0.6460  0.6344  0.0896
11623TIP3    H256285   6.473   0.725  10.999  1.3440  2.2424 -0.1383
11624TIP3   OH256286   2.682   4.685  16.506  0.0935 -0.1310 -0.4957
11624TIP3    H156287   2.677   4.740  16.584 -2.2162 -1.7807  0.5357
11624TIP3    H256288   2.612   4.621  16.516  0.9098 -1.4988 -3.0640
11625TIP3   OH256289   3.055   3.230   2.984  0.4394  0.1963  0.2182
11625TIP3    H156290   3.083   3.218   3.075  0.1121 -3.1336 -0.0596
11625TIP3    H256291   3.129   3.202   2.932 -0.9617 -2.2690 -0.5075
11626TIP3   OH256292   5.536   5.820   4.779 -0.5429 -0.6729 -0.1855
11626TIP3    H156293   5.502   5.813   4.868 -0.6565  1.7546  0.0016
11626TIP3    H256294   5.620   5.774   4.781 -0.2324 -0.0496  1.3523
11627TIP3   OH256295   0.592   3.231  12.341 -0.4235  0.8852  0.8771
11627TIP3    H156296   0.671   3.223  12.288  1.0859  0.4092  3.1268
11627TIP3    H256297   0.522   3.197  12.285  0.9425  1.3008 -1.1461
11628TIP3   OH256298   4.704   2.566  11.597  0.0693 -0.0743 -0.0306
11628TIP3    H156299   4.671   2.653  11.575 -1.4846 -0.6455 -0.0258
11628TIP3    H256300   4.665   2.547  11.682 -0.6359 -1.2839 -0.6046
11629TIP3   OH256301   2.290   1.899   3.392  0.2740  0.2356  0.4746
11629TIP3    H156302   2.382   1.918   3.412  0.3845  2.9965 -2.3258
11629TIP3    H256303   2.294   1.832   3.324  0.1147 -1.2327  1.8726
11630TIP3   OH256304   3.057   2.986  13.262 -0.2151 -0.2637  0.3962
11630TIP3    H156305   3.001   2.946  13.329  0.4463 -1.2248  0.3750
11630TIP3    H256306   3.008   2.975  13.180  0.6620 -2.4815  0.1269
11631TIP3   OH256307   6.372   3.054   2.228  0.3436 -0.3076 -0.3881
11631TIP3    H156308   6.326   2.972   2.209  1.4875 -1.2381  0.7623
11631TIP3    H256309   6.309   3.106   2.278  0.1080 -1.0674  0.1123
11632TIP3   OH256310   3.324   1.200  15.082 -0.1257  0.0244  0.2517
11632TIP3    H156311   3.323   1.129  15.146  3.9118  1.8341  2.4392
11632TIP3    H256312   3.374   1.165  15.009 -0.3661 -0.2438  0.2122
11633TIP3   OH256313   3.404   4.730  14.017 -0.1664  0.4415 -0.2973
11633TIP3    H156314   3.368   4.655  13.970 -1.0903  0.1726  0.8169
11633TIP3    H256315   3.452   4.779  13.950  1.3565 -1.6877 -0.8167
11634TIP3   OH256316   5.633   6.160  16.116  0.1104  0.1788 -0.4965
11634TIP3    H156317   5.712   6.202  16.151  0.6066  0.3049 -1.7332
11634TIP3    H256318   5.619   6.204  16.032  0.4994 -1.9573 -1.7223
11635TIP3   OH256319   0.508   4.150  12.492 -0.0715 -0.2143  0.7747
11635TIP3    H156320   0.417   4.129  12.469 -0.3968  0.6897  1.2214
11635TIP3    H256321   0.525   4.097  12.570 -0.2376 -0.3254  0.7387
11636TIP3   OH256322   1.021   1.305   2.888  0.3258 -0.1654  0.2389
11636TIP3    H156323   1.097   1.269   2.842  1.0117  0.2490  1.0429
11636TIP3    H256324   0.958   1.233   2.891  1.6168 -1.2502  1.6584
11637TIP3   OH256325   3.331   0.128  16.589  0.3634 -0.3377  0.0670
11637TIP3    H156326   3.240   0.139  16.618  0.2725  1.2971 -0.7912
11637TIP3    H256327   3.335   0.037  16.560 -0.1085 -1.3899  3.1289
11638TIP3   OH256328   0.776   6.091   1.606 -0.7229  0.3763 -0.3404
11638TIP3    H156329   0.808   6.169   1.561 -1.4159  0.9541  0.1646
11638TIP3    H256330   0.816   6.018   1.559 -2.4148  0.9229 -2.6719
11639TIP3   OH256331   5.554   3.428  12.515  0.2690 -0.5637 -0.0536
11639TIP3    H156332   5.586   3.403  12.429 -0.2053  1.1522 -0.7401
11639TIP3    H256333   5.460   3.409  12.513  0.2409 -0.4418  0.0470
11640TIP3   OH256334   3.027   2.910  12.052 -0.7415 -0.4429 -0.0318
11640TIP3    H156335   2.987   2.839  12.001  1.7005 -2.0893  0.2188
11640TIP3    H256336   2.986   2.903  12.138 -2.5961  0.3331 -0.8167
11641TIP3   OH256337   1.995   4.743   0.095  0.0850 -0.3956 -0.1397
11641TIP3    H156338   1.927   4.730   0.029  0.6938 -0.8672 -0.6759
11641TIP3    H256339   2.026   4.832   0.080 -3.0936  1.2587  2.6133
11642TIP3   OH256340   1.347   3.435  13.324  0.3611  0.7353  0.3853
11642TIP3    H156341   1.365   3.521  13.363 -0.1232  0.4104  1.3422
11642TIP3    H256342   1.252   3.425  13.332  0.5806 -0.4924  1.5547
11643TIP3   OH256343   4.811   2.992  15.376 -0.2897  0.7820  0.1993
11643TIP3    H156344   4.873   3.004  15.448 -0.1300 -0.8372  0.3443
11643TIP3    H256345   4.844   3.050  15.307  0.4549  1.1594  0.8559
11644TIP3   OH256346   5.059   4.506   0.036 -0.2670  0.3307 -0.1672
11644TIP3    H156347   5.151   4.525   0.054  0.0377 -0.7448 -0.4928
11644TIP3    H256348   5.010   4.578   0.075  0.6414  0.2753  1.0877
11645TIP3   OH256349   3.745   3.376   5.142 -0.5603 -0.3174  0.1063
11645TIP3    H156350   3.719   3.330   5.222  0.7122  1.1025  1.3716
11645TIP3    H256351   3.839   3.361   5.135 -0.3859  0.8852 -0.2447
11646TIP3   OH256352   1.563   3.896  12.561  0.0712  0.0034 -0.1745
11646TIP3    H156353   1.510   3.882  12.483 -1.3025 -0.9015  0.9136
11646TIP3    H256354   1.502   3.889  12.634  1.0319  2.4301  0.9337
11647TIP3   OH256355   2.232   4.819   6.036 -0.5493 -0.0462 -0.0881
11647TIP3    H156356   2.181   4.823   6.117  1.2863 -0.9602  1.1339
11647TIP3    H256357   2.285   4.740   6.044 -0.0566  0.0506 -2.0182
11648TIP3   OH256358   0.355   0.583  13.083  0.2924  0.5160  0.4542
11648TIP3    H156359   0.369   0.629  13.000  0.1107 -0.6397 -0.2274
11648TIP3    H256360   0.408   0.632  13.146  0.1800  1.5993 -0.2692
11649TIP3   OH256361   4.708   0.466   4.157 -0.2950  0.5999 -0.1989
11649TIP3    H156362   4.687   0.400   4.223  1.1180 -0.4244 -0.7494
11649TIP3    H256363   4.667   0.546   4.189  0.3061  0.1022  1.8690
11650TIP3   OH256364   0.838   0.842   3.924 -0.5318 -0.2842 -0.2403
11650TIP3    H156365   0.795   0.917   3.883 -0.8036 -0.6575 -0.6414
11650TIP3    H256366   0.896   0.881   3.990  0.9066  0.3925 -1.8560
11651TIP3   OH256367   6.334   3.922  16.768  0.3457 -0.0202  0.0946
11651TIP3    H156368   6.306   3.938  16.858 -0.1549 -1.3868  0.1900
11651TIP3    H256369   6.390   3.844  16.774  1.3852  0.6529 -0.5897
11652TIP3   OH256370   2.525   3.378   4.650 -0.4365  0.5333 -0.2680
11652TIP3    H156371   2.574   3.322   4.590  0.0106  1.8071 -1.1241
11652TIP3    H256372   2.581   3.454   4.664 -0.5932  0.3150  1.6945
11653TIP3   OH256373   5.063   6.519  15.082  0.0088 -0.2090 -0.0342
11653TIP3    H156374   4.974   6.538  15.112  0.9427  0.1481  2.6431
11653TIP3    H256375   5.059   6.428  15.051 -1.8205  0.5706 -2.2145
11654TIP3   OH256376   3.487   2.711   0.915  0.1361 -0.3281  0.1481
11654TIP3    H156377   3.407   2.752   0.882  0.4608 -0.2074 -0.4948
11654TIP3    H256378   3.557   2.773   0.893  0.1080  0.7927  3.0141
11655TIP3   OH256379   4.168   4.132  16.813  0.5010 -0.4262  0.1549
11655TIP3    H156380   4.082   4.104  16.844  0.3191  0.3486  0.3788
11655TIP3    H256381   4.170   4.226  16.832  1.5062 -0.4946  0.4035
11656TIP3   OH256382   0.443   3.166  12.582  0.1539  0.0105 -0.3614
11656TIP3    H156383   0.382   3.140  12.514 -0.7736 -0.4881  0.6494
11656TIP3    H256384   0.505   3.224  12.538 -0.9944  0.4588 -1.4081
11657TIP3   OH256385   6.329   1.123  13.954  0.3187  0.2255  0.0308
11657TIP3    H156386   6.283   1.101  14.034  1.4031  0.9550  0.8736
11657TIP3    H256387   6.406   1.171  13.983  0.1381  1.5016 -1.5107
11658TIP3   OH256388   1.114   1.578   4.404 -1.0205  0.1365 -0.4892
11658TIP3    H156389   1.039   1.519   4.418 -0.2315 -0.5217  1.0912
11658TIP3    H256390   1.094   1.623   4.322 -2.6406 -0.8145 -0.6405
11659TIP3   OH256391   4.145   3.278   1.814  0.0982  0.2551  0.0314
11659TIP3    H156392   4.213   3.271   1.748 -1.3927  1.3848 -1.6790
11659TIP3    H256393   4.184   3.331   1.884  0.9691  0.9539 -0.9665
11660TIP3   OH256394   5.733   1.693   0.290  0.3313 -0.0450 -0.8384
11660TIP3    H156395   5.704   1.782   0.309  0.3014  0.1628 -1.8498
11660TIP3    H256396   5.708   1.678   0.199  1.3739 -0.6660 -1.0325
11661TIP3   OH256397   1.813   0.587  15.720 -0.6777  0.4979 -0.3136
11661TIP3    H156398   1.826   0.503  15.677 -0.3956  0.1023  0.5272
11661TIP3    H256399   1.901   0.614  15.747 -0.8667  0.6613  0.1468
11662TIP3   OH256400   3.107   1.943  15.584  0.0374 -0.2909  1.0934
11662TIP3    H156401   3.046   1.981  15.647 -0.1535  1.6167 -0.2242
11662TIP3    H256402   3.074   1.854  15.570 -1.9296  0.4194  1.0781
11663TIP3   OH256403   3.960   1.892  10.533 -0.6540  0.2644 -0.7249
11663TIP3    H156404   3.911   1.972  10.555 -0.5623  0.7513 -2.2438
11663TIP3    H256405   3.901   1.842  10.476 -1.1296 -1.2733  1.0758
11664TIP3   OH256406   2.991   4.825   0.031 -0.6701  0.2714  0.5426
11664TIP3    H156407   3.061   4.832  -0.035 -0.1803  1.9747  1.2156
11664TIP3    H256408   3.029   4.771   0.100 -0.8787 -0.8000 -0.1691
11665TIP3   OH256409   2.174   3.835   0.240 -0.7954  0.4626 -0.0493
11665TIP3    H156410   2.218   3.866   0.160  1.3704 -0.2063  0.8464
11665TIP3    H256411   2.127   3.756   0.212 -1.3960  1.1559 -1.0201
11666TIP3   OH256412   6.533   1.408  15.978  0.6027 -0.3876  0.1694
11666TIP3    H156413   6.548   1.486  16.032 -0.7756 -0.6214  0.9229
11666TIP3    H256414   6.504   1.341  16.040  0.9119 -1.2359 -0.5998
11667TIP3   OH256415   0.682   4.481  16.628  0.1855 -0.5835 -0.4177
11667TIP3    H156416   0.699   4.564  16.674 -0.0482 -0.6424 -0.2232
11667TIP3    H256417   0.676   4.506  16.536  0.5242 -0.4450 -0.4064
11668TIP3   OH256418   5.226   6.134  15.617  0.2166 -0.9664  0.3908
11668TIP3    H156419   5.191   6.074  15.683  0.2868 -0.9128  0.4778
11668TIP3    H256420   5.212   6.221  15.654  0.0751 -0.9269  0.2434
11669TIP3   OH256421   0.805   2.210   2.600 -0.2479  0.0843 -0.1998
11669TIP3    H156422   0.892   2.181   2.626  0.4182  2.2360  0.1017
11669TIP3    H256423   0.794   2.294   2.645 -1.3937  1.1363 -2.3701
11670TIP3   OH256424   5.461   2.467   2.777  0.2222  0.4689 -0.3018
11670TIP3    H156425   5.490   2.467   2.686  0.0966 -0.8389 -0.3564
11670TIP3    H256426   5.400   2.393   2.782  0.8126  0.0543  1.0144
11671TIP3   OH256427   0.216   5.881  11.278  0.1958 -0.1562  0.3388
11671TIP3    H156428   0.142   5.820  11.280  1.0738 -1.2047  1.3510
11671TIP3    H256429   0.209   5.924  11.193 -0.4232 -1.6988 -0.4188
11672TIP3   OH256430   2.663   1.055   5.184  0.5281 -0.1280 -0.1274
11672TIP3    H156431   2.695   1.117   5.119 -0.1853  0.8123  0.4068
11672TIP3    H256432   2.570   1.076   5.194  0.4573 -0.7675  0.6311
11673TIP3   OH256433   5.130   5.130  11.851 -0.1655 -0.2728 -0.0338
11673TIP3    H156434   5.058   5.087  11.897  0.3454 -2.1055 -0.9189
11673TIP3    H256435   5.203   5.127  11.912  0.5456 -2.8084 -0.9686
11674TIP3   OH256436   1.132   0.414  11.450 -0.2702 -0.5099  0.2969
11674TIP3    H156437   1.119   0.321  11.435 -2.0547 -0.1665 -0.3665
11674TIP3    H256438   1.093   0.431  11.535 -0.0160 -0.3381  0.3826
11675TIP3   OH256439   5.731   4.370   4.870 -0.2041  0.1559 -0.2291
11675TIP3    H156440   5.723   4.355   4.964  1.1878 -3.0805 -0.5409
11675TIP3    H256441   5.645   4.345   4.835 -1.3512  3.1726  0.3254
11676TIP3   OH256442   2.987   4.051  14.496 -0.0357  0.5891 -0.0283
11676TIP3    H156443   2.896   4.071  14.517 -0.2627 -0.2313 -0.2013
11676TIP3    H256444   3.015   3.991  14.565  0.8519  2.0320  0.8795
11677TIP3   OH256445   2.234   5.977  15.548  0.6674 -0.5100 -0.0719
11677TIP3    H156446   2.208   5.993  15.638 -0.1058 -1.6257 -0.0814
11677TIP3    H256447   2.329   5.975  15.550  0.6563 -0.4099  0.6933
11678TIP3   OH256448   5.824   5.004  15.389 -0.1071 -0.3456 -0.0967
11678TIP3    H156449   5.838   5.098  15.397  0.3480 -0.4576  0.4620
11678TIP3    H256450   5.825   4.988  15.295 -1.8980  0.4565 -0.2804
11679TIP3   OH256451   1.065   0.411  16.478 -0.4635  0.5420 -0.1159
11679TIP3    H156452   1.068   0.451  16.565 -1.3115  0.3618  0.0090
11679TIP3    H256453   1.029   0.480  16.422  0.0168  0.6343 -0.3129
11680TIP3   OH256454   5.354   1.432  16.895  0.1481  0.2975 -0.3598
11680TIP3    H156455   5.361   1.508  16.837 -0.7500 -0.0330 -0.9098
11680TIP3    H256456   5.298   1.370  16.847 -0.8237  0.1341  0.9858
11681TIP3   OH256457   6.217   2.422   3.558  0.8899  0.1236  0.2069
11681TIP3    H156458   6.215   2.356   3.627  0.6872  0.8196  0.8823
11681TIP3    H256459   6.162   2.493   3.591 -2.0080 -0.9474 -2.1530
11682TIP3   OH256460   2.669   6.423   0.539 -0.1080 -0.5470  0.3336
11682TIP3    H156461   2.594   6.397   0.487  0.0460 -1.9210  0.7766
11682TIP3    H256462   2.633   6.440   0.626 -0.2950  1.3116 -0.0801
11683TIP3   OH256463   2.793   4.418   0.589 -0.6905 -0.8369  0.5783
11683TIP3    H156464   2.830   4.504   0.605 -1.3579 -0.2986 -0.6891
11683TIP3    H256465   2.830   4.362   0.657  0.4824  0.2377  0.8272
11684TIP3   OH256466   0.840   5.748   1.958 -0.0718 -0.0406  0.2043
11684TIP3    H156467   0.783   5.715   2.028 -1.7307  0.3138 -0.9608
11684TIP3    H256468   0.834   5.682   1.889  1.1797 -0.1517  0.1899
11685TIP3   OH256469   1.458   2.835   3.969  0.0713  0.0538 -0.3761
11685TIP3    H156470   1.531   2.815   4.028  0.1936  1.1895 -0.1312
11685TIP3    H256471   1.385   2.783   4.003  0.9163 -1.5414 -0.9801
11686TIP3   OH256472   3.818   1.537  12.915  0.4604 -0.3990 -0.2758
11686TIP3    H156473   3.823   1.626  12.879 -0.8760 -0.0097  0.4376
11686TIP3    H256474   3.859   1.545  13.002 -0.1818 -0.3345  0.0268
11687TIP3   OH256475   0.319   4.298  16.925  0.0842 -0.3564  0.0646
11687TIP3    H156476   0.282   4.340  17.003 -1.6206 -1.0600 -0.3427
11687TIP3    H256477   0.317   4.367  16.858  1.0489  0.0887  0.4870
11688TIP3   OH256478   5.413   4.250  15.235 -0.2483 -0.0325  0.3168
11688TIP3    H156479   5.413   4.282  15.145 -1.7390  0.3071  0.4276
11688TIP3    H256480   5.383   4.160  15.229 -2.9147  0.7851  0.7148
11689TIP3   OH256481   5.744   4.080   3.161 -0.2661 -0.0136  0.1733
11689TIP3    H156482   5.700   4.139   3.222  0.9942  0.5615  0.5575
11689TIP3    H256483   5.716   4.109   3.075  0.9265  1.6735  0.3242
11690TIP3   OH256484   0.033   6.672   5.107 -0.2186 -0.6480  0.1300
11690TIP3    H156485  -0.052   6.707   5.134  0.0931 -0.9322  1.5187
11690TIP3    H256486   0.044   6.593   5.159  0.0526 -1.6761 -1.4310
11691TIP3   OH256487   5.818   0.603  16.718  0.3715  0.5323 -0.6196
11691TIP3    H156488   5.749   0.550  16.677  0.0921  0.0908  0.3930
11691TIP3    H256489   5.871   0.634  16.645  0.9359 -1.7074 -1.2268
11692TIP3   OH256490   2.584   6.767  14.995 -0.1653 -0.4411  0.1713
11692TIP3    H156491   2.590   6.705  14.922  1.1168 -0.8116  0.5741
11692TIP3    H256492   2.637   6.728  15.064  0.2978  0.9026  0.5893
11693TIP3   OH256493   2.027   6.201   4.783 -0.4901  0.1550 -0.4354
11693TIP3    H156494   2.086   6.276   4.777 -0.5359  0.2416  0.2368
11693TIP3    H256495   2.085   6.125   4.796 -0.6461  0.5244  2.6677
11694TIP3   OH256496   5.581   3.394   3.012 -0.4730  0.0049 -0.9521
11694TIP3    H156497   5.610   3.460   3.075 -0.1529  0.4383 -1.5447
11694TIP3    H256498   5.485   3.394   3.020 -0.4340  0.0450 -0.4570
11695TIP3   OH256499   1.351   2.997   2.039  0.5452 -0.2208  0.4470
11695TIP3    H156500   1.444   2.976   2.026  0.8088  0.7886  0.6357
11695TIP3    H256501   1.313   2.995   1.952  1.1866  1.3613  0.1161
11696TIP3   OH256502   0.246   0.022  13.143 -0.2542  1.0418 -0.0958
11696TIP3    H156503   0.234  -0.071  13.161  0.4254  1.1361  0.9208
11696TIP3    H256504   0.183   0.066  13.201  1.3930  1.3188  1.5629
11697TIP3   OH256505   6.096   5.626  12.129 -0.4973  0.0968  0.4062
11697TIP3    H156506   6.007   5.651  12.106 -1.0304 -2.3314 -0.3084
11697TIP3    H256507   6.142   5.620  12.045  0.3861  1.4745  0.7808
11698TIP3   OH256508   6.498   1.086  16.758 -0.0627  0.1066  0.4375
11698TIP3    H156509   6.466   0.997  16.775  0.9617  0.2030  3.0830
11698TIP3    H256510   6.591   1.075  16.739 -0.4304  0.3995 -1.6669
11699TIP3   OH256511   0.532   3.103   2.704  0.4407 -0.0307  0.2944
11699TIP3    H156512   0.572   3.146   2.629  1.4440 -0.1824  0.7369
11699TIP3    H256513   0.484   3.029   2.667  1.1952 -0.2920 -0.1634
11700TIP3   OH256514   4.501   2.977  13.044  0.2058  0.2316 -0.4382
11700TIP3    H156515   4.501   3.009  13.134 -1.0267  0.1790 -0.4143
11700TIP3    H256516   4.580   3.016  13.005  0.8455  0.1084  0.6995
11701TIP3   OH256517   4.926   5.513   4.319  0.2412  0.2543  0.0734
11701TIP3    H156518   4.940   5.598   4.278  0.4825 -0.3933 -1.2494
11701TIP3    H256519   4.831   5.504   4.324  0.2134  0.5285  0.0356
11702TIP3   OH256520   3.119   1.053  15.841 -0.3614 -0.1406  0.2443
11702TIP3    H156521   3.183   0.986  15.867  0.4497  0.2216 -0.7942
11702TIP3    H256522   3.152   1.134  15.880 -0.2715  0.0199 -0.1694
11703TIP3   OH256523   3.736   0.062   5.027 -0.2285  0.0432 -0.1174
11703TIP3    H156524   3.810   0.121   5.032 -0.7505  0.6808  0.1321
11703TIP3    H256525   3.662   0.118   5.003 -0.5388 -0.6554 -0.8300
11704TIP3   OH256526   6.133   5.154   0.796 -1.1537  0.3601 -0.2905
11704TIP3    H156527   6.168   5.096   0.864  1.8429  0.7609 -1.4041
11704TIP3    H256528   6.099   5.229   0.844 -3.7396 -1.5907  1.0679
11705TIP3   OH256529   1.054   6.480   3.176  0.3082 -0.0371  0.1805
11705TIP3    H156530   0.990   6.530   3.226  0.8163  0.8268 -0.0267
11705TIP3    H256531   1.059   6.524   3.091  0.7553 -0.4384 -0.0050
11706TIP3   OH256532   1.898   2.538   2.068  0.7642  0.0889 -0.6120
11706TIP3    H156533   1.822   2.504   2.116 -0.0653  0.7846 -1.4198
11706TIP3    H256534   1.960   2.465   2.067  0.3541 -0.2971  0.5691
11707TIP3   OH256535   2.269   4.002   0.570  0.1517 -0.9255 -0.3288
11707TIP3    H156536   2.229   4.089   0.560 -1.3993 -0.9532  4.4999
11707TIP3    H256537   2.363   4.019   0.574 -0.1566  0.6151  0.9654
11708TIP3   OH256538   2.751   4.377   4.475 -0.3336  0.1075 -0.3222
11708TIP3    H156539   2.660   4.349   4.480 -0.0931 -0.4931  1.1124
11708TIP3    H256540   2.790   4.323   4.407 -0.9955  0.2004 -0.7733
11709TIP3   OH256541   1.639   5.580  14.664  0.6041  0.1854  0.2341
11709TIP3    H156542   1.663   5.662  14.622  0.4046  0.2266  0.2007
11709TIP3    H256543   1.545   5.572  14.650  0.5407  0.1853  0.6514
11710TIP3   OH256544   3.620   1.630  14.272 -0.4832  0.7371 -0.1833
11710TIP3    H156545   3.635   1.685  14.348  0.1131  2.1541 -1.3126
11710TIP3    H256546   3.670   1.672  14.201  0.1908 -1.3710 -1.0042
11711TIP3   OH256547   3.709   3.314   2.559 -0.3619  0.4158 -0.1340
11711TIP3    H156548   3.792   3.285   2.520  0.1400  1.1845  0.3429
11711TIP3    H256549   3.663   3.357   2.487  0.3092  1.3174 -0.0290
11712TIP3   OH256550   1.543   1.887  16.573  0.0415  0.0217 -0.3121
11712TIP3    H156551   1.509   1.976  16.578  1.6275  0.7215 -1.6676
11712TIP3    H256552   1.558   1.872  16.480  2.3542 -0.6731  0.1458
11713TIP3   OH256553   5.501   5.277  15.469 -0.2603  0.2297  0.4758
11713TIP3    H156554   5.487   5.190  15.430  2.4384 -0.6064  1.1987
11713TIP3    H256555   5.469   5.269  15.559  1.4206 -0.5490  1.0303
11714TIP3   OH256556   1.994   2.492   4.851 -0.4939  0.3517 -0.3483
11714TIP3    H156557   2.043   2.546   4.913  0.0978 -2.6661  1.9382
11714TIP3    H256558   1.902   2.513   4.870 -0.2789  0.4220  0.6457
11715TIP3   OH256559   3.703   5.611   6.108  0.3204  0.2206 -0.2244
11715TIP3    H156560   3.721   5.520   6.128 -1.6817 -0.5100 -1.5182
11715TIP3    H256561   3.734   5.623   6.018  0.5141  0.8002 -0.0857
11716TIP3   OH256562   5.531   4.963  15.778  0.1654  0.0132 -0.2895
11716TIP3    H156563   5.474   5.039  15.790  1.0618  0.6190  0.1787
11716TIP3    H256564   5.520   4.939  15.686 -0.2563  0.6033 -0.3922
11717TIP3   OH256565   2.300   5.419  15.952 -0.3373 -0.0294  0.2220
11717TIP3    H156566   2.388   5.416  15.915 -0.7337  0.4175 -0.7786
11717TIP3    H256567   2.269   5.328  15.947  0.5277 -0.4165  1.7358
11718TIP3   OH256568   5.892   3.196   5.503 -0.1774 -0.9135  0.1162
11718TIP3    H156569   5.930   3.280   5.476 -1.2728 -0.9180 -1.4451
11718TIP3    H256570   5.968   3.144   5.530  0.9673 -0.8835 -2.8511
11719TIP3   OH256571   2.258   6.773   5.292  0.6436 -0.2212  0.1293
11719TIP3    H156572   2.332   6.818   5.251 -0.7151  0.4075 -1.6523
11719TIP3    H256573   2.299   6.709   5.350  2.5969  1.6200  0.8509
11720TIP3   OH256574   0.203   1.475  16.872  0.2359  0.9744  0.1972
11720TIP3    H156575   0.131   1.434  16.823 -0.6234  1.6191  0.9043
11720TIP3    H256576   0.278   1.472  16.812 -0.0062 -0.9610 -0.0229
11721TIP3   OH256577   2.561   0.778  15.559  0.0458  0.6036  0.2612
11721TIP3    H156578   2.507   0.848  15.522 -0.5239 -0.2972 -0.6525
11721TIP3    H256579   2.499   0.722  15.606  0.5309  0.8397  1.1888
11722TIP3   OH256580   6.418   2.912  11.472 -0.0653  0.1495 -0.0419
11722TIP3    H156581   6.496   2.872  11.435  1.1573  1.6877  0.8548
11722TIP3    H256582   6.443   3.002  11.492 -2.0526  0.6674  0.2695
11723TIP3   OH256583   1.578   0.703   4.258  0.1362 -0.0937 -0.0498
11723TIP3    H156584   1.527   0.675   4.182  0.0281 -0.0415  0.0041
11723TIP3    H256585   1.553   0.794   4.273  0.8744  0.1927 -0.5367
11724TIP3   OH256586   6.573   0.526  13.115 -0.1149  0.1121  0.0672
11724TIP3    H156587   6.492   0.575  13.103 -0.2566 -0.2648 -0.5584
11724TIP3    H256588   6.635   0.589  13.151 -0.6016  0.4780  0.2621
11725TIP3   OH256589   2.790   3.848  14.887  0.9462  0.2248 -0.1014
11725TIP3    H156590   2.784   3.857  14.982  2.4387 -2.5248  0.3124
11725TIP3    H256591   2.722   3.784  14.865  1.8741 -0.6014 -0.6113
11726TIP3   OH256592   0.458   5.214  16.591 -0.5010 -0.3373  0.6407
11726TIP3    H156593   0.434   5.152  16.523  0.1616 -1.5354  1.4898
11726TIP3    H256594   0.504   5.162  16.657  3.0250  1.5629 -0.1796
11727TIP3   OH256595   1.159   5.530   0.646 -0.1260  0.1791  0.2558
11727TIP3    H156596   1.243   5.490   0.624 -0.7123  0.0344 -1.8693
11727TIP3    H256597   1.182   5.601   0.706  1.7276  1.1793 -1.5571
11728TIP3   OH256598   1.633   2.063   5.318  0.2252  0.0623  0.3683
11728TIP3    H156599   1.653   2.114   5.396  0.7407 -0.8898  0.8755
11728TIP3    H256600   1.628   2.127   5.247  0.7695  0.8093  1.0032
11729TIP3   OH256601   4.336   5.335  10.502  0.0759  0.3036  0.5119
11729TIP3    H156602   4.427   5.303  10.502 -0.5549 -1.5416  0.1589
11729TIP3    H256603   4.335   5.403  10.570  1.7376  0.4106  0.4622
11730TIP3   OH256604   3.873   5.670  13.326  0.0654  0.0354 -0.1009
11730TIP3    H156605   3.855   5.759  13.356  1.0651 -0.3046  1.6031
11730TIP3    H256606   3.952   5.678  13.272  0.0498  0.2218 -0.0957
11731TIP3   OH256607   3.552   0.258   3.699  0.4539  0.3375 -0.2557
11731TIP3    H156608   3.479   0.235   3.642 -0.1800 -1.2332  1.1658
11731TIP3    H256609   3.629   0.223   3.654  0.2146  0.9683 -1.1768
11732TIP3   OH256610   5.819   4.381  13.179  0.0416  0.0078 -0.7006
11732TIP3    H156611   5.895   4.406  13.231 -0.0899  0.9675 -0.9741
11732TIP3    H256612   5.744   4.402  13.235 -0.0978  1.0004 -1.2531
11733TIP3   OH256613   1.997   3.461   1.515 -0.4012 -0.4686 -0.2591
11733TIP3    H156614   2.025   3.500   1.598 -1.1655 -0.8130  0.1559
11733TIP3    H256615   2.070   3.404   1.490 -0.4170 -0.8006  0.4531
11734TIP3   OH256616   0.510   6.108   0.047 -0.6906  0.7780 -0.1682
11734TIP3    H156617   0.428   6.104  -0.002 -1.6572  2.9364  1.2479
11734TIP3    H256618   0.493   6.060   0.127 -0.1547  0.1577 -0.4146
11735TIP3   OH256619   2.435   1.090   0.167  0.4282 -0.1723  0.4285
11735TIP3    H156620   2.457   1.097   0.260 -0.0167  0.7319  0.4719
11735TIP3    H256621   2.347   1.129   0.161  0.8167  0.5705 -0.5128
11736TIP3   OH256622   0.807   0.338   5.035 -0.5790  0.0405 -0.4200
11736TIP3    H156623   0.779   0.248   5.018 -0.7566  0.5742 -3.2849
11736TIP3    H256624   0.901   0.331   5.052 -0.8858 -0.8500  0.9037
11737TIP3   OH256625   3.854   2.155  10.610  0.1620 -0.0260  0.5787
11737TIP3    H156626   3.766   2.121  10.628  0.4641 -0.1375  1.9185
11737TIP3    H256627   3.855   2.242  10.649  0.5906  0.0305  0.4460
11738TIP3   OH256628   2.664   1.264   0.649  0.0873 -0.2073  0.2644
11738TIP3    H156629   2.687   1.180   0.608 -1.9278 -1.3991  1.4791
11738TIP3    H256630   2.659   1.244   0.743 -1.1825  1.0821  0.4830
11739TIP3   OH256631   2.037   6.170   5.514  0.1015 -0.2264  0.1665
11739TIP3    H156632   2.021   6.078   5.537 -0.8699  0.2261  1.3537
11739TIP3    H256633   2.021   6.218   5.596  4.0626  0.6510  0.5068
11740TIP3   OH256634   0.454   5.932  15.716 -0.1498  0.0805 -0.3666
11740TIP3    H156635   0.404   6.000  15.672 -0.6790  0.0371  0.1595
11740TIP3    H256636   0.546   5.951  15.695 -0.0619  2.5273  1.9599
11741TIP3   OH256637   0.414   1.774  11.659  0.2937 -0.2189 -0.0026
11741TIP3    H156638   0.453   1.751  11.743  0.7013  0.6969  0.0555
11741TIP3    H256639   0.432   1.698  11.604  0.2764 -0.7013  0.6478
11742TIP3   OH256640   0.026   1.432  14.872  0.4295 -0.1602  0.2396
11742TIP3    H156641  -0.004   1.352  14.915 -0.7569  0.4270  0.5194
11742TIP3    H256642   0.011   1.501  14.937  1.6985  0.2546  0.1082
11743TIP3   OH256643   4.239   2.911   1.732  0.0452 -0.2761 -0.2755
11743TIP3    H156644   4.182   2.845   1.771 -0.3024  0.0219 -0.2734
11743TIP3    H256645   4.307   2.861   1.688 -0.5618 -0.6490 -0.8075
11744TIP3   OH256646   5.720   0.207  16.026  0.5310  0.0094  0.3139
11744TIP3    H156647   5.763   0.192  16.110 -0.8373 -2.5933  0.5923
11744TIP3    H256648   5.792   0.209  15.962  1.2524 -2.7579  0.9669
11745TIP3   OH256649   1.828   4.637  16.611 -0.4301  0.2972 -0.2666
11745TIP3    H156650   1.920   4.627  16.587 -0.4237 -0.2285 -0.0325
11745TIP3    H256651   1.803   4.551  16.645 -1.0171  0.4294 -0.3689
11746TIP3   OH256652   1.673   3.463  12.814  0.3116 -0.4389 -0.2628
11746TIP3    H156653   1.767   3.456  12.797  0.6788  2.1454  0.4442
11746TIP3    H256654   1.662   3.427  12.902  0.4734 -1.5688 -0.6918
11747TIP3   OH256655   3.917   0.177  13.985 -0.3168 -0.0581 -0.3203
11747TIP3    H156656   3.907   0.083  13.975 -1.0770  0.0009 -0.1816
11747TIP3    H256657   4.000   0.198  13.942  0.4210 -0.9420  0.6632
11748TIP3   OH256658   3.977   4.845   2.525  0.3297  0.8467 -0.2609
11748TIP3    H156659   3.980   4.750   2.531 -0.0026  0.9368  1.3670
11748TIP3    H256660   4.043   4.867   2.459 -0.1960 -0.5563 -1.2614
11749TIP3   OH256661   4.667   5.526   1.483 -0.7596  0.0149 -0.2975
11749TIP3    H156662   4.576   5.528   1.511 -0.5850 -1.4368  0.4504
11749TIP3    H256663   4.692   5.434   1.491  1.3675  0.6960  1.4970
11750TIP3   OH256664   5.110   4.295  14.211 -0.8359 -0.2165 -0.5734
11750TIP3    H156665   5.203   4.305  14.231 -0.6725  0.1786 -1.5101
11750TIP3    H256666   5.105   4.301  14.115 -1.6459 -1.6958 -0.6308
11751TIP3   OH256667   1.474   6.396   1.440  0.7344  0.5553  0.4169
11751TIP3    H156668   1.549   6.398   1.381  0.1469 -1.1787 -0.4306
11751TIP3    H256669   1.507   6.429   1.524  2.4963 -0.4344  0.1176
11752TIP3   OH256670   1.051   2.273   4.336 -0.1150 -0.0980  0.1464
11752TIP3    H156671   0.956   2.264   4.341 -0.0284 -2.7388 -1.6693
11752TIP3    H256672   1.084   2.190   4.370  1.5967  1.3339  2.0488
11753TIP3   OH256673   6.304   5.639  11.197  0.3677 -0.0150  0.2423
11753TIP3    H156674   6.364   5.632  11.271 -2.2472  0.9912  2.5666
11753TIP3    H256675   6.277   5.549  11.179 -0.6324 -0.0853  1.9803
11754TIP3   OH256676   0.742   4.764   1.466 -0.2927  0.1076 -0.1933
11754TIP3    H156677   0.807   4.701   1.437  0.8410  0.9371  0.5201
11754TIP3    H256678   0.662   4.712   1.477  0.7534 -1.3167  0.9186
11755TIP3   OH256679   0.215   2.271  13.743 -0.4073  0.5492  0.1519
11755TIP3    H156680   0.306   2.270  13.773 -0.3590  0.6198  0.0107
11755TIP3    H256681   0.172   2.336  13.798  0.2019  2.3627 -1.4311
11756TIP3   OH256682   2.266   1.463   5.311 -0.0556  0.0365  0.0745
11756TIP3    H156683   2.173   1.485   5.301  0.0169  0.6932  0.7809
11756TIP3    H256684   2.269   1.412   5.393 -0.1868 -2.4400 -1.4104
11757TIP3   OH256685   0.720   5.035   1.261  0.8201  0.2927 -0.0748
11757TIP3    H156686   0.649   4.992   1.309  0.1711  2.0485  0.5724
11757TIP3    H256687   0.795   5.032   1.321  0.4079  1.2150  0.4931
11758TIP3   OH256688   1.353   1.897   4.752 -0.3710  0.5480 -0.3927
11758TIP3    H156689   1.318   1.830   4.693  0.5718  0.1206 -0.4836
11758TIP3    H256690   1.277   1.930   4.799 -0.6647 -1.7711  0.8386
11759TIP3   OH256691   2.157   4.660  13.786 -0.7358  0.1239 -0.4229
11759TIP3    H156692   2.099   4.584  13.795  0.0420 -0.3943  0.3562
11759TIP3    H256693   2.188   4.676  13.875 -1.0947  1.5237 -0.5474
11760TIP3   OH256694   6.520   5.269  12.954 -0.3234  0.4446 -0.2579
11760TIP3    H156695   6.571   5.329  13.008  0.2307 -1.3350  1.2215
11760TIP3    H256696   6.453   5.325  12.913  1.2415  2.3575 -0.2609
11761TIP3   OH256697   1.756   4.280   2.147  0.1594  0.1899  0.6158
11761TIP3    H156698   1.732   4.254   2.235  2.5693 -1.0593  0.9383
11761TIP3    H256699   1.803   4.204   2.111 -0.4893  0.8026 -1.6097
11762TIP3   OH256700   5.820   4.001   4.406  0.6109 -0.2117  0.4373
11762TIP3    H156701   5.742   3.953   4.375  0.4125  0.3315  0.0887
11762TIP3    H256702   5.887   3.933   4.416  0.0910 -0.6887  0.7521
11763TIP3   OH256703   1.360   0.035  15.306  0.6305 -0.0300  0.6667
11763TIP3    H156704   1.328  -0.054  15.319 -0.1400  0.0011 -0.8703
11763TIP3    H256705   1.344   0.079  15.389 -3.3728 -0.0241 -0.0298
11764TIP3   OH256706   4.289   6.258   4.667  0.2524  0.1371 -0.4489
11764TIP3    H156707   4.199   6.290   4.668 -0.3499 -1.5119  0.9383
11764TIP3    H256708   4.342   6.335   4.686 -1.0452  0.6218  1.3719
11765TIP3   OH256709   5.900   0.000  14.127  0.1918 -0.1231 -0.2572
11765TIP3    H156710   5.891   0.067  14.059 -0.0241  1.7736  1.6153
11765TIP3    H256711   5.816  -0.047  14.125  0.5535 -0.7431 -1.9624
11766TIP3   OH256712   2.752   5.718  13.901  0.0682 -0.1990 -0.3388
11766TIP3    H156713   2.811   5.771  13.847 -0.2093  0.6334  0.1728
11766TIP3    H256714   2.697   5.672  13.838  1.0823 -0.7798 -0.8142
11767TIP3   OH256715   3.336   4.461  14.017 -0.5534  0.0709  0.0598
11767TIP3    H156716   3.377   4.391  13.967 -0.5529  0.6353 -0.7436
11767TIP3    H256717   3.317   4.422  14.102 -0.2157 -0.7907 -0.2554
11768TIP3   OH256718   2.495   0.317   4.158 -0.3493 -0.1090  0.0100
11768TIP3    H156719   2.562   0.326   4.091 -0.1202 -1.1122  0.0869
11768TIP3    H256720   2.423   0.272   4.114 -1.0765  1.1694 -0.1345
11769TIP3   OH256721   4.941   0.151   4.548  0.7601 -0.3737  0.5143
11769TIP3    H156722   4.860   0.201   4.563  0.4673 -0.1903 -1.4443
11769TIP3    H256723   4.910   0.064   4.522  1.1051  0.2952 -2.2899
11770TIP3   OH256724   4.523   1.507   4.944 -0.3578 -0.0438  0.2791
11770TIP3    H156725   4.581   1.525   4.870 -0.1164 -0.7457  0.2905
11770TIP3    H256726   4.547   1.573   5.009 -1.8499  1.7453 -0.9557
11771TIP3   OH256727   4.729   0.656  14.587  0.2644 -0.3353 -0.0973
11771TIP3    H156728   4.685   0.696  14.662  1.2112  0.4590  0.0438
11771TIP3    H256729   4.687   0.570  14.578 -1.2127  0.3357  0.1243
11772TIP3   OH256730   1.414   1.729   4.289  0.0991  0.2207  0.5559
11772TIP3    H156731   1.457   1.664   4.233  1.0771  0.2700  1.2391
11772TIP3    H256732   1.337   1.757   4.239  0.0605 -0.9433 -0.0457
11773TIP3   OH256733   3.868   3.564   4.108 -0.1661 -0.1505  0.1255
11773TIP3    H156734   3.868   3.475   4.145  0.8771 -0.7573 -1.3114
11773TIP3    H256735   3.960   3.584   4.094 -0.4090  1.1483  0.3596
11774TIP3   OH256736   5.506   1.837  12.019 -0.0700  0.1084  0.4565
11774TIP3    H156737   5.509   1.743  12.033 -2.7297  0.0962  1.2691
11774TIP3    H256738   5.484   1.873  12.105 -1.5236  1.2623 -0.3748
11775TIP3   OH256739   6.685   3.294  14.427  0.3360  0.2167  0.5747
11775TIP3    H156740   6.610   3.268  14.373 -0.6732 -0.3470  2.2257
11775TIP3    H256741   6.745   3.336  14.365 -2.1293  2.3718 -0.4830
11776TIP3   OH256742   1.627   5.527  16.098 -0.4293 -0.2379  0.0101
11776TIP3    H156743   1.563   5.490  16.038  0.2066 -1.9465  0.3707
11776TIP3    H256744   1.590   5.513  16.185 -0.3312  0.2571  0.1346
11777TIP3   OH256745   3.794   3.837  15.391  0.2253 -0.2526 -0.3800
11777TIP3    H156746   3.818   3.754  15.350 -0.3337 -0.0939 -1.0317
11777TIP3    H256747   3.698   3.837  15.392  0.2168  0.7274 -1.0854
11778TIP3   OH256748   2.945   3.758  11.584 -0.5415  0.3910  0.3353
11778TIP3    H156749   2.856   3.786  11.562 -0.7134  0.5374  1.1926
11778TIP3    H256750   2.987   3.839  11.615 -0.3589  0.1548  0.7016
11779TIP3   OH256751   2.296   3.777   4.153  0.7364  0.5673  0.2491
11779TIP3    H156752   2.246   3.823   4.085  2.7107  0.7607 -1.1436
11779TIP3    H256753   2.346   3.710   4.104  1.4415  0.0573  1.6435
11780TIP3   OH256754   0.076   3.362   3.490  0.2283 -0.0919 -0.5959
11780TIP3    H156755   0.169   3.348   3.507 -0.0794 -1.3432  0.1265
11780TIP3    H256756   0.069   3.368   3.395  0.9767 -0.5414 -0.6806
11781TIP3   OH256757   1.541   0.946   1.412 -0.0899 -0.9230 -0.1808
11781TIP3    H156758   1.578   0.984   1.332  1.1100 -1.1379  0.2585
11781TIP3    H256759   1.534   1.020   1.472  1.0897 -1.1725  0.2609
11782TIP3   OH256760   4.366   5.883  11.434 -0.1661 -0.3654  0.0388
11782TIP3    H156761   4.317   5.801  11.438 -0.0177 -0.3587  2.4584
11782TIP3    H256762   4.454   5.860  11.463  0.3789  0.3031 -1.0301
11783TIP3   OH256763   5.115   1.350  11.770 -0.0011 -0.3434 -0.7947
11783TIP3    H156764   5.034   1.299  11.766 -1.1970  1.4734 -0.4469
11783TIP3    H256765   5.085   1.441  11.775  2.0584  0.2748  0.5110
11784TIP3   OH256766   1.575   2.011   5.787 -0.2296  0.2213 -0.0775
11784TIP3    H156767   1.610   1.939   5.840  0.7153 -0.2834 -1.3396
11784TIP3    H256768   1.567   1.974   5.699 -1.7941  1.0353 -0.2957
11785TIP3   OH256769   1.192   6.338   0.243 -0.5967 -0.2945  0.5063
11785TIP3    H156770   1.113   6.332   0.295 -1.0587  0.8186 -0.0611
11785TIP3    H256771   1.194   6.428   0.212 -0.2643 -0.8962 -1.2832
11786TIP3   OH256772   0.594   0.711   2.458 -0.2371 -0.0155  0.0286
11786TIP3    H156773   0.556   0.642   2.403  0.2445  0.3641 -0.7788
11786TIP3    H256774   0.569   0.792   2.415  1.4764  0.2463 -0.5230
11787TIP3   OH256775   1.235   0.032  14.797  0.4652  0.0519 -0.2977
11787TIP3    H156776   1.267   0.056  14.884  1.5521 -1.6317 -0.2091
11787TIP3    H256777   1.175  -0.041  14.814 -1.3308  1.3916 -0.7331
11788TIP3   OH256778   0.920   1.052  15.490  0.2640 -0.2165 -0.3900
11788TIP3    H156779   0.957   1.133  15.524  1.4737 -0.2303 -1.6193
11788TIP3    H256780   0.855   1.081  15.426  1.2755 -0.2051 -1.4274
11789TIP3   OH256781   1.688   6.516  16.788  0.3385 -0.3163  0.3860
11789TIP3    H156782   1.665   6.435  16.742 -3.0549 -0.2237  1.7497
11789TIP3    H256783   1.706   6.488  16.878 -1.2856  0.4222  0.9735
11790TIP3   OH256784   1.871   0.211   4.027 -0.3487 -0.2614  0.2772
11790TIP3    H156785   1.905   0.255   3.949 -0.1922  2.2807  1.7401
11790TIP3    H256786   1.949   0.171   4.067  0.1898  1.5244  1.0618
11791TIP3   OH256787   4.169   5.140   4.818  0.5853 -0.4965  0.0291
11791TIP3    H156788   4.085   5.134   4.773  0.6980  2.5435 -0.6454
11791TIP3    H256789   4.231   5.097   4.759 -0.2239 -1.4609 -0.1353
11792TIP3   OH256790   0.510   3.162   5.430  0.2341  0.1574  0.0236
11792TIP3    H156791   0.547   3.106   5.361  0.7836 -1.3212  1.4908
11792TIP3    H256792   0.585   3.206   5.469  0.4023 -2.0377  2.2969
11793TIP3   OH256793   0.145   6.159   3.839 -0.4165 -0.4615 -0.1316
11793TIP3    H156794   0.063   6.159   3.789 -0.5658  3.0415 -0.0078
11793TIP3    H256795   0.135   6.231   3.901  2.9310  0.3214 -0.4204
11794TIP3   OH256796   4.787   0.052  11.455 -0.4100  0.4289  0.0011
11794TIP3    H156797   4.883   0.043  11.456 -0.6167 -2.1575  0.6162
11794TIP3    H256798   4.757  -0.016  11.395 -1.9108  0.8134  0.2967
11795TIP3   OH256799   6.461   6.639  12.831 -0.0181 -0.0377 -0.8790
11795TIP3    H156800   6.469   6.567  12.769 -0.2320 -0.4711 -0.4092
11795TIP3    H256801   6.381   6.619  12.880 -0.0984  0.5400 -0.7733
11796TIP3   OH256802   2.418   2.943  12.997  0.5550 -0.4489  0.3464
11796TIP3    H156803   2.333   2.943  13.041  0.8360 -0.1580  0.8904
11796TIP3    H256804   2.396   2.951  12.904  0.0258  0.8569  0.5664
11797TIP3   OH256805   3.151   5.683   4.385  0.2176  0.2862  0.0296
11797TIP3    H156806   3.185   5.639   4.307 -1.6348 -1.9392  0.4269
11797TIP3    H256807   3.134   5.773   4.357  0.5946 -0.2074 -1.8092
11798TIP3   OH256808   3.083   1.037  11.197 -0.3380 -0.2730 -0.2421
11798TIP3    H156809   3.008   1.025  11.255 -0.2572 -0.3243 -0.1472
11798TIP3    H256810   3.119   0.949  11.186 -0.2781 -0.2452 -0.2677
11799TIP3   OH256811   2.194   1.422   1.434 -0.2373  0.4224  0.2902
11799TIP3    H156812   2.188   1.513   1.405 -2.9905  0.6776  1.5059
11799TIP3    H256813   2.210   1.372   1.354 -2.5388  1.6129 -0.9815
11800TIP3   OH256814   0.602   0.136  10.964 -0.4740  0.4323 -0.4126
11800TIP3    H156815   0.658   0.173  10.895  0.4491  0.3423  0.2814
11800TIP3    H256816   0.548   0.209  10.993 -1.4402  0.2806 -1.7919
11801TIP3   OH256817   2.171   0.176  11.836 -0.2242  0.8005  0.1387
11801TIP3    H156818   2.229   0.232  11.887  0.8098  0.4875 -0.6896
11801TIP3    H256819   2.223   0.150  11.760 -1.1052 -0.3010 -0.0974
11802TIP3   OH256820   4.580   6.480   2.603 -0.4503 -0.2977  0.1195
11802TIP3    H156821   4.605   6.542   2.536 -1.6598 -0.5746 -0.6112
11802TIP3    H256822   4.577   6.531   2.684  1.4047 -0.0556  0.0484
11803TIP3   OH256823   6.006   2.969   3.203  0.2077  0.6218  0.5493
11803TIP3    H156824   5.999   2.936   3.293 -0.2705 -0.0410  0.2659
11803TIP3    H256825   6.098   2.955   3.180  0.6313  1.9407  1.3768
11804TIP3   OH256826   3.112   1.032  15.404 -0.4049 -0.0591  0.5920
11804TIP3    H156827   3.100   0.940  15.430 -1.9213  0.2549  1.0245
11804TIP3    H256828   3.196   1.032  15.358 -0.1860 -1.5903  0.9392
11805TIP3   OH256829   0.596   0.457  15.997  0.0439 -0.0479 -0.2483
11805TIP3    H156830   0.518   0.466  16.051 -1.0259 -0.3242 -1.7370
11805TIP3    H256831   0.634   0.545  15.996 -0.9706  0.3918 -0.6057
11806TIP3   OH256832   3.444   3.554  11.125  0.3619 -0.5514  0.3211
11806TIP3    H156833   3.528   3.525  11.090  0.0049 -0.6961 -0.4240
11806TIP3    H256834   3.380   3.531  11.058 -0.5203 -2.0367  1.6404
11807TIP3   OH256835   5.708   0.710  14.072 -0.0924 -0.0466  0.1028
11807TIP3    H156836   5.792   0.689  14.032 -0.0823 -0.8157  0.5109
11807TIP3    H256837   5.715   0.679  14.162 -0.9005 -0.3846  0.0605
11808TIP3   OH256838   4.254   2.402   1.323  0.2285  0.0069  0.3347
11808TIP3    H156839   4.159   2.413   1.328  0.2484 -0.1394  1.2000
11808TIP3    H256840   4.272   2.391   1.230 -0.4402  1.4290  0.0238
11809TIP3   OH256841   6.493   1.153  16.371  0.1084  0.0338 -0.3760
11809TIP3    H156842   6.474   1.179  16.280  0.6416  0.3187 -0.4122
11809TIP3    H256843   6.589   1.151  16.375  0.1040  1.1875  0.5049
11810TIP3   OH256844   3.729   2.584  12.469 -0.4524 -0.2739 -0.6113
11810TIP3    H156845   3.786   2.655  12.441 -0.5291 -0.0552 -0.2122
11810TIP3    H256846   3.749   2.512  12.409  1.1153 -0.6090  0.2557
11811TIP3   OH256847   1.098   4.255  12.116  0.2233  0.6940  0.0844
11811TIP3    H156848   1.035   4.320  12.085  3.0504  3.0937 -0.8597
11811TIP3    H256849   1.107   4.273  12.210  2.4059  3.0153 -0.5154
11812TIP3   OH256850   4.144   4.344   0.522 -0.2418 -0.1785 -0.0478
11812TIP3    H156851   4.162   4.424   0.472  0.7745  0.5927  1.5383
11812TIP3    H256852   4.191   4.276   0.475 -1.6001  0.0140 -1.7631
11813TIP3   OH256853   5.962   5.694  16.123  0.2650 -0.5643  0.5384
11813TIP3    H156854   6.039   5.738  16.158  0.7894 -0.1537 -1.0941
11813TIP3    H256855   5.911   5.763  16.080  0.9515 -1.4438 -1.7877
11814TIP3   OH256856   0.105   2.926  14.668  0.4208 -0.4372  0.4067
11814TIP3    H156857   0.079   2.924  14.760 -0.0671 -1.1540  0.2541
11814TIP3    H256858   0.144   3.013  14.657  1.5459 -0.7677  1.5684
11815TIP3   OH256859   3.201   2.792  14.555  0.0533 -0.6658 -0.0836
11815TIP3    H156860   3.126   2.788  14.615  1.0031 -1.9417  1.0502
11815TIP3    H256861   3.162   2.790  14.468 -1.2470 -0.9331  0.4905
11816TIP3   OH256862   3.517   3.543   2.649  0.3191  0.1542 -0.4047
11816TIP3    H156863   3.494   3.453   2.626  0.6229  0.5742 -2.4587
11816TIP3    H256864   3.457   3.566   2.720  0.0967 -1.5923 -0.0207
11817TIP3   OH256865   3.739   2.247   3.934 -0.0436  0.3502  0.2936
11817TIP3    H156866   3.672   2.305   3.969  0.0420  0.4362  0.3157
11817TIP3    H256867   3.811   2.253   3.997  0.8221  1.8742 -0.7965
11818TIP3   OH256868   2.251   5.374   3.350  0.9964  0.0970 -0.1825
11818TIP3    H156869   2.205   5.446   3.308 -0.9196 -0.5672  0.7276
11818TIP3    H256870   2.256   5.398   3.442  2.2113  0.0197 -0.2182
11819TIP3   OH256871   0.502   0.163   4.698  0.0045  0.5449  0.1002
11819TIP3    H156872   0.524   0.074   4.672  1.3345  1.0758 -0.6266
11819TIP3    H256873   0.554   0.219   4.641 -1.3505  1.8112  0.0689
11820TIP3   OH256874   4.488   5.011  13.654 -0.3032 -0.0734  0.0542
11820TIP3    H156875   4.560   5.064  13.690 -0.8388  0.0601  0.9467
11820TIP3    H256876   4.532   4.939  13.609  0.4200  0.6745 -0.4648
11821TIP3   OH256877   5.309   5.339  16.118 -0.1701  0.1607  0.0658
11821TIP3    H156878   5.352   5.394  16.183 -1.6630 -0.5660  1.7133
11821TIP3    H256879   5.224   5.382  16.103  0.3916  0.6337 -1.8411
11822TIP3   OH256880   2.316   5.571  15.188  0.2557 -0.3692  0.2247
11822TIP3    H156881   2.303   5.646  15.246 -0.6671 -1.4456  1.4310
11822TIP3    H256882   2.408   5.575  15.165 -0.1911  2.3149 -1.3880
11823TIP3   OH256883   5.640   4.530  15.173 -0.3007 -0.1707 -0.1157
11823TIP3    H156884   5.699   4.455  15.182 -0.5588 -0.4237 -0.4876
11823TIP3    H256885   5.605   4.544  15.261  2.0681  1.4385  0.6159
11824TIP3   OH256886   2.179   3.344   2.747  0.4179  0.2037  0.2769
11824TIP3    H156887   2.262   3.361   2.792  1.0521 -1.1072 -0.3572
11824TIP3    H256888   2.173   3.413   2.681  1.0553  0.2581  0.2720
11825TIP3   OH256889   2.335   5.546  11.983 -0.3154 -0.1077 -0.0518
11825TIP3    H156890   2.282   5.624  12.003  0.2316  0.1168  0.5008
11825TIP3    H256891   2.366   5.515  12.067 -0.6890 -1.0528 -0.2513
11826TIP3   OH256892   5.231   0.992  15.705  0.1822 -0.0866  0.3211
11826TIP3    H156893   5.280   1.012  15.626 -1.4834  0.2705 -0.6287
11826TIP3    H256894   5.186   0.911  15.686  1.2222 -0.9862  1.5856
11827TIP3   OH256895   0.709   2.509  16.153  0.1100  0.0800 -0.4439
11827TIP3    H156896   0.760   2.512  16.234  0.3486 -3.4421 -0.3851
11827TIP3    H256897   0.636   2.568  16.168  0.8809  0.4874  1.8471
11828TIP3   OH256898   5.272   4.624  12.385  0.1481  0.2628 -0.4389
11828TIP3    H156899   5.195   4.570  12.362  0.6277  0.0170 -1.5001
11828TIP3    H256900   5.329   4.618  12.308  0.8812  1.0855  0.0359
11829TIP3   OH256901   4.583   4.372   1.736 -0.1440  0.6036  0.0441
11829TIP3    H156902   4.596   4.456   1.691 -0.1002  0.7745  0.3812
11829TIP3    H256903   4.493   4.377   1.768  0.3603  1.1600  1.4155
11830TIP3   OH256904   0.360   4.128   4.434  0.2537  0.2933 -0.3647
11830TIP3    H156905   0.415   4.189   4.385 -1.6966  2.6012  0.2024
11830TIP3    H256906   0.419   4.087   4.497  1.4606  2.2147 -0.2243
11831TIP3   OH256907   1.155   5.981  12.876  0.4164  0.7373 -0.1081
11831TIP3    H156908   1.172   5.953  12.786  0.2197  2.5210 -0.7113
11831TIP3    H256909   1.059   5.979  12.885  0.4706 -0.2456  0.3365
11832TIP3   OH256910   5.016   6.325  12.534  0.5888  0.1650  0.2144
11832TIP3    H156911   4.926   6.353  12.516  0.5468  0.1664  0.4213
11832TIP3    H256912   5.035   6.361  12.621  0.3653 -0.8475  0.6910
11833TIP3   OH256913   1.633   1.493  14.369  0.2522 -0.3715 -0.6613
11833TIP3    H156914   1.666   1.514  14.456  0.2433 -3.6541  0.1975
11833TIP3    H256915   1.694   1.428  14.335 -1.7256 -1.7573 -1.6432
11834TIP3   OH256916   4.886   4.131   1.158  0.5366 -0.6296  0.0564
11834TIP3    H156917   4.805   4.080   1.163  1.1492 -1.7840 -1.3494
11834TIP3    H256918   4.858   4.221   1.172 -0.6830 -1.2339  1.7676
11835TIP3   OH256919   3.794   3.006  14.417  0.3580  0.0599 -0.6690
11835TIP3    H156920   3.761   2.929  14.463  1.2212 -0.4467 -0.8868
11835TIP3    H256921   3.832   3.061  14.486  0.1637  0.0759 -0.5741
11836TIP3   OH256922   6.302   3.527  16.914 -0.5461 -0.1220  0.5785
11836TIP3    H156923   6.383   3.554  16.956  0.5166 -1.2542 -0.6879
11836TIP3    H256924   6.307   3.432  16.911 -1.0822 -0.1114 -1.1334
11837TIP3   OH256925   4.410   5.593  15.687 -0.1610 -0.4933  0.1808
11837TIP3    H156926   4.476   5.646  15.732 -0.5969  0.7684 -0.6349
11837TIP3    H256927   4.414   5.623  15.596 -1.6393 -0.6121  0.0647
11838TIP3   OH256928   5.245   4.207  15.654 -0.2822  0.4937  0.1873
11838TIP3    H156929   5.221   4.262  15.579 -0.1094  2.2157  1.3561
11838TIP3    H256930   5.164   4.200  15.705 -0.0106  0.6873  0.6555
11839TIP3   OH256931   6.527   0.791   0.401 -0.4750  0.2318  0.3241
11839TIP3    H156932   6.586   0.725   0.438  0.0531  0.4041 -0.2116
11839TIP3    H256933   6.456   0.798   0.465 -1.0662 -1.6000 -0.0857
11840TIP3   OH256934   2.784   3.045   2.182 -0.4904  0.2280 -0.2117
11840TIP3    H156935   2.870   3.009   2.202 -0.3267  1.0276  0.5062
11840TIP3    H256936   2.727   2.968   2.173 -0.3081 -0.2054  2.0711
11841TIP3   OH256937   1.404   0.468   1.064  0.4680  0.2916 -0.6256
11841TIP3    H156938   1.485   0.472   1.014  1.5475 -2.1116  0.8657
11841TIP3    H256939   1.410   0.542   1.125  1.4487  0.2361 -0.6468
11842TIP3   OH256940   4.806   1.292   4.121 -0.1931 -0.2853 -0.0123
11842TIP3    H156941   4.735   1.262   4.064 -1.0972 -2.6692  2.2371
11842TIP3    H256942   4.862   1.215   4.133  1.3278  0.8509  0.3309
11843TIP3   OH256943   4.553   2.626  13.111 -0.6340  0.3161 -0.2305
11843TIP3    H156944   4.489   2.690  13.140  0.6119  1.5524 -0.1618
11843TIP3    H256945   4.575   2.576  13.189 -1.3701  0.0124 -0.2158
11844TIP3   OH256946   2.693   6.348  12.351 -0.0512  0.1306 -0.1387
11844TIP3    H156947   2.605   6.327  12.383  0.7617  1.7483  3.2837
11844TIP3    H256948   2.744   6.269  12.368 -0.1312  0.2366  0.5872
11845TIP3   OH256949   3.397   0.920  17.086 -0.3351  0.3469  0.4101
11845TIP3    H156950   3.411   0.827  17.105  1.9021  0.6208  0.2207
11845TIP3    H256951   3.469   0.965  17.130 -1.1569  1.9607  0.1522
11846TIP3   OH256952   1.224   5.222  16.297 -0.6318 -1.0483 -0.1360
11846TIP3    H156953   1.159   5.180  16.354 -1.5977 -0.8373 -1.0590
11846TIP3    H256954   1.211   5.316  16.311  0.3200 -1.0200  0.5922
11847TIP3   OH256955   2.246   5.421   5.655  0.2348  0.2131  0.8758
11847TIP3    H156956   2.180   5.358   5.629 -0.3687  0.8482  0.8590
11847TIP3    H256957   2.279   5.389   5.739  0.0611 -0.2134  0.7820
11848TIP3   OH256958   2.041   0.207   2.627 -0.0497  0.0879 -0.4064
11848TIP3    H156959   2.087   0.265   2.566 -0.0978 -0.9619 -1.4735
11848TIP3    H256960   2.107   0.179   2.689 -0.2252  1.9872  0.6694
11849TIP3   OH256961   0.092   1.348   6.365 -0.1365 -0.8489 -0.5621
11849TIP3    H156962   0.092   1.353   6.270  0.1663  0.6946 -0.4934
11849TIP3    H256963   0.119   1.258   6.384  3.9975 -0.0362 -1.9239
11850TIP3   OH256964   2.474   2.003   2.588 -0.4946  0.7883  0.4501
11850TIP3    H156965   2.557   2.050   2.594 -0.4042  0.8311 -0.9895
11850TIP3    H256966   2.411   2.060   2.630 -0.7030  2.9856 -2.6831
11851TIP3   OH256967   0.941   1.109  14.109  0.4331  0.0191 -0.8856
11851TIP3    H156968   1.003   1.039  14.130  0.6541  0.2577 -0.7489
11851TIP3    H256969   0.989   1.190  14.127  0.3123  0.2125 -1.4254
11852TIP3   OH256970   1.301   6.579   3.894  0.3761  0.5646 -0.0787
11852TIP3    H156971   1.338   6.630   3.822 -1.1759  0.7991 -0.7201
11852TIP3    H256972   1.213   6.558   3.865  0.4108 -1.0109  0.9297
11853TIP3   OH256973   0.756   2.098  16.493  0.2217  0.4847 -0.3659
11853TIP3    H156974   0.715   2.184  16.485 -1.0347 -0.1448 -0.8247
11853TIP3    H256975   0.735   2.069  16.582  2.8014  1.7222  0.6846
11854TIP3   OH256976   4.239   1.338  16.942 -0.2481 -0.0908 -0.4254
11854TIP3    H156977   4.242   1.433  16.934 -1.7304  0.2089  2.0805
11854TIP3    H256978   4.222   1.307  16.853 -0.9935  2.0467 -1.0551
11855TIP3   OH256979   4.758   6.060   3.888 -0.1812  0.0854  0.4454
11855TIP3    H156980   4.693   6.126   3.910 -1.6294 -0.5053 -1.9268
11855TIP3    H256981   4.717   5.976   3.910  0.3910 -0.2097  0.4158
11856TIP3   OH256982   4.534   6.330  13.209 -0.5627  0.2329 -0.1341
11856TIP3    H156983   4.494   6.244  13.214 -0.4430  0.2350  1.1365
11856TIP3    H256984   4.613   6.317  13.156 -1.1998 -0.1680 -1.0036
11857TIP3   OH256985   4.903   5.054  11.969 -0.0685  0.0922  0.7277
11857TIP3    H156986   4.936   5.057  12.059 -0.6973 -0.2206  0.9675
11857TIP3    H256987   4.809   5.039  11.978 -0.1417  0.1058  0.0181
11858TIP3   OH256988   2.865   1.203  14.917  0.2342 -0.6168 -0.3077
11858TIP3    H156989   2.781   1.199  14.963  0.3869 -0.4037 -0.0085
11858TIP3    H256990   2.891   1.112  14.906  0.3120 -0.6572  0.2354
11859TIP3   OH256991   4.508   0.616  10.911 -0.1740  0.5684  0.2471
11859TIP3    H156992   4.594   0.651  10.933 -0.4271  0.7401  0.9735
11859TIP3    H256993   4.483   0.662  10.831  0.1732  0.9180  0.3391
11860TIP3   OH256994   0.991   3.868   1.776 -0.2277 -0.7479  0.6354
11860TIP3    H156995   0.898   3.851   1.789 -0.3460  0.2027  1.0642
11860TIP3    H256996   0.994   3.950   1.727  0.3531 -1.5436 -0.6987
11861TIP3   OH256997   3.982   0.367   1.362  0.2212 -0.5336 -0.2009
11861TIP3    H156998   4.039   0.313   1.416  1.1619  1.0861  0.4882
11861TIP3    H256999   4.041   0.434   1.326 -0.4834 -1.2947 -2.8508
11862TIP3   OH257000   3.530   3.805  15.677 -0.6664 -0.4842 -0.2143
11862TIP3    H157001   3.614   3.773  15.710 -0.2738 -0.7959 -1.5137
11862TIP3    H257002   3.548   3.894  15.646 -1.1408 -0.0161  0.8052
11863TIP3   OH257003   4.251   6.200  14.417 -0.3226 -0.1455 -0.2457
11863TIP3    H157004   4.315   6.251  14.367 -0.0510 -0.3650 -0.1242
11863TIP3    H257005   4.168   6.216  14.373 -0.2818  0.6078 -0.0558
11864TIP3   OH257006   0.479   6.538   1.940 -0.1700  0.3102 -0.0151
11864TIP3    H157007   0.441   6.480   1.874 -0.7099  0.6431  0.0035
11864TIP3    H257008   0.404   6.577   1.985  0.2023 -0.3780  1.2126
11865TIP3   OH257009   4.431   5.569   0.209  0.7471 -0.1616 -0.4456
11865TIP3    H157010   4.356   5.617   0.243  0.6398 -0.3840 -0.3697
11865TIP3    H257011   4.394   5.498   0.157  0.8321 -2.1774  2.1224
11866TIP3   OH257012   6.557   1.070   6.371 -0.0242  0.1430  0.4565
11866TIP3    H157013   6.513   1.009   6.431 -1.2982  0.0047 -0.5846
11866TIP3    H257014   6.487   1.129   6.343  0.4692 -0.0385 -1.1838
11867TIP3   OH257015   3.895   4.771   5.134 -0.3725 -0.3724 -0.5491
11867TIP3    H157016   3.877   4.841   5.197 -2.7981 -0.8112 -0.7135
11867TIP3    H257017   3.932   4.816   5.058 -1.1041  0.6312 -0.3222
11868TIP3   OH257018   6.082   3.022   3.481  0.1818 -0.5014 -0.4212
11868TIP3    H157019   6.075   2.927   3.494  3.4653 -0.7710 -0.1363
11868TIP3    H257020   5.993   3.054   3.488 -0.7255 -3.3058  1.8050
11869TIP3   OH257021   6.640   1.986   1.484 -0.3141 -0.6173  0.4582
11869TIP3    H157022   6.585   1.941   1.420  1.1131  1.3801 -2.3146
11869TIP3    H257023   6.715   1.929   1.496  1.4723  0.8274 -3.0093
11870TIP3   OH257024   1.885   4.065   3.182  0.0580  0.3930 -0.1175
11870TIP3    H157025   1.855   4.099   3.097 -0.2566  1.0491  0.2576
11870TIP3    H257026   1.949   4.129   3.212  0.9369 -0.3771 -0.3416
11871TIP3   OH257027   2.601   1.622  14.680  0.1524 -0.6700  0.3501
11871TIP3    H157028   2.562   1.535  14.676  1.2377 -1.1876  0.8379
11871TIP3    H257029   2.626   1.633  14.771  0.7231 -0.1598  0.1327
11872TIP3   OH257030   3.764   1.529   2.315 -0.0717  0.3999 -0.1427
11872TIP3    H157031   3.758   1.535   2.411 -3.1532  3.0146 -0.4173
11872TIP3    H257032   3.743   1.438   2.295 -0.6441  0.1343  1.5964
11873TIP3   OH257033   0.328   4.342  14.667 -0.2720  0.0917 -0.6435
11873TIP3    H157034   0.315   4.430  14.632 -1.6154  0.2513  0.2146
11873TIP3    H257035   0.259   4.289  14.626 -0.5278 -0.1815  0.1199
11874TIP3   OH257036   3.944   5.078  14.968 -0.2791 -0.0533  0.8031
11874TIP3    H157037   3.936   5.001  14.911 -1.4487 -1.0138  2.2232
11874TIP3    H257038   4.014   5.130  14.928  0.5181 -1.8335 -0.2092
11875TIP3   OH257039   0.246   2.686   2.165 -0.0913 -0.4609 -0.0594
11875TIP3    H157040   0.282   2.767   2.199  0.3100 -0.7327  0.1676
11875TIP3    H257041   0.297   2.617   2.208 -1.2060 -0.8624  0.6549
11876TIP3   OH257042   5.127   4.221   2.559  0.2341 -0.0013  0.2012
11876TIP3    H157043   5.158   4.145   2.609  3.6920  0.9368 -0.4291
11876TIP3    H257044   5.169   4.212   2.473 -4.4305 -0.7783 -2.1402
11877TIP3   OH257045   3.304   4.324  15.000 -0.3250 -0.4999 -0.2671
11877TIP3    H157046   3.379   4.382  14.990 -0.6902  0.3858  1.9270
11877TIP3    H257047   3.268   4.316  14.912  2.0105 -0.4942 -1.2455
11878TIP3   OH257048   2.869   5.336   3.141 -0.1702 -0.1536  0.4120
11878TIP3    H157049   2.783   5.375   3.132  0.1143  0.4347  0.2194
11878TIP3    H257050   2.926   5.407   3.171  0.0501 -0.7631  1.5179
11879TIP3   OH257051   4.441   3.862  15.255  0.3333  0.7426 -0.3951
11879TIP3    H157052   4.393   3.874  15.337 -0.5893 -1.8864 -0.4944
11879TIP3    H257053   4.499   3.938  15.249  0.4136  0.9605  2.6823
11880TIP3   OH257054   3.563   5.754   5.205  0.5465 -0.2283  0.2736
11880TIP3    H157055   3.528   5.843   5.203  0.8581 -0.0710  1.4301
11880TIP3    H257056   3.554   5.723   5.115 -1.5975  0.1620  0.3373
11881TIP3   OH257057   5.416   4.068   3.559  0.8716 -0.2657 -0.4829
11881TIP3    H157058   5.423   4.088   3.652  1.0222 -2.5324  0.0221
11881TIP3    H257059   5.324   4.049   3.545  0.6934  0.9058 -1.0003
11882TIP3   OH257060   5.637   4.201   4.022  0.2034 -0.3788 -0.3362
11882TIP3    H157061   5.593   4.246   4.095  1.6092 -1.0064  0.9362
11882TIP3    H257062   5.589   4.229   3.944 -0.4247  1.4856  0.6726
11883TIP3   OH257063   4.633   4.450   3.691  0.4681  0.5361 -0.3987
11883TIP3    H157064   4.702   4.465   3.755  0.1134  2.0403 -0.3545
11883TIP3    H257065   4.632   4.530   3.638 -1.7717  0.8933  0.1217
11884TIP3   OH257066   0.867   3.954   5.123  0.2692  0.2454 -0.3316
11884TIP3    H157067   0.807   3.880   5.113  0.3731  0.1870 -0.5174
11884TIP3    H257068   0.925   3.948   5.047  2.2875 -1.3259  1.2834
11885TIP3   OH257069   1.627   2.697  16.662  0.0771 -0.2256  0.5725
11885TIP3    H157070   1.694   2.758  16.693  0.6068  0.4449 -1.7688
11885TIP3    H257071   1.545   2.746  16.669  0.3202  0.2658  0.0242
11886TIP3   OH257072   5.850   0.352  13.714  0.2710 -0.5520 -0.2657
11886TIP3    H157073   5.766   0.321  13.748 -0.7888  1.0085 -1.4157
11886TIP3    H257074   5.902   0.370  13.792  0.2767 -3.3884  0.4552
11887TIP3   OH257075   4.264   5.317  10.877  0.0792 -0.0299  0.4671
11887TIP3    H157076   4.249   5.347  10.788 -0.2385 -0.8629  0.2369
11887TIP3    H257077   4.219   5.382  10.932 -0.2638  0.1345 -0.0065
11888TIP3   OH257078   2.681   4.115  12.492 -0.3347  0.0955 -0.1467
11888TIP3    H157079   2.752   4.051  12.504 -0.2375  0.1393 -0.4949
11888TIP3    H257080   2.608   4.079  12.543  0.1617  0.4037  0.7928
11889TIP3   OH257081   3.896   4.874  14.732 -0.8270 -0.3092  0.3305
11889TIP3    H157082   3.963   4.813  14.700  0.0833  0.1992  1.2061
11889TIP3    H257083   3.903   4.950  14.675 -1.2737 -0.6181 -0.1358
11890TIP3   OH257084   0.219   4.702  13.707 -0.1838  0.0989  0.2345
11890TIP3    H157085   0.234   4.786  13.750  1.3165  0.3909 -0.8194
11890TIP3    H257086   0.274   4.640  13.755  0.2812  0.1244 -0.2581
11891TIP3   OH257087   3.305   5.666   3.652 -0.7018 -0.1327 -0.0277
11891TIP3    H157088   3.320   5.700   3.564 -1.2337 -2.1506 -0.9299
11891TIP3    H257089   3.218   5.697   3.675 -0.1568  1.2685  0.2410
11892TIP3   OH257090   2.525   5.443   0.128 -0.2945  0.6700 -0.2981
11892TIP3    H157091   2.499   5.352   0.116 -1.1092  1.0247 -1.3034
11892TIP3    H257092   2.445   5.487   0.156 -0.4883  1.5386 -2.2089
11893TIP3   OH257093   0.324   5.422  12.302 -0.4783 -0.3595  0.3066
11893TIP3    H157094   0.271   5.478  12.358  1.0376  0.4435  0.9757
11893TIP3    H257095   0.330   5.470  12.219 -1.5834 -0.9139 -0.1145
11894TIP3   OH257096   0.552   4.235  17.111  1.1546 -0.3753 -0.2448
11894TIP3    H157097   0.473   4.289  17.121  1.4816 -0.0870  0.9165
11894TIP3    H257098   0.581   4.252  17.022  0.3875  0.1895 -0.4023
11895TIP3   OH257099   2.437   0.547  16.859  0.6675  0.0375 -0.1145
11895TIP3    H157100   2.362   0.603  16.840  0.0640 -0.4178  0.8645
11895TIP3    H257101   2.409   0.496  16.935  0.2700 -3.2593 -2.3437
11896TIP3   OH257102   4.039   0.701  17.219  0.3148 -0.2533  0.4807
11896TIP3    H157103   4.089   0.765  17.269  0.9255 -0.2807 -0.0855
11896TIP3    H257104   3.950   0.736  17.216  0.1869 -0.4397  1.9072
11897TIP3   OH257105   3.399   2.021   6.429 -0.2390  0.5226 -0.2993
11897TIP3    H157106   3.405   1.935   6.388 -1.4741  0.4918 -0.4337
11897TIP3    H257107   3.488   2.056   6.426  0.1787 -0.5663 -0.6376
11898TIP3   OH257108   5.114   3.539  13.508 -0.4462  0.1625 -0.7700
11898TIP3    H157109   5.207   3.524  13.493 -0.4475 -1.3825  0.6512
11898TIP3    H257110   5.111   3.613  13.569 -0.1812  0.6379 -1.3277
11899TIP3   OH257111   2.218   1.283  16.651 -0.0346  0.3827  0.4928
11899TIP3    H157112   2.276   1.286  16.575 -1.0045  0.6080 -0.2638
11899TIP3    H257113   2.276   1.285  16.727  0.9576 -0.0355 -0.2505
11900TIP3   OH257114   2.398   0.657   3.650 -0.4212  0.4158 -0.5986
11900TIP3    H157115   2.357   0.599   3.715 -0.7539 -0.3955 -1.5247
11900TIP3    H257116   2.491   0.634   3.654 -0.5764 -0.3110 -1.0881
11901TIP3   OH257117   2.765   2.155   3.306 -1.0669 -0.0968  1.1427
11901TIP3    H157118   2.837   2.110   3.349 -1.0191  0.1235  1.2926
11901TIP3    H257119   2.805   2.198   3.231 -1.1251 -0.3610  0.9577
11902TIP3   OH257120   4.061   4.930   0.849  0.9037 -0.1996 -0.1354
11902TIP3    H157121   4.051   5.005   0.789 -0.7105  0.6847  1.2109
11902TIP3    H257122   4.071   4.855   0.791 -0.3023  0.6940 -1.5471
11903TIP3   OH257123   5.149   2.289  11.408  0.6091 -0.3503 -0.0959
11903TIP3    H157124   5.149   2.226  11.336  1.6128 -1.3794  0.7735
11903TIP3    H257125   5.197   2.364  11.375  1.8208 -1.1644 -0.2218
11904TIP3   OH257126   2.854   2.048  17.179  0.4679 -0.1180  0.0093
11904TIP3    H157127   2.907   2.031  17.257  0.8481  0.9532 -0.0118
11904TIP3    H257128   2.764   2.041  17.210  0.6159  1.1736  0.7490
11905TIP3   OH257129   4.113   2.395   1.885  0.0848  0.1588  0.8603
11905TIP3    H157130   4.028   2.375   1.845  0.6575  0.0289 -0.3048
11905TIP3    H257131   4.105   2.363   1.975 -1.3526  0.8027  0.9757
11906TIP3   OH257132   1.056   5.091  13.828  0.3367 -0.3941 -0.3638
11906TIP3    H157133   1.010   5.068  13.748 -2.3638  1.0093  0.7159
11906TIP3    H257134   1.038   5.019  13.888 -2.0372  0.9784  0.6411
11907TIP3   OH257135   3.029   3.450  16.164 -0.7041  0.0941 -0.3155
11907TIP3    H157136   2.960   3.458  16.230  1.3271  1.7039  1.6990
11907TIP3    H257137   3.059   3.360  16.172  0.0368  0.4740  1.5634
11908TIP3   OH257138   1.543   3.333   4.557 -0.0710  0.1227  0.0608
11908TIP3    H157139   1.560   3.343   4.463  0.2429 -1.0133 -0.0176
11908TIP3    H257140   1.623   3.293   4.591 -0.8029 -0.9722  0.5203
11909TIP3   OH257141   0.769   1.082   0.346  0.1817 -0.3450 -0.5989
11909TIP3    H157142   0.821   1.002   0.346 -1.4238 -1.4218 -1.8435
11909TIP3    H257143   0.711   1.073   0.270  0.7040  2.4752 -1.4235
11910TIP3   OH257144   1.959   4.373   1.847  0.3729  0.7232 -0.3769
11910TIP3    H157145   1.881   4.406   1.801  1.9464  1.8723 -2.3486
11910TIP3    H257146   2.002   4.452   1.880  1.1781  0.1852 -0.1237
11911TIP3   OH257147   5.886   1.419  11.317 -0.5361 -0.0008 -0.6113
11911TIP3    H157148   5.952   1.349  11.319  0.7511  1.1835 -0.1972
11911TIP3    H257149   5.872   1.436  11.224  0.7183  0.5907 -0.7151
11912TIP3   OH257150   0.935   5.726   4.025  0.0911 -0.3289 -0.7090
11912TIP3    H157151   0.917   5.670   4.101 -1.7465  0.9408 -0.1716
11912TIP3    H257152   0.997   5.676   3.972 -1.0596 -2.6108  0.0434
11913TIP3   OH257153   3.869   0.778  16.363  0.3878  0.2204  0.7411
11913TIP3    H157154   3.913   0.709  16.412  1.0554 -0.0671 -0.2418
11913TIP3    H257155   3.938   0.815  16.307 -0.2798  0.7472  0.2530
11914TIP3   OH257156   6.568   4.779  14.412  0.0490 -0.2694 -1.1174
11914TIP3    H157157   6.581   4.868  14.447  0.2616 -0.4502 -0.7260
11914TIP3    H257158   6.656   4.749  14.389  0.4278 -1.6483  1.8928
11915TIP3   OH257159   1.091   3.129  14.140 -0.4944  0.2097  0.0554
11915TIP3    H157160   1.160   3.065  14.125 -2.0254 -1.5493  0.3424
11915TIP3    H257161   1.130   3.194  14.198  0.2821 -1.8778  1.9471
11916TIP3   OH257162   1.231   5.326  13.753  0.3979  0.2396  0.6778
11916TIP3    H157163   1.237   5.275  13.672  0.6607  1.7071 -0.2484
11916TIP3    H257164   1.166   5.280  13.805  0.0655 -0.6172 -0.4663
11917TIP3   OH257165   3.798   0.090   3.691  0.6519  0.1264 -0.7181
11917TIP3    H157166   3.796   0.052   3.779 -0.9000  2.0998  0.1583
11917TIP3    H257167   3.753   0.026   3.636 -0.7135  0.0489  0.4563
11918TIP3   OH257168   0.082   5.590  15.965 -0.2331  0.0526  0.3900
11918TIP3    H157169   0.035   5.509  15.986 -1.0232  0.4611  0.1783
11918TIP3    H257170   0.147   5.598  16.035 -1.9795  0.6989  1.9515
11919TIP3   OH257171   3.582   0.122   0.209  0.5895  0.1886  0.1349
11919TIP3    H157172   3.568   0.123   0.114  2.0846  1.4354 -0.1011
11919TIP3    H257173   3.510   0.173   0.245 -0.7352 -1.4068 -0.2035
11920TIP3   OH257174   4.289   5.759  13.186  0.3257 -0.0032  0.0620
11920TIP3    H157175   4.379   5.770  13.156  0.3971 -1.3757 -0.2615
11920TIP3    H257176   4.289   5.675  13.231 -0.2191  1.1742  2.3218
11921TIP3   OH257177   3.476   0.002  11.168 -0.5683  0.4535  0.1832
11921TIP3    H157178   3.499  -0.065  11.103 -2.2077  1.7186 -1.7555
11921TIP3    H257179   3.464  -0.047  11.249  2.2641 -1.0733 -0.2367
11922TIP3   OH257180   5.546   1.517  10.930 -0.2491 -0.1264  0.2210
11922TIP3    H157181   5.536   1.522  10.835 -0.5716  0.6793  0.2895
11922TIP3    H257182   5.610   1.585  10.951 -0.0835 -0.3895  0.5636
11923TIP3   OH257183   6.480   4.863  13.585 -0.0973 -0.5318 -0.0976
11923TIP3    H157184   6.478   4.795  13.517 -1.3323 -2.4370  1.7901
11923TIP3    H257185   6.473   4.815  13.667 -0.3529  1.8585  1.3207
11924TIP3   OH257186   6.082   0.109   4.503  0.0439  0.1280 -0.1119
11924TIP3    H157187   6.074   0.072   4.591  0.6747 -2.5251 -1.1355
11924TIP3    H257188   6.171   0.143   4.500  0.5843 -1.2849 -0.2807
11925TIP3   OH257189   1.586   3.502   3.080 -0.4984 -0.3092 -1.0927
11925TIP3    H157190   1.551   3.523   3.167  1.1237  0.5983 -0.6295
11925TIP3    H257191   1.586   3.407   3.077  4.0798 -0.5701  1.9462
11926TIP3   OH257192   1.551   2.535  14.674 -0.7071  0.3781 -0.4810
11926TIP3    H157193   1.550   2.517  14.768  0.0628  0.8812 -0.3701
11926TIP3    H257194   1.549   2.449  14.633 -0.9089  0.1507  0.0045
11927TIP3   OH257195   0.586   4.766   2.564 -0.2981  0.0718 -0.5852
11927TIP3    H157196   0.614   4.831   2.500  0.4455 -0.4404 -0.7880
11927TIP3    H257197   0.579   4.685   2.515  1.0300 -0.4919  0.1391
11928TIP3   OH257198   5.778   2.302   1.196 -0.6932  0.8301 -0.0850
11928TIP3    H157199   5.724   2.241   1.245 -0.0542  2.6023  2.9694
11928TIP3    H257200   5.720   2.377   1.178 -1.1397 -0.1004 -2.7898
11929TIP3   OH257201   3.496   3.344  15.585  0.7612 -0.6420  0.3387
11929TIP3    H157202   3.472   3.262  15.543 -2.0700  0.4365 -0.2509
11929TIP3    H257203   3.414   3.381  15.617  1.7308  2.6003 -0.6196
11930TIP3   OH257204   6.139   5.271  11.726 -0.6911  0.4776  0.4828
11930TIP3    H157205   6.207   5.319  11.681 -1.3631  1.4202  0.4609
11930TIP3    H257206   6.108   5.206  11.662 -1.1534  1.3391 -0.1729
11931TIP3   OH257207   2.857   0.280   5.074 -0.1040 -0.1609 -0.3037
11931TIP3    H157208   2.826   0.344   5.010  1.1395  1.3022  0.5273
11931TIP3    H257209   2.790   0.280   5.143  0.1136  0.5721 -0.0930
11932TIP3   OH257210   4.016   4.271  13.405  0.0298 -0.1637 -0.4570
11932TIP3    H157211   4.104   4.303  13.382 -0.5740  1.2106 -0.8747
11932TIP3    H257212   4.014   4.273  13.501  0.4687 -0.2600 -0.4438
11933TIP3   OH257213   1.388   5.965  16.355 -0.5252 -0.5823 -0.0595
11933TIP3    H157214   1.359   5.877  16.330  0.8866 -0.8094 -0.9823
11933TIP3    H257215   1.369   6.019  16.279  1.7289 -0.8107 -0.8366
11934TIP3   OH257216   2.422   0.765  13.852  0.1403 -0.1730 -0.2021
11934TIP3    H157217   2.354   0.824  13.819 -0.7445  0.5574  2.7437
11934TIP3    H257218   2.374   0.691  13.890  0.9814  0.0215  1.3087
11935TIP3   OH257219   0.089   4.777  15.086  0.7773  0.1476  0.1613
11935TIP3    H157220   0.098   4.861  15.129  0.6312  0.4118 -0.3189
11935TIP3    H257221   0.154   4.721  15.129 -1.0893 -0.3317  2.4471
11936TIP3   OH257222   4.865   1.937   0.017  0.6413 -0.4067  0.0218
11936TIP3    H157223   4.836   1.895  -0.064  1.0514  0.3055 -0.5096
11936TIP3    H257224   4.792   1.925   0.078  2.2893 -5.3152  1.1731
11937TIP3   OH257225   5.543   0.812   4.307 -0.0897 -0.6074 -0.0437
11937TIP3    H157226   5.476   0.793   4.242 -0.3535  2.4217 -0.7284
11937TIP3    H257227   5.508   0.885   4.357  1.7543 -0.4149  1.0145
11938TIP3   OH257228   4.490   5.385  10.261  0.3915 -0.0786 -0.1825
11938TIP3    H157229   4.461   5.308  10.212 -0.4548  0.4146 -0.4738
11938TIP3    H257230   4.431   5.388  10.336 -0.5537  1.1405 -0.9673
11939TIP3   OH257231   3.812   3.377  12.368 -0.0957 -0.4960  0.6302
11939TIP3    H157232   3.735   3.335  12.330  0.1493  0.2899 -0.7615
11939TIP3    H257233   3.780   3.460  12.402 -0.4012 -1.3946  2.5679
11940TIP3   OH257234   2.316   0.230  13.669 -0.3718  0.1714  0.1601
11940TIP3    H157235   2.320   0.316  13.628  0.2892  0.3281  0.5452
11940TIP3    H257236   2.358   0.172  13.605 -0.6260  0.1692 -0.0061
11941TIP3   OH257237   1.878   2.548   5.629  0.0116  0.1725 -0.2974
11941TIP3    H157238   1.864   2.453   5.634 -0.1361  0.2392  0.5993
11941TIP3    H257239   1.973   2.557   5.626  0.0039 -0.0658 -1.8820
11942TIP3   OH257240   4.200   3.219  16.196  0.2038  0.5378  0.7487
11942TIP3    H157241   4.197   3.128  16.165 -1.2482  0.7102  0.3571
11942TIP3    H257242   4.227   3.212  16.288 -1.2485 -0.3865  1.1192
11943TIP3   OH257243   0.360   1.928  15.597  0.4003  0.5201  0.6644
11943TIP3    H157244   0.265   1.935  15.585  0.1071  0.7886  2.8160
11943TIP3    H257245   0.388   1.868  15.529 -1.0163  1.9794 -1.2565
11944TIP3   OH257246   1.298   5.931   5.025  0.1820  0.4611  0.1369
11944TIP3    H157247   1.268   5.906   5.113 -0.6985  0.1561 -0.2560
11944TIP3    H257248   1.393   5.938   5.035  0.1992 -0.6098  0.8666
11945TIP3   OH257249   0.502   1.595   2.048 -0.1149  0.6439  0.2079
11945TIP3    H157250   0.416   1.625   2.078  0.2785  2.7622 -0.6799
11945TIP3    H257251   0.488   1.570   1.956  0.4805  2.3229 -0.3634
11946TIP3   OH257252   6.688   2.256  15.708 -0.2679 -0.3189 -0.5681
11946TIP3    H157253   6.633   2.328  15.740 -0.5769 -0.9368  0.3169
11946TIP3    H257254   6.649   2.177  15.747  0.4759 -0.8892 -0.9769
11947TIP3   OH257255   1.594   2.863   6.198  0.6330 -0.1327 -0.0528
11947TIP3    H157256   1.597   2.853   6.293 -0.7939  0.0396  0.0185
11947TIP3    H257257   1.593   2.958   6.184  1.4195 -0.1488 -0.2742
11948TIP3   OH257258   1.940   5.377  15.923  0.0038  0.8227  0.2129
11948TIP3    H157259   1.898   5.462  15.907  0.2883  0.7871 -0.7321
11948TIP3    H257260   1.967   5.347  15.836  0.7970  0.2280  0.6633
11949TIP3   OH257261   0.664   3.177  13.738 -0.2231 -0.4779  0.6194
11949TIP3    H157262   0.632   3.207  13.653 -0.4916 -1.5114  0.3437
11949TIP3    H257263   0.758   3.164  13.726 -0.2530 -0.5742  0.4934
11950TIP3   OH257264   3.346   5.595   0.184 -0.1065 -0.0806  0.0222
11950TIP3    H157265   3.417   5.659   0.170  1.6544 -1.5932  1.7624
11950TIP3    H257266   3.327   5.561   0.096 -0.4360  2.1283 -0.8075
11951TIP3   OH257267   5.340   6.658   3.945  0.4779 -0.1109  0.3978
11951TIP3    H157268   5.310   6.724   4.007 -0.0877  0.0736 -0.0685
11951TIP3    H257269   5.325   6.698   3.859  0.7344 -0.5875  0.1334
11952TIP3   OH257270   3.866   1.812   0.735  0.0915 -0.5341  0.0152
11952TIP3    H157271   3.906   1.899   0.736 -0.0970 -0.4480  0.0431
11952TIP3    H257272   3.940   1.751   0.742  0.2247 -0.3771 -0.0378
11953TIP3   OH257273   6.057   3.209  14.683 -0.2787 -0.6024 -0.4507
11953TIP3    H157274   6.096   3.226  14.597  1.8961 -0.1303  0.5993
11953TIP3    H257275   6.106   3.266  14.743 -1.7084 -0.9991  1.1222
11954TIP3   OH257276   2.914   5.972  13.478  0.3983  0.4170 -0.1419
11954TIP3    H157277   2.884   6.049  13.430 -0.1928  1.5850  2.0223
11954TIP3    H257278   2.848   5.905  13.459 -0.4525  1.2118 -0.0503
11955TIP3   OH257279   2.937   5.787   4.929 -0.1557  0.7426  0.1659
11955TIP3    H157280   2.922   5.876   4.962  0.2045  0.0913  2.1882
11955TIP3    H257281   2.854   5.742   4.943  0.7693 -0.2756  2.7368
11956TIP3   OH257282   3.653   6.050  15.584  0.7046 -0.2962 -0.0064
11956TIP3    H157283   3.667   6.066  15.491  1.1987  0.6342  0.2219
11956TIP3    H257284   3.616   6.132  15.617 -1.2472 -1.2563  0.2556
11957TIP3   OH257285   6.268   5.846   0.445 -0.6308 -0.0886  0.2267
11957TIP3    H157286   6.352   5.821   0.482 -0.1568  0.2979 -0.5768
11957TIP3    H257287   6.230   5.904   0.510  1.3343  2.6704 -0.9805
11958TIP3   OH257288   3.033   4.970  16.238 -0.1483 -0.1626 -0.0853
11958TIP3    H157289   3.101   4.918  16.281 -0.1297 -2.1146 -2.3400
11958TIP3    H257290   2.952   4.922  16.255 -0.2294 -0.5920 -1.6138
11959TIP3   OH257291   0.759   3.498  11.412  0.1109 -0.2005  0.1479
11959TIP3    H157292   0.700   3.539  11.475 -1.1353 -1.5152 -0.1451
11959TIP3    H257293   0.843   3.493  11.459  0.0494  1.7625  0.5248
11960TIP3   OH257294   2.920   1.221   4.577  0.4546 -0.0945  0.4078
11960TIP3    H157295   2.865   1.283   4.528 -0.3197 -1.9286 -1.0901
11960TIP3    H257296   2.862   1.185   4.643  0.5168 -0.2543  0.3753
11961TIP3   OH257297   3.050   3.961  15.694 -0.1707  0.6588 -0.0019
11961TIP3    H157298   2.997   3.881  15.697  0.8623  0.0032  1.4582
11961TIP3    H257299   3.128   3.935  15.646  0.0770  0.8435  0.3041
11962TIP3   OH257300   3.998   3.547   0.619  0.2177 -0.4982 -0.1017
11962TIP3    H157301   3.984   3.453   0.625  1.5022 -0.6616  0.4884
11962TIP3    H257302   4.016   3.562   0.526 -1.9110 -0.5418 -0.5381
11963TIP3   OH257303   0.873   0.755  14.420 -0.7650 -0.2125 -0.1267
11963TIP3    H157304   0.821   0.684  14.382 -1.0441 -0.3293  0.4592
11963TIP3    H257305   0.818   0.833  14.412 -0.8099 -0.2304  0.0059
11964TIP3   OH257306   3.638   2.640   4.557  0.3232 -0.1678  0.0634
11964TIP3    H157307   3.613   2.549   4.542 -0.9286  0.1076  0.3817
11964TIP3    H257308   3.695   2.638   4.634 -1.6650 -0.4289  1.5588
11965TIP3   OH257309   4.400   6.115  11.594 -0.0963 -0.1184  0.4652
11965TIP3    H157310   4.367   6.039  11.545  0.5115  0.7342 -1.3342
11965TIP3    H257311   4.322   6.154  11.633 -0.7147 -0.3604 -0.5085
11966TIP3   OH257312   1.643   2.016  10.948  0.3569  0.2265 -0.2320
11966TIP3    H157313   1.685   2.086  10.899 -1.0404 -0.3492 -2.3406
11966TIP3    H257314   1.688   1.937  10.920 -0.6127 -0.1316 -0.8413
11967TIP3   OH257315   6.578   1.320  13.574  0.5172 -0.3146 -0.0896
11967TIP3    H157316   6.664   1.345  13.540  1.7430 -1.5185  2.0369
11967TIP3    H257317   6.535   1.403  13.594  1.7843  0.2737  0.2712
11968TIP3   OH257318   1.498   4.566  16.519  0.1957 -0.2127  0.1450
11968TIP3    H157319   1.593   4.566  16.517  0.2099 -1.0587  0.4575
11968TIP3    H257320   1.475   4.629  16.588  0.5798 -1.3272  1.3155
11969TIP3   OH257321   3.770   1.415  15.859 -0.4748  0.4997 -0.4747
11969TIP3    H157322   3.787   1.399  15.951  1.2760  2.0730 -0.4963
11969TIP3    H257323   3.765   1.511  15.852 -1.6549  0.3577 -1.8315
11970TIP3   OH257324   1.765   3.239  11.472  0.8206 -0.1781  0.1121
11970TIP3    H157325   1.783   3.286  11.390 -0.1081  1.3551  0.7541
11970TIP3    H257326   1.832   3.271  11.532  1.4040 -1.1868  0.0094
11971TIP3   OH257327   1.256   4.260   4.749 -0.0568 -0.0863 -0.1952
11971TIP3    H157328   1.247   4.321   4.823  1.7864  2.3841 -1.9246
11971TIP3    H257329   1.327   4.201   4.775  0.2623  0.4716  0.2056
11972TIP3   OH257330   1.022   3.410   2.415  1.0541  0.2017  0.4585
11972TIP3    H157331   1.068   3.463   2.480 -0.1859 -0.5364  1.9821
11972TIP3    H257332   0.965   3.471   2.370  1.8612  0.7076  0.1085
11973TIP3   OH257333   3.412   3.809  16.251  0.0698 -0.5083  0.4688
11973TIP3    H157334   3.384   3.721  16.278 -0.2021  0.0281  1.9497
11973TIP3    H257335   3.331   3.860  16.247  0.3378 -0.0747  0.5390
11974TIP3   OH257336   2.295   4.027  12.301 -0.1795 -0.2534 -0.0906
11974TIP3    H157337   2.274   4.030  12.207  0.3843 -0.0151 -0.2147
11974TIP3    H257338   2.331   3.939  12.315  0.4979 -0.0105 -0.2709
11975TIP3   OH257339   1.619   3.067  10.555 -0.4618  0.1412 -0.2339
11975TIP3    H157340   1.697   3.113  10.587 -1.1199  1.1127 -0.0206
11975TIP3    H257341   1.556   3.136  10.536 -1.4576 -0.6698  0.0540
11976TIP3   OH257342   3.748   4.515   3.561 -0.0133  0.2977 -0.2066
11976TIP3    H157343   3.813   4.580   3.533  2.1497 -1.7313 -0.0499
11976TIP3    H257344   3.709   4.553   3.640  0.9251  1.5814 -0.3418
11977TIP3   OH257345   4.158   3.416   5.050 -0.1445 -0.1517  0.2133
11977TIP3    H157346   4.103   3.349   5.091  0.3602 -0.1438  0.9153
11977TIP3    H257347   4.237   3.418   5.105  1.2715 -1.3247 -1.7148
11978TIP3   OH257348   3.628   0.973   4.763 -0.0616  0.1932  0.2952
11978TIP3    H157349   3.545   1.018   4.749 -0.8050 -1.3977 -0.5590
11978TIP3    H257350   3.639   0.920   4.684  2.2370  1.1021 -0.0242
11979TIP3   OH257351   2.264   4.230  11.809 -0.0633 -0.1130  0.8718
11979TIP3    H157352   2.247   4.286  11.734  0.2082  1.2693  1.8188
11979TIP3    H257353   2.270   4.290  11.883  2.3059 -1.1635  1.6031
11980TIP3   OH257354   1.073   3.320   4.092 -0.7687  0.3031 -0.3536
11980TIP3    H157355   1.011   3.372   4.144  1.1504  3.7689 -1.3504
11980TIP3    H257356   1.030   3.309   4.008 -1.1080  0.4326 -0.2009
11981TIP3   OH257357   4.268   0.542   4.774  0.2528  0.0452  0.4169
11981TIP3    H157358   4.287   0.625   4.817  0.3244 -0.5762  1.6206
11981TIP3    H257359   4.354   0.505   4.753  0.3202 -0.9294  2.2762
11982TIP3   OH257360   3.760   5.635   4.695  0.2658  0.3304 -1.0213
11982TIP3    H157361   3.856   5.641   4.686  0.3414 -1.3733 -1.6085
11982TIP3    H257362   3.736   5.564   4.635 -0.9544 -1.7422  1.8156
11983TIP3   OH257363   1.331   2.474  15.190 -0.4498 -0.0873 -0.1857
11983TIP3    H157364   1.373   2.429  15.263  1.6998 -0.7934 -1.7981
11983TIP3    H257365   1.304   2.403  15.131  0.4989  0.5695 -1.4474
11984TIP3   OH257366   4.290   0.873  14.773  1.1111  0.1339  0.0336
11984TIP3    H157367   4.363   0.902  14.719  0.9901 -0.3968 -0.4169
11984TIP3    H257368   4.324   0.872  14.862 -0.1936  6.4645  0.8358
11985TIP3   OH257369   3.980   5.570  15.465 -0.0634 -0.3939 -0.5397
11985TIP3    H157370   3.927   5.650  15.465  2.4911  1.3813  1.0524
11985TIP3    H257371   3.916   5.499  15.469 -2.3303  1.6451  0.6413
11986TIP3   OH257372   0.074   4.314  12.400  0.3930  0.2767 -0.1060
11986TIP3    H157373   0.096   4.312  12.307 -0.5903  0.7157 -0.3604
11986TIP3    H257374   0.064   4.407  12.420 -0.6133  0.1172  0.1449
11987TIP3   OH257375   6.164   6.008   1.183 -0.0694 -0.1203  0.1134
11987TIP3    H157376   6.074   5.995   1.211 -0.0468 -0.6949 -0.0756
11987TIP3    H257377   6.195   6.083   1.235 -0.6815  0.1370  0.1065
11988TIP3   OH257378   3.463   5.732   2.242 -0.4357  0.2348 -0.0354
11988TIP3    H157379   3.528   5.687   2.296  0.0489  0.6219 -0.2922
11988TIP3    H257380   3.430   5.803   2.297 -0.7981 -0.0924  0.1713
11989TIP3   OH257381   6.005   3.019   0.850  0.1060 -0.0345 -0.6158
11989TIP3    H157382   6.080   2.998   0.795  1.3123  1.2281  0.5318
11989TIP3    H257383   5.936   3.042   0.788  0.4915 -1.6895 -1.6994
11990TIP3   OH257384   1.622   0.055   0.816  0.6090 -0.1598  0.1840
11990TIP3    H157385   1.712   0.083   0.832  0.2419 -0.6049  3.3244
11990TIP3    H257386   1.572   0.137   0.808  1.2300  0.0849 -1.5245
11991TIP3   OH257387   6.397   4.258  15.168 -0.1716  0.2861  0.1227
11991TIP3    H157388   6.351   4.288  15.246 -1.2269  0.4372 -0.5611
11991TIP3    H257389   6.481   4.225  15.201  0.4506  2.7016  1.0236
11992TIP3   OH257390   4.571   3.915  13.580  0.0576  0.2162 -0.3348
11992TIP3    H157391   4.646   3.864  13.612 -1.3602 -0.4867  1.9532
11992TIP3    H257392   4.541   3.866  13.503 -0.5371 -1.7704  1.1157
11993TIP3   OH257393   1.623   1.880   6.383 -0.3691  0.3362  0.3186
11993TIP3    H157394   1.568   1.803   6.366 -0.5763  0.3822  0.7723
11993TIP3    H257395   1.582   1.950   6.331 -1.3852  0.6344  1.5007
11994TIP3   OH257396   3.753   5.396   5.510  0.1353 -0.1776  0.0925
11994TIP3    H157397   3.664   5.429   5.514  0.4348  0.7647 -0.8429
11994TIP3    H257398   3.769   5.358   5.596 -1.4716 -1.1613 -0.0349
11995TIP3   OH257399   5.059   1.932   3.854  0.0272 -0.0070 -0.4219
11995TIP3    H157400   5.112   2.012   3.861 -1.0247  0.7721 -1.1331
11995TIP3    H257401   4.973   1.963   3.826 -0.6969 -1.2941  0.3497
11996TIP3   OH257402   4.138   5.313   3.353  0.1355  0.3090  0.3722
11996TIP3    H157403   4.232   5.293   3.352 -0.0424 -0.7685 -2.7446
11996TIP3    H257404   4.100   5.251   3.290 -2.3382  2.1992 -0.0902
11997TIP3   OH257405   1.901   3.898  11.782 -0.0495 -0.5324  0.5719
11997TIP3    H157406   1.826   3.911  11.723  1.9661 -0.1066 -1.9784
11997TIP3    H257407   1.907   3.803  11.793  1.1181 -0.8261 -2.1026
11998TIP3   OH257408   3.030   5.148   6.256 -0.1670  0.0358 -0.2207
11998TIP3    H157409   3.082   5.085   6.306 -0.7844 -0.2831  0.0234
11998TIP3    H257410   3.087   5.173   6.183 -0.7312 -2.4867 -1.5911
11999TIP3   OH257411   0.503   2.836   0.369 -0.0082  0.1014  0.3114
11999TIP3    H157412   0.557   2.757   0.381 -0.0093  0.1589  0.7107
11999TIP3    H257413   0.515   2.885   0.451 -1.4909 -0.3792  0.8377
12000TIP3   OH257414   4.744   0.357   5.260 -0.2406 -0.2132 -0.2213
12000TIP3    H157415   4.816   0.387   5.315  0.5862  0.9448 -1.9232
12000TIP3    H257416   4.744   0.262   5.271 -0.5058  0.0305  2.2611
12001TIP3   OH257417   4.865   1.631   1.402 -0.1507 -0.5371 -0.0539
12001TIP3    H157418   4.927   1.580   1.454 -0.5329 -0.2297  0.7113
12001TIP3    H257419   4.814   1.566   1.354  0.2739 -0.8191 -0.1192
12002TIP3   OH257420   4.622   1.139   3.332  0.5543 -0.3113 -0.2683
12002TIP3    H157421   4.643   1.079   3.261 -0.2101  0.3563 -1.0566
12002TIP3    H257422   4.583   1.215   3.290 -1.6655 -0.7079  0.9987
12003TIP3   OH257423   4.670   5.434  14.643 -0.7792 -0.7151  0.1112
12003TIP3    H157424   4.586   5.419  14.685 -0.4980  1.1227  1.3804
12003TIP3    H257425   4.730   5.456  14.714  0.3371 -0.1635 -0.9653
12004TIP3   OH257426   0.337   4.279  16.514 -0.1084 -0.4543 -0.1799
12004TIP3    H157427   0.422   4.272  16.470 -0.6480  0.9090 -1.4960
12004TIP3    H257428   0.356   4.326  16.595  0.7200 -1.9996  0.5268
12005TIP3   OH257429   3.028   4.389   3.107 -0.3770  0.2459 -0.0167
12005TIP3    H157430   3.082   4.310   3.098  0.0462  0.4295  0.8198
12005TIP3    H257431   3.048   4.440   3.028  1.3816  0.7188  0.6945
12006TIP3   OH257432   3.906   5.603   5.120 -0.4533  0.1259 -0.1606
12006TIP3    H157433   3.885   5.614   5.213  0.9623 -0.6414  0.2648
12006TIP3    H257434   3.832   5.555   5.084 -0.7877  0.0007  0.6848
12007TIP3   OH257435   1.345   0.651  13.760  0.9672  0.1687  0.0807
12007TIP3    H157436   1.373   0.564  13.733 -2.1289 -0.5789 -1.0022
12007TIP3    H257437   1.386   0.710  13.698 -0.0660 -0.8880 -1.6370
12008TIP3   OH257438   4.424   4.994   2.537  0.2040 -0.0821  0.2725
12008TIP3    H157439   4.404   5.086   2.553  0.7835 -0.1663  1.5715
12008TIP3    H257440   4.341   4.949   2.556 -0.9599  0.4335 -3.3291
12009TIP3   OH257441   4.081   0.512   1.622  0.2469 -0.1597 -0.0346
12009TIP3    H157442   4.053   0.421   1.614 -2.0902  0.4568  0.5867
12009TIP3    H257443   4.176   0.509   1.613  0.1489 -2.5693 -0.7141
12010TIP3   OH257444   3.773   6.088  14.492  0.2080  0.1985 -0.8288
12010TIP3    H157445   3.697   6.076  14.435  0.4817  1.2379 -1.4216
12010TIP3    H257446   3.750   6.163  14.547  0.7014  0.3655 -0.8471
12011TIP3   OH257447   5.097   0.655  11.573 -0.7674  0.1011  0.1226
12011TIP3    H157448   5.190   0.636  11.577 -0.9479 -0.6322  0.9313
12011TIP3    H257449   5.092   0.747  11.546  0.1559 -0.2243 -1.1789
12012TIP3   OH257450   0.940   6.320  15.799  0.5963 -0.0948  0.3302
12012TIP3    H157451   1.019   6.311  15.745 -1.1456  0.1535 -2.3582
12012TIP3    H257452   0.885   6.247  15.772 -0.1385 -0.2409  2.1684
12013TIP3   OH257453   6.309   4.902   4.807  0.1214 -0.2936 -0.6952
12013TIP3    H157454   6.252   4.837   4.847  2.1594 -1.2840  0.6572
12013TIP3    H257455   6.254   4.980   4.798 -1.8758 -1.6828 -0.8666
12014TIP3   OH257456   2.265   2.925   0.394  0.1895  0.2775 -0.0614
12014TIP3    H157457   2.172   2.903   0.398  0.3960 -0.2145  2.4694
12014TIP3    H257458   2.303   2.855   0.340 -0.7604  0.0339 -0.4367
12015TIP3   OH257459   4.158   0.253   1.568  0.4828 -0.1105  0.0496
12015TIP3    H157460   4.134   0.209   1.650  2.1017 -0.6877  0.2324
12015TIP3    H257461   4.224   0.196   1.529  1.8167  1.6110 -0.2419
12016TIP3   OH257462   4.264   1.037  16.112  0.6676  0.1276  0.0377
12016TIP3    H157463   4.220   1.085  16.043 -0.1094  1.8999  1.7209
12016TIP3    H257464   4.356   1.036  16.086  0.3610  0.6136 -1.0943
12017TIP3   OH257465   0.542   5.516   5.696 -0.4496  0.8822  0.6168
12017TIP3    H157466   0.597   5.594   5.707  2.2409 -0.8224 -0.2335
12017TIP3    H257467   0.574   5.455   5.762 -1.3661 -0.1112  0.1463
12018TIP3   OH257468   3.351   2.330   3.364  0.1166  0.0603 -0.4585
12018TIP3    H157469   3.373   2.380   3.443 -2.0163  1.2701 -0.5789
12018TIP3    H257470   3.383   2.383   3.292  0.1824 -0.0182 -0.4867
12019TIP3   OH257471   0.764   2.549   4.936  0.3091  0.2945 -0.2248
12019TIP3    H157472   0.676   2.526   4.905  0.6634  0.4157 -1.3505
12019TIP3    H257473   0.769   2.511   5.024 -0.5362 -0.4965 -0.5043
12020TIP3   OH257474   0.578   6.253   6.224 -0.3401 -0.2203  0.3617
12020TIP3    H157475   0.575   6.326   6.162 -0.7436 -1.8490 -1.5785
12020TIP3    H257476   0.624   6.288   6.300  1.4789  1.4005 -1.4226
12021TIP3   OH257477   1.367   5.953   2.893 -0.3265  0.3451  0.0186
12021TIP3    H157478   1.338   5.962   2.802  0.0430  0.5096 -0.0825
12021TIP3    H257479   1.377   6.043   2.924 -1.0886  0.2903  0.4258
12022TIP3   OH257480   0.655   4.316   5.883 -0.2393 -0.4652  0.1023
12022TIP3    H157481   0.690   4.384   5.941  2.5987 -3.0411  1.5006
12022TIP3    H257482   0.709   4.321   5.804 -1.2931  0.1376 -0.6042
12023TIP3   OH257483   2.484   0.693  14.474 -0.6977  0.1382 -0.8801
12023TIP3    H157484   2.576   0.681  14.449 -0.6818 -2.0737  0.1039
12023TIP3    H257485   2.437   0.701  14.391  0.0521 -1.5471 -1.5042
12024TIP3   OH257486   2.366   6.281  10.927 -0.4098  0.1131 -0.2278
12024TIP3    H157487   2.357   6.375  10.944  0.6809  0.5145 -1.7055
12024TIP3    H257488   2.322   6.268  10.843 -0.0485 -0.5941 -0.3087
12025TIP3   OH257489   2.948   4.317  14.260  0.1858 -0.6783 -0.1816
12025TIP3    H157490   3.008   4.248  14.233  2.0060  0.6123  0.4414
12025TIP3    H257491   2.864   4.273  14.275  0.8958 -2.4582 -1.3581
12026TIP3   OH257492   0.248   5.336  11.605 -0.0638 -0.1069 -0.1462
12026TIP3    H157493   0.154   5.333  11.623 -0.2372  0.1380 -0.9820
12026TIP3    H257494   0.289   5.297  11.682 -0.9046 -1.1606 -0.2342
12027TIP3   OH257495   0.239   3.230  16.299 -0.6363  0.1909  0.1158
12027TIP3    H157496   0.233   3.154  16.241  2.7919  1.0740 -1.5672
12027TIP3    H257497   0.168   3.287  16.271 -0.9313 -0.7667 -1.1370
12028TIP3   OH257498   0.093   2.965  16.679  0.2175 -0.5584 -0.4539
12028TIP3    H157499   0.106   3.059  16.667 -0.4633 -0.4445 -0.2631
12028TIP3    H257500   0.121   2.948  16.769  0.3465 -0.5412 -0.4888
12029TIP3   OH257501   2.856   3.129  13.696  0.3135  0.5158  0.3864
12029TIP3    H157502   2.840   3.182  13.618 -2.4003 -0.2140  0.3993
12029TIP3    H257503   2.931   3.074  13.673  0.1582  0.9982 -1.3485
12030TIP3   OH257504   4.160   4.267  12.953 -0.4284 -0.0302 -0.2653
12030TIP3    H157505   4.201   4.350  12.926 -1.3216  0.5604  0.1529
12030TIP3    H257506   4.233   4.206  12.961  0.1378  0.4800 -1.4703
12031TIP3   OH257507   2.591   4.438  16.227  0.1741 -0.3806  0.1409
12031TIP3    H157508   2.655   4.457  16.158 -0.1658 -2.6749 -0.8641
12031TIP3    H257509   2.506   4.453  16.185 -0.0102  0.6018  0.8329
12032TIP3   OH257510   2.534   0.586  15.381 -0.4115  0.7631  0.8659
12032TIP3    H157511   2.566   0.638  15.455 -0.6146  1.0277  0.7707
12032TIP3    H257512   2.472   0.524  15.421 -0.5420  0.9238  0.9123
12033TIP3   OH257513   4.858   1.353   1.729  0.4288 -0.0062  0.4309
12033TIP3    H157514   4.819   1.376   1.813  0.6326  0.7134  0.3292
12033TIP3    H257515   4.914   1.278   1.748 -1.2224 -1.2495  0.5210
12034TIP3   OH257516   0.086   3.661  15.343 -0.0477 -0.0145  0.4493
12034TIP3    H157517   0.136   3.581  15.360  0.9588  0.2933 -1.0541
12034TIP3    H257518   0.152   3.729  15.331 -0.8611  0.6203 -0.4412
12035TIP3   OH257519   1.420   1.653  13.974  0.0294  0.2599 -1.1712
12035TIP3    H157520   1.377   1.589  13.917  0.9092  0.4837 -2.1222
12035TIP3    H257521   1.395   1.627  14.062  0.8602 -1.7815 -1.4981
12036TIP3   OH257522   6.214   2.686   0.455  0.2813 -0.8948  0.0469
12036TIP3    H157523   6.274   2.614   0.443 -0.0197 -1.4611  1.7527
12036TIP3    H257524   6.129   2.645   0.472 -0.2375 -0.1316 -0.6386
12037TIP3   OH257525   2.529   2.626  12.490  0.1659  0.4776  0.5470
12037TIP3    H157526   2.552   2.716  12.512  0.6805  0.2721  0.8748
12037TIP3    H257527   2.547   2.577  12.570  0.1482  0.0446  0.2854
12038TIP3   OH257528   1.130   6.322   2.217 -0.1948 -0.3116  0.4022
12038TIP3    H157529   1.205   6.312   2.275 -0.1650  0.9490  0.5886
12038TIP3    H257530   1.168   6.342   2.131 -0.2828 -0.8507  0.2357
12039TIP3   OH257531   5.401   4.640   6.191 -0.3704  0.1755  0.4870
12039TIP3    H157532   5.348   4.679   6.260 -0.7688 -0.6003  0.6271
12039TIP3    H257533   5.466   4.588   6.239 -1.8603 -1.9530  0.2702
12040TIP3   OH257534   0.327   2.495  12.819 -0.4463 -0.3400 -0.4719
12040TIP3    H157535   0.309   2.555  12.747  1.1962  0.6638 -0.0668
12040TIP3    H257536   0.422   2.494  12.827 -0.5637 -1.0370  1.1953
12041TIP3   OH257537   2.772   1.744   6.303  0.5788 -0.5088 -0.4893
12041TIP3    H157538   2.752   1.655   6.333  0.0872  0.0702  0.9760
12041TIP3    H257539   2.689   1.792   6.314  1.6895  0.9643  1.9588
12042TIP3   OH257540   1.289   1.164  11.748 -0.1152 -0.3215  0.1471
12042TIP3    H157541   1.242   1.231  11.698 -3.1403 -1.8211  0.8607
12042TIP3    H257542   1.247   1.082  11.723  1.7474 -1.6634  1.3100
12043TIP3   OH257543   6.374   2.015  11.815  0.5471  0.5760 -0.1094
12043TIP3    H157544   6.293   2.037  11.861  0.3231  1.5416 -0.9495
12043TIP3    H257545   6.347   1.962  11.741  0.8858 -0.7593  0.7040
12044TIP3   OH257546   3.121   3.313   4.096 -0.5255  0.0801  0.3018
12044TIP3    H157547   3.129   3.401   4.133 -1.5408 -0.2263  1.2838
12044TIP3    H257548   3.098   3.327   4.004 -1.2931  0.8421  0.6085
12045TIP3   OH257549   3.500   3.105   4.948  0.1615 -0.2516  0.3462
12045TIP3    H157550   3.478   3.150   5.029 -0.4678 -0.8888  0.5299
12045TIP3    H257551   3.428   3.044   4.933  0.3843 -0.3065 -0.5688
12046TIP3   OH257552   3.651   2.578   3.750 -0.1895 -0.0796 -0.2307
12046TIP3    H157553   3.626   2.519   3.821  0.0977 -0.0549 -0.1122
12046TIP3    H257554   3.679   2.658   3.794  1.0498 -0.4594 -0.3338
12047TIP3   OH257555   0.958   1.054   4.209  0.1331 -0.2660  0.0428
12047TIP3    H157556   1.036   1.034   4.156  0.4181  2.5823 -0.6983
12047TIP3    H257557   0.992   1.105   4.282 -0.8239 -0.6531  0.7638
12048TIP3   OH257558   0.079   1.562   0.340 -0.4641 -0.2375 -0.3666
12048TIP3    H157559   0.002   1.603   0.379 -0.1668 -1.0542  1.1256
12048TIP3    H257560   0.138   1.546   0.414  0.9656  0.0077 -1.4316
12049TIP3   OH257561   2.602   4.547  15.550  0.4333  0.3572 -0.3371
12049TIP3    H157562   2.513   4.559  15.518  1.5612  3.4202 -2.5434
12049TIP3    H257563   2.634   4.469  15.506 -0.3222  0.6698 -1.4393
12050TIP3   OH257564   6.728   5.599   3.094 -0.0348  0.0606  0.1791
12050TIP3    H157565   6.700   5.517   3.053  0.7943  0.7144 -1.7088
12050TIP3    H257566   6.648   5.632   3.136 -0.3306 -1.7977  1.1588
12051TIP3   OH257567   0.433   4.021  16.820 -0.0615  0.2327  0.0744
12051TIP3    H157568   0.363   3.983  16.874  0.3473  2.1055  2.0212
12051TIP3    H257569   0.513   4.005  16.871  0.6489 -0.0110 -1.1116
12052TIP3   OH257570   4.304   4.298   1.258 -0.2137 -0.5898 -0.3821
12052TIP3    H157571   4.305   4.212   1.218  1.5276 -0.1661 -1.3036
12052TIP3    H257572   4.245   4.290   1.332 -0.7822 -2.3162 -1.0161
12053TIP3   OH257573   2.761   0.077  16.963  0.3067 -0.0917 -0.4258
12053TIP3    H157574   2.801   0.073  17.049 -1.6776  0.1543  0.5347
12053TIP3    H257575   2.734   0.168  16.953 -1.8749 -0.6772 -0.1614
12054TIP3   OH257576   3.127   2.370  16.190 -0.1787 -0.0691 -0.2515
12054TIP3    H157577   3.183   2.432  16.144  0.8569 -0.7956  0.0043
12054TIP3    H257578   3.061   2.345  16.126 -1.8104  2.7699  0.2248
12055TIP3   OH257579   5.921   5.849   3.477 -0.2069  0.1930 -0.2779
12055TIP3    H157580   5.906   5.939   3.447 -0.0346 -0.9981 -4.2700
12055TIP3    H257581   6.015   5.845   3.495 -0.3105  0.9382  0.4690
12056TIP3   OH257582   1.175   4.147  16.994  0.0380  0.0339 -0.4030
12056TIP3    H157583   1.198   4.236  17.022  0.3015 -0.7150  1.8554
12056TIP3    H257584   1.116   4.115  17.062 -0.3006 -1.4321 -1.3641
12057TIP3   OH257585   3.476   3.987   1.952 -0.6209 -0.4738 -0.1768
12057TIP3    H157586   3.571   3.978   1.960 -0.1823  3.2826 -0.2868
12057TIP3    H257587   3.449   4.036   2.030 -2.1834  0.0354 -0.9970
12058TIP3   OH257588   3.296   1.106   0.754 -0.2025  0.1083 -1.1328
12058TIP3    H157589   3.382   1.084   0.718 -0.4251  0.9025 -2.1616
12058TIP3    H257590   3.314   1.139   0.842  0.6035  0.9371 -1.6064
12059TIP3   OH257591   5.645   3.233   0.036 -0.0848  0.0303  0.0764
12059TIP3    H157592   5.596   3.305  -0.006  0.2961  0.1210 -0.2140
12059TIP3    H257593   5.602   3.154   0.004  0.2738  0.0955 -0.5850
12060TIP3   OH257594   1.432   4.416  15.019 -0.1852  0.0120 -0.2532
12060TIP3    H157595   1.472   4.391  14.936 -1.4260 -0.2093 -0.8007
12060TIP3    H257596   1.343   4.442  14.995 -0.9593 -1.2862  1.1811
12061TIP3   OH257597   5.676   5.715   3.447 -0.3032  0.4017 -0.7055
12061TIP3    H157598   5.671   5.659   3.525 -1.6207  2.1139  0.4711
12061TIP3    H257599   5.758   5.762   3.458 -0.3485  0.4341 -0.4877
12062TIP3   OH257600   6.570   0.422  15.736 -0.4360 -0.1980 -0.0994
12062TIP3    H157601   6.557   0.514  15.761 -2.0871 -0.5769  0.5257
12062TIP3    H257602   6.527   0.415  15.650  0.4327 -0.2029 -0.5448
12063TIP3   OH257603   6.680   1.910  14.262 -0.4925 -0.1013 -0.2491
12063TIP3    H157604   6.726   1.865  14.333 -3.0530 -2.3018  0.1137
12063TIP3    H257605   6.647   1.990  14.303 -0.0668 -0.2685  0.4433
12064TIP3   OH257606   6.430   3.507  11.924  0.5756 -0.2559 -0.1998
12064TIP3    H157607   6.427   3.502  11.828  0.9960  0.5859 -0.2634
12064TIP3    H257608   6.519   3.535  11.944  0.1698  0.6723  0.3763
12065TIP3   OH257609   0.172   4.587   4.684  0.3639 -0.1283 -0.6585
12065TIP3    H157610   0.187   4.609   4.775  1.6461 -0.6616 -0.7314
12065TIP3    H257611   0.177   4.491   4.681  1.3476 -0.0597 -1.4504
12066TIP3   OH257612   5.518   1.164   4.260 -0.0022  0.3943  0.5026
12066TIP3    H157613   5.429   1.149   4.228  0.5176  0.6579 -1.0794
12066TIP3    H257614   5.515   1.251   4.300 -0.0653  1.1225 -1.0438
12067TIP3   OH257615   3.859   6.614   4.410  0.1649 -0.3174  0.4055
12067TIP3    H157616   3.894   6.630   4.497  0.3912  1.5226 -0.0225
12067TIP3    H257617   3.764   6.627   4.419  0.5628  3.7635 -0.4465
12068TIP3   OH257618   3.714   5.968  12.478  0.3932  0.5873 -0.0278
12068TIP3    H157619   3.748   5.903  12.538  2.4035 -0.7519 -2.5493
12068TIP3    H257620   3.719   6.051  12.526  1.8598 -0.4730  1.6706
12069TIP3   OH257621   3.555   2.495  15.347  0.3423 -0.7489  0.0866
12069TIP3    H157622   3.515   2.409  15.363 -0.9044 -0.2319 -0.1876
12069TIP3    H257623   3.506   2.554  15.404  0.3978 -0.0193 -0.6192
12070TIP3   OH257624   2.144   5.667   6.873  0.1628 -0.0786 -0.4063
12070TIP3    H157625   2.147   5.571   6.879  0.2600  0.0202  1.2303
12070TIP3    H257626   2.059   5.685   6.832 -0.0033 -0.8460 -0.4231
12071TIP3   OH257627   2.810   4.384  12.233 -0.5386 -0.3145  0.3475
12071TIP3    H157628   2.821   4.339  12.149 -2.2576  0.2025 -0.1638
12071TIP3    H257629   2.724   4.424  12.228  0.1156  1.3044  1.6289
12072TIP3   OH257630   2.100   3.418  14.894 -0.2822  0.1822  0.8441
12072TIP3    H157631   2.048   3.338  14.888 -0.1658  0.1326  0.5153
12072TIP3    H257632   2.080   3.466  14.814 -0.4373  0.5338  1.0965
12073TIP3   OH257633   0.248   6.715  11.101  0.9534 -0.6129  0.6130
12073TIP3    H157634   0.242   6.621  11.088 -2.4169 -0.5585  1.4229
12073TIP3    H257635   0.262   6.751  11.014 -3.1837 -1.5297 -0.5270
12074TIP3   OH257636   4.807   1.890  14.505 -0.8429 -0.0231 -0.5034
12074TIP3    H157637   4.765   1.926  14.583 -0.0467 -3.4629  1.6209
12074TIP3    H257638   4.740   1.834  14.465 -0.4534 -0.2703 -0.8217
12075TIP3   OH257639   6.273   5.405  15.852  0.1365 -0.6012  0.1523
12075TIP3    H157640   6.298   5.366  15.768  0.1522 -0.7806  0.2398
12075TIP3    H257641   6.184   5.437  15.838  0.9684  1.4029 -0.6333
12076TIP3   OH257642   5.675   3.394  12.288 -0.0467 -0.4690 -0.5289
12076TIP3    H157643   5.612   3.451  12.244 -0.5676 -0.7639 -0.1635
12076TIP3    H257644   5.759   3.415  12.246 -0.2580  0.4511 -0.5017
12077TIP3   OH257645   6.074   3.626  14.586 -0.5970  0.1857 -0.4346
12077TIP3    H157646   6.082   3.638  14.492 -0.7002  2.2684 -0.1958
12077TIP3    H257647   6.163   3.629  14.619 -0.5199 -1.0949 -0.5299
12078TIP3   OH257648   0.249   1.624  14.517 -0.0154  0.0501 -0.2511
12078TIP3    H157649   0.215   1.666  14.595 -0.3629 -1.1293  0.2473
12078TIP3    H257650   0.308   1.557  14.550  2.2962  1.6218 -1.0877
12079TIP3   OH257651   3.735   6.134  11.753  0.2388  0.7559  0.1628
12079TIP3    H157652   3.823   6.140  11.790  0.3666 -1.6052  0.3213
12079TIP3    H257653   3.677   6.157  11.826  0.6763  1.4314  0.3058
12080TIP3   OH257654   4.898   5.310   3.152  0.2171 -0.0068  0.5341
12080TIP3    H157655   4.942   5.314   3.067 -0.9062 -0.2953 -0.0687
12080TIP3    H257656   4.855   5.396   3.160 -0.0884 -0.1621  0.5748
12081TIP3   OH257657   2.878   5.526   2.887  0.5979  0.1415  0.1093
12081TIP3    H157658   2.949   5.501   2.946  2.8825  2.2011 -1.6552
12081TIP3    H257659   2.849   5.444   2.848  1.7353 -0.7706  1.1398
12082TIP3   OH257660   3.232   5.279  16.619 -0.2964 -0.2443  0.3420
12082TIP3    H157661   3.150   5.234  16.640 -0.0372 -1.3224 -0.8955
12082TIP3    H257662   3.300   5.226  16.662 -0.2206  0.5083  1.1609
12083TIP3   OH257663   2.571   5.995  16.351 -0.2196  0.2094 -0.6180
12083TIP3    H157664   2.481   6.026  16.339 -1.5153 -2.6327  1.2083
12083TIP3    H257665   2.562   5.916  16.404  3.5201  0.7631  0.9769
12084TIP3   OH257666   5.174   0.033   5.174  0.4697  0.2764 -0.0942
12084TIP3    H157667   5.212   0.121   5.171  0.2708  0.3088 -1.8376
12084TIP3    H257668   5.156   0.019   5.267 -1.2304  2.8071  0.0131
12085TIP3   OH257669   1.078   1.682  16.699 -0.2652  0.1621  0.5848
12085TIP3    H157670   1.100   1.592  16.673 -0.1340  1.0852 -2.7884
12085TIP3    H257671   1.136   1.736  16.645 -2.3808  2.3341  0.4290
12086TIP3   OH257672   3.374   2.809   3.182  0.0115  0.2230 -0.4796
12086TIP3    H157673   3.288   2.849   3.188 -1.7209 -3.5761  1.7508
12086TIP3    H257674   3.363   2.736   3.121  1.7802 -0.0091 -0.5663
12087TIP3   OH257675   2.027   5.888  12.580 -0.4099 -0.1171  0.1991
12087TIP3    H157676   2.001   5.915  12.668 -1.5151  0.9692 -0.4614
12087TIP3    H257677   1.986   5.802  12.568 -0.8396  0.0486  0.4791
12088TIP3   OH257678   1.179   0.790   0.473 -0.0490  0.7267  0.0410
12088TIP3    H157679   1.116   0.751   0.534 -0.2785 -0.4977 -0.9666
12088TIP3    H257680   1.212   0.867   0.519 -0.1531 -0.2265  1.7589
12089TIP3   OH257681   4.683   4.860   0.961 -0.3754  0.0934 -0.6558
12089TIP3    H157682   4.771   4.869   0.999 -0.5365  0.2124 -0.3030
12089TIP3    H257683   4.688   4.905   0.877  0.0141 -0.2519 -0.8170
12090TIP3   OH257684   0.836   5.925  14.102 -0.3016 -0.2204  0.2957
12090TIP3    H157685   0.809   5.851  14.048  3.0434 -0.4201 -1.2437
12090TIP3    H257686   0.838   6.000  14.042 -0.6553  0.4747  1.1287
12091TIP3   OH257687   0.426   5.359   4.503  0.0376  0.0124  0.1161
12091TIP3    H157688   0.511   5.324   4.475 -0.3253 -0.0571 -0.9426
12091TIP3    H257689   0.363   5.291   4.480 -0.4178  0.4546  0.0341
12092TIP3   OH257690   2.108   2.006  16.433  0.0562 -0.3028  0.1285
12092TIP3    H157691   2.187   1.952  16.430 -0.2679 -0.7957  0.3745
12092TIP3    H257692   2.101   2.032  16.525  1.5720  2.2069 -0.4239
12093TIP3   OH257693   4.304   1.275   4.470  0.4538  0.0030 -0.7512
12093TIP3    H157694   4.298   1.336   4.397 -0.0461  1.1260  0.2121
12093TIP3    H257695   4.385   1.300   4.516  0.0408  0.2016 -0.1262
12094TIP3   OH257696   2.059   3.659  15.546 -0.0023 -0.4318 -0.1021
12094TIP3    H157697   2.147   3.631  15.521  0.9134  1.2694  1.0840
12094TIP3    H257698   2.073   3.743  15.591 -2.2683  0.0310 -0.2318
12095TIP3   OH257699   6.685   0.222   1.765  0.8437  0.3099  0.4040
12095TIP3    H157700   6.748   0.291   1.787  1.0435  0.1200  0.4189
12095TIP3    H257701   6.600   0.260   1.788  0.9660  0.4957  0.5539
12096TIP3   OH257702   5.111   5.814   0.244 -0.2075 -0.2692  1.0039
12096TIP3    H157703   5.055   5.755   0.295  0.4973 -0.2381  1.8169
12096TIP3    H257704   5.054   5.846   0.174 -1.4275  0.3237  2.2479
12097TIP3   OH257705   3.180   2.035  14.522 -0.3859 -0.4501 -0.0390
12097TIP3    H157706   3.265   2.062  14.556 -1.4465  0.0517  2.3610
12097TIP3    H257707   3.146   1.975  14.588 -2.5886  0.6754 -0.0932
12098TIP3   OH257708   0.289   1.346   5.138  0.0490  0.5095 -0.1299
12098TIP3    H157709   0.340   1.424   5.118  0.7832 -0.0112 -0.3310
12098TIP3    H257710   0.342   1.274   5.103 -0.4940 -0.0934  0.2861
12099TIP3   OH257711   1.338   6.429  13.838 -0.0500  0.3910  0.4050
12099TIP3    H157712   1.288   6.385  13.907 -1.9086  1.1415 -0.4292
12099TIP3    H257713   1.399   6.362  13.806  0.3598 -0.1780  2.2618
12100TIP3   OH257714   6.214   5.005  12.027 -0.2426  0.4310 -0.1332
12100TIP3    H157715   6.158   5.010  11.949 -2.4766  1.6083  1.4557
12100TIP3    H257716   6.194   4.920  12.066 -1.4331  1.0826  0.7394
12101TIP3   OH257717   4.396   0.728   1.865  0.3686 -0.0486 -0.3854
12101TIP3    H157718   4.362   0.690   1.783 -0.1187 -0.0098 -0.2052
12101TIP3    H257719   4.372   0.664   1.932 -2.0322  1.3904  0.1799
12102TIP3   OH257720   5.399   3.369  17.146  0.5878  0.5179  0.4097
12102TIP3    H157721   5.370   3.286  17.183  2.1824 -0.3903 -0.3169
12102TIP3    H257722   5.390   3.358  17.051  0.1964  1.4225  0.3279
12103TIP3   OH257723   5.172   3.882   3.891 -0.6998  0.5092 -0.0282
12103TIP3    H157724   5.103   3.911   3.950 -0.8754  1.9043 -0.8955
12103TIP3    H257725   5.254   3.898   3.938 -0.9224 -0.4814  0.7151
12104TIP3   OH257726   3.249   2.570  12.538 -0.0544  0.6367  0.0986
12104TIP3    H157727   3.302   2.531  12.468  1.5319  0.3528  1.4425
12104TIP3    H257728   3.267   2.664  12.531  0.6724  0.5398  0.5671
12105TIP3   OH257729   0.960   2.440   5.749  0.4710  0.0460 -0.7063
12105TIP3    H157730   0.901   2.383   5.701  1.9665  0.2709 -2.8917
12105TIP3    H257731   0.919   2.527   5.744  0.0430 -0.1478 -0.5645
12106TIP3   OH257732   6.744   4.339  13.354  0.5798 -0.0766  0.4875
12106TIP3    H157733   6.666   4.310  13.307  0.6318 -1.2715  1.0988
12106TIP3    H257734   6.711   4.371  13.438  0.7461 -0.6010  0.7545
12107TIP3   OH257735   4.815   3.553   0.381 -0.1773  0.2996 -0.3408
12107TIP3    H157736   4.758   3.476   0.385 -0.6008  0.5927 -0.6516
12107TIP3    H257737   4.843   3.568   0.471 -1.1231  0.5485 -0.0838
12108TIP3   OH257738   3.160   3.225   1.758  0.5887  0.4325  0.0494
12108TIP3    H157739   3.208   3.308   1.764 -0.0479  0.7799  0.5141
12108TIP3    H257740   3.068   3.251   1.771  0.4372 -0.4047  0.6568
12109TIP3   OH257741   3.972   2.002  14.352  0.2115 -0.1055 -0.2818
12109TIP3    H157742   3.948   2.054  14.276  0.1530 -0.8011 -0.7354
12109TIP3    H257743   3.929   2.047  14.426 -0.9010 -0.2438 -0.8376
12110TIP3   OH257744   4.770   0.221  12.611 -0.1004  0.5358  0.0315
12110TIP3    H157745   4.808   0.306  12.634 -0.9222  1.4816 -2.0169
12110TIP3    H257746   4.677   0.230  12.632  0.0898 -0.4556  1.3919
12111TIP3   OH257747   3.855   3.699   5.554  0.2108  0.3026 -0.4356
12111TIP3    H157748   3.830   3.666   5.468  0.5792  0.3981 -0.5789
12111TIP3    H257749   3.861   3.620   5.609  1.4632  0.0748 -0.8711
12112TIP3   OH257750   1.318   6.336   5.006 -0.2756  0.7112  0.4238
12112TIP3    H157751   1.412   6.325   4.992 -0.0109  2.3720  0.8205
12112TIP3    H257752   1.311   6.400   5.076 -1.7015 -0.2714  1.2127
12113TIP3   OH257753   3.187   6.348  12.592 -0.2319  0.3072 -0.0484
12113TIP3    H157754   3.222   6.430  12.559 -0.2261 -0.0595 -0.9991
12113TIP3    H257755   3.264   6.292  12.604 -0.4348 -0.4863 -2.1035
12114TIP3   OH257756   3.496   4.490   0.059  0.2246 -0.3793 -0.0433
12114TIP3    H157757   3.492   4.395   0.046 -0.0491 -0.2600 -0.8496
12114TIP3    H257758   3.427   4.525   0.002 -0.7136  0.1853  1.4097
12115TIP3   OH257759   5.226   1.984  14.715 -0.1326 -0.3284  0.7175
12115TIP3    H157760   5.241   2.074  14.688 -0.3911 -0.4319  0.2187
12115TIP3    H257761   5.233   1.933  14.634 -0.9137 -0.6405  0.8409
12116TIP3   OH257762   4.015   2.403  16.738  0.2632 -0.6466 -0.2781
12116TIP3    H157763   3.953   2.354  16.684 -1.7487 -0.2282  1.5814
12116TIP3    H257764   4.023   2.351  16.819  1.4091 -0.0627 -0.0027
12117TIP3   OH257765   6.106   5.897  10.845  0.0130 -0.1777  0.2617
12117TIP3    H157766   6.145   5.911  10.931 -1.4041  0.7648  0.7681
12117TIP3    H257767   6.033   5.837  10.860 -0.5963  0.4419 -0.1811
12118TIP3   OH257768   3.334   3.420  13.059  0.4568  0.1471 -0.2864
12118TIP3    H157769   3.244   3.450  13.071 -0.4272 -2.5913  0.3767
12118TIP3    H257770   3.364   3.399  13.148  1.7093  0.8908 -0.5236
12119TIP3   OH257771   4.110   0.619  11.546  0.4230 -0.1666  0.2958
12119TIP3    H157772   4.029   0.629  11.495  1.3635  1.6460 -0.8746
12119TIP3    H257773   4.080   0.614  11.637 -1.0751 -0.5485 -0.1894
12120TIP3   OH257774   3.093   0.451   2.012 -0.5257  0.0684  0.2656
12120TIP3    H157775   3.128   0.489   2.092  0.2364  0.3548 -0.1979
12120TIP3    H257776   3.088   0.524   1.950  0.3176 -0.4369 -0.4165
12121TIP3   OH257777   0.901   0.979  16.114  0.2449 -0.0564 -0.0503
12121TIP3    H157778   0.823   0.954  16.163 -0.9381  0.7179 -1.5428
12121TIP3    H257779   0.870   1.005  16.028  2.0745  0.8561 -0.4780
12122TIP3   OH257780   0.869   1.821  14.958 -0.4685 -0.2606 -0.3028
12122TIP3    H157781   0.851   1.827  15.052  0.3407  0.5663 -0.1932
12122TIP3    H257782   0.890   1.729  14.943  0.8797 -0.1109  0.6045
12123TIP3   OH257783   1.678   4.092   0.364 -0.2317  0.4589 -0.8029
12123TIP3    H157784   1.761   4.044   0.364  0.3971  1.5079  1.4082
12123TIP3    H257785   1.611   4.023   0.362  0.6643 -0.4946  0.9896
12124TIP3   OH257786   2.669   0.348  12.111  0.1328 -0.1183 -0.9271
12124TIP3    H157787   2.690   0.275  12.169  0.5763  0.5518 -0.2378
12124TIP3    H257788   2.577   0.366  12.128  0.5054  0.6882  0.2598
12125TIP3   OH257789   5.018   1.592  12.145 -0.4599 -0.0624  0.4067
12125TIP3    H157790   5.063   1.675  12.162 -0.2710  0.4064 -2.1854
12125TIP3    H257791   5.036   1.539  12.222  3.5993  0.5208 -0.0342
12126TIP3   OH257792   1.311   3.349  10.919  0.0669  0.3887  0.0624
12126TIP3    H157793   1.302   3.392  10.834  0.1883 -0.5102 -0.4158
12126TIP3    H257794   1.276   3.261  10.905  0.8676 -0.0440  0.7093
12127TIP3   OH257795   0.150   6.253   1.669  0.4406 -0.7174 -0.0513
12127TIP3    H157796   0.119   6.236   1.580  1.0234 -1.2577 -0.1577
12127TIP3    H257797   0.102   6.191   1.724  1.2985 -1.5226 -0.2100
12128TIP3   OH257798   3.406   1.026   1.901 -0.6424  0.1799  1.2532
12128TIP3    H157799   3.465   1.084   1.949 -0.1488  0.6515  0.0922
12128TIP3    H257800   3.324   1.030   1.951 -1.6402  4.3854 -0.4777
12129TIP3   OH257801   3.112   3.951   5.531 -0.3769 -0.2273  0.1683
12129TIP3    H157802   3.131   4.028   5.585 -1.7165  1.0404 -1.0989
12129TIP3    H257803   3.044   3.904   5.579 -1.3381  0.7259 -0.2305
12130TIP3   OH257804   1.920   3.215   6.633  0.0296 -0.1568  0.8898
12130TIP3    H157805   1.888   3.285   6.576 -0.8515 -0.5236  0.9245
12130TIP3    H257806   1.846   3.154   6.640  0.5833 -0.7838  1.3504
12131TIP3   OH257807   0.734   4.871  13.944 -0.1470 -0.5273  0.4387
12131TIP3    H157808   0.685   4.791  13.923  0.3791 -0.1376 -2.4731
12131TIP3    H257809   0.693   4.939  13.891  1.0072  0.6308  1.0000
12132TIP3   OH257810   0.986   2.384  11.853 -0.5129 -0.2145  0.3328
12132TIP3    H157811   1.036   2.465  11.861  1.1260 -0.7150 -3.8250
12132TIP3    H257812   0.899   2.412  11.824 -0.5494  0.1864  0.8347
12133TIP3   OH257813   2.971   6.463   4.708 -0.0188  0.0511 -0.2627
12133TIP3    H157814   3.027   6.517   4.764  0.2700  0.0218 -0.5220
12133TIP3    H257815   2.935   6.525   4.644 -0.6024  0.1421  0.1515
12134TIP3   OH257816   6.431   5.611  12.524 -0.0528  0.3206 -0.1695
12134TIP3    H157817   6.347   5.612  12.477 -0.5833  0.2622  0.7567
12134TIP3    H257818   6.495   5.585  12.458 -1.0782 -1.7315 -0.3924
12135TIP3   OH257819   4.349   2.314  16.080 -0.1370  0.4550 -0.2242
12135TIP3    H157820   4.430   2.263  16.082 -1.3072 -1.5141 -1.5646
12135TIP3    H257821   4.374   2.398  16.042  1.1787 -0.3099 -1.0763
12136TIP3   OH257822   5.504   4.473  13.753 -0.0047  0.2301  0.3263
12136TIP3    H157823   5.487   4.408  13.685  0.9085 -0.6089  0.8916
12136TIP3    H257824   5.491   4.557  13.710  0.1448 -0.3014 -0.7677
12137TIP3   OH257825   2.634   6.619  11.389  0.3290  0.0041 -0.5312
12137TIP3    H157826   2.627   6.557  11.462 -0.5070 -0.6234 -1.1342
12137TIP3    H257827   2.578   6.692  11.414  1.4814  0.6208  0.2779
12138TIP3   OH257828   2.567   0.276   3.204 -0.6299 -0.5357  0.4555
12138TIP3    H157829   2.607   0.193   3.228  1.3974 -0.0600 -1.1936
12138TIP3    H257830   2.503   0.254   3.136  2.6540 -0.3563 -2.8420
12139TIP3   OH257831   2.342   0.096   2.373  0.3456 -0.2783  0.4543
12139TIP3    H157832   2.431   0.093   2.338  0.3397  1.0130  0.3233
12139TIP3    H257833   2.345   0.161   2.442 -1.3145  2.4409 -1.9132
12140TIP3   OH257834   6.641   0.398   3.274 -0.1019 -0.3892 -0.3163
12140TIP3    H157835   6.585   0.431   3.344 -2.7846 -1.9038 -1.6965
12140TIP3    H257836   6.689   0.326   3.314 -0.5004 -0.2884  0.3547
12141TIP3   OH257837   5.820   3.723   0.156  0.5400 -0.1438  0.3125
12141TIP3    H157838   5.804   3.777   0.079 -1.1663  0.0401  0.7914
12141TIP3    H257839   5.739   3.727   0.206 -0.2273 -4.4609 -0.4287
12142TIP3   OH257840   5.889   0.828   2.857  0.6277 -0.0980  0.3990
12142TIP3    H157841   5.854   0.849   2.944 -0.9311 -0.5156 -0.1116
12142TIP3    H257842   5.882   0.910   2.809 -2.7260 -0.9090 -0.6856
12143TIP3   OH257843   5.764   0.896   0.683 -0.2619 -0.2922  0.6869
12143TIP3    H157844   5.738   0.987   0.698  0.9330  0.0032  1.0013
12143TIP3    H257845   5.786   0.862   0.770  3.1100  0.3232  0.1580
12144TIP3   OH257846   5.721   2.201   2.847 -0.0798 -0.1733 -0.1834
12144TIP3    H157847   5.746   2.258   2.920 -1.0455 -2.3259  1.8945
12144TIP3    H257848   5.802   2.187   2.798  0.7564  0.5834  0.9757
12145TIP3   OH257849   4.514   1.630  14.616  0.7151  0.4144  0.7479
12145TIP3    H157850   4.465   1.698  14.663 -0.3682  0.1970 -0.0173
12145TIP3    H257851   4.523   1.665  14.527  1.6362  0.2820  0.7835
12146TIP3   OH257852   0.369   0.289   4.925  0.4904  0.2902 -0.3271
12146TIP3    H157853   0.334   0.217   4.977 -1.0761  1.2855  0.0241
12146TIP3    H257854   0.350   0.266   4.834  0.7501 -0.1275 -0.2770
12147TIP3   OH257855   3.909   4.102  16.919  0.1954  0.0514 -0.0528
12147TIP3    H157856   3.883   4.191  16.942 -1.5099 -0.6047  0.6231
12147TIP3    H257857   3.874   4.089  16.831 -0.0568 -0.1405  0.0728
12148TIP3   OH257858   3.898   2.971   5.371 -0.1838  0.5599  0.0251
12148TIP3    H157859   3.992   2.991   5.371  0.0366 -0.4331 -0.4598
12148TIP3    H257860   3.862   3.024   5.442  0.6762  1.2573 -0.0512
12149TIP3   OH257861   3.617   3.476  12.054  0.5444  0.1409 -0.3941
12149TIP3    H157862   3.585   3.391  12.083  2.1992 -0.0172  1.0959
12149TIP3    H257863   3.614   3.530  12.133 -0.9512  1.6196 -1.4434
12150TIP3   OH257864   1.385   3.368  10.309 -0.0310  0.1285  0.0570
12150TIP3    H157865   1.406   3.307  10.380 -1.3034  0.5554  0.8176
12150TIP3    H257866   1.299   3.404  10.333 -1.2510 -0.9539 -2.5246
12151TIP3   OH257867   4.585   0.791   2.462 -0.2477 -0.2462  0.0686
12151TIP3    H157868   4.581   0.872   2.411  0.9902 -0.2251 -0.0058
12151TIP3    H257869   4.552   0.724   2.402 -0.2839  0.0332 -0.2291
12152TIP3   OH257870   4.583   1.275   4.440 -0.3004  0.8834  0.4432
12152TIP3    H157871   4.637   1.332   4.385 -1.3487  1.4978  0.0259
12152TIP3    H257872   4.542   1.214   4.378  0.8321 -0.3549  0.8893
12153TIP3   OH257873   1.557   6.388   2.529 -0.4236  0.5291 -0.4477
12153TIP3    H157874   1.495   6.434   2.586  0.3855  1.1421 -0.0391
12153TIP3    H257875   1.612   6.458   2.493 -0.6511  0.0919 -1.6350
12154TIP3   OH257876   0.399   4.656   5.459  0.2108 -0.3479  0.5410
12154TIP3    H157877   0.310   4.644   5.493  0.0231 -0.3393  0.0610
12154TIP3    H257878   0.426   4.568   5.433 -0.6160  0.0242 -1.6436
12155TIP3   OH257879   3.931   3.775   6.014  0.0136  0.1487  0.3078
12155TIP3    H157880   3.886   3.787   5.931  0.0394  0.3346  0.3203
12155TIP3    H257881   3.932   3.681   6.027 -0.8997  0.1762  0.6023
12156TIP3   OH257882   5.888   3.903   1.047  0.0270  0.6096 -0.0714
12156TIP3    H157883   5.889   3.864   0.960 -0.9755  2.9176 -1.1394
12156TIP3    H257884   5.853   3.834   1.103 -0.1201 -0.6101 -1.6312
12157TIP3   OH257885   2.375   3.611  11.362 -0.2435  0.4725  0.0845
12157TIP3    H157886   2.329   3.651  11.288  1.2447  1.0934 -0.5170
12157TIP3    H257887   2.398   3.523  11.330 -0.0364  0.5635 -0.0180
12158TIP3   OH257888   0.891   3.169   4.476 -0.3998 -0.2238 -0.3487
12158TIP3    H157889   0.950   3.238   4.445  1.9125 -1.0566  2.0688
12158TIP3    H257890   0.943   3.089   4.472 -1.3652 -0.9760  1.8185
12159TIP3   OH257891   0.484   1.670  12.274 -0.9047  0.4686 -0.0648
12159TIP3    H157892   0.560   1.642  12.223  0.3842  2.4726  0.7211
12159TIP3    H257893   0.413   1.613  12.243  1.0408 -1.9142 -0.3086
12160TIP3   OH257894   3.099   4.890  12.862 -0.6731 -0.5443 -0.5387
12160TIP3    H157895   3.080   4.851  12.947  1.0546  0.6148  0.3834
12160TIP3    H257896   3.172   4.839  12.828 -1.0849 -0.7295 -1.1614
12161TIP3   OH257897   5.513   0.149  11.593 -0.1113  0.2787 -0.1867
12161TIP3    H157898   5.431   0.106  11.618  0.5978 -1.9598 -1.6033
12161TIP3    H257899   5.575   0.127  11.662  0.7104 -2.4472 -1.7360
12162TIP3   OH257900   3.028   6.677  10.663  0.1716  0.3468 -0.0250
12162TIP3    H157901   3.068   6.646  10.582 -0.4189  0.3292 -0.3121
12162TIP3    H257902   3.005   6.597  10.711  2.2833  0.3426  1.0548
12163TIP3   OH257903   2.818   3.689   2.948 -0.6691 -0.1280 -0.5223
12163TIP3    H157904   2.837   3.657   3.036  1.4561  0.7547 -0.6227
12163TIP3    H257905   2.792   3.780   2.960  0.3792  0.2261 -0.8525
12164TIP3   OH257906   4.357   6.545  13.560 -0.2661  0.3453 -0.0745
12164TIP3    H157907   4.383   6.632  13.529  0.4687  1.2492  2.9177
12164TIP3    H257908   4.435   6.491  13.546 -0.2148  0.5328 -0.5417
12165TIP3   OH257909   4.547   6.530  11.048  0.2461 -0.6836  0.2587
12165TIP3    H157910   4.485   6.603  11.047 -0.9914 -1.6822  1.4854
12165TIP3    H257911   4.583   6.531  11.136  0.3512 -1.4503  0.2248
12166TIP3   OH257912   0.285   4.917   4.388 -0.1950  0.0375  0.0867
12166TIP3    H157913   0.355   4.875   4.339 -0.0667 -0.4989  0.7167
12166TIP3    H257914   0.218   4.848   4.398 -0.9872  0.6551 -0.8488
12167TIP3   OH257915   2.343   3.634   2.301 -0.3281  0.1168  0.3877
12167TIP3    H157916   2.320   3.722   2.330  1.8317  0.5586  0.8387
12167TIP3    H257917   2.316   3.631   2.209 -0.8606  1.0653  0.5061
12168TIP3   OH257918   6.568   0.732   1.818  0.1156 -0.2669 -0.4222
12168TIP3    H157919   6.549   0.645   1.782  0.4221 -0.5572  0.1149
12168TIP3    H257920   6.659   0.726   1.848  0.0040  0.1132 -0.0126
12169TIP3   OH257921   2.792   4.450   4.766 -0.2630 -0.0858  0.2449
12169TIP3    H157922   2.856   4.421   4.701  0.4950  0.2212  0.8620
12169TIP3    H257923   2.842   4.499   4.831 -1.0846 -0.0198  0.8454
12170TIP3   OH257924   2.986   2.299   0.142  0.4138 -0.0825  0.5432
12170TIP3    H157925   3.056   2.343   0.189  2.0262 -0.6650 -1.2730
12170TIP3    H257926   2.990   2.208   0.173 -0.0623  0.0572  1.0239
12171TIP3   OH257927   2.550   4.060   6.914 -0.0846  0.3253 -0.3620
12171TIP3    H157928   2.536   4.000   6.840 -0.8353  1.2898 -1.0093
12171TIP3    H257929   2.509   4.015   6.989 -1.4835  0.4537 -1.0395
12172TIP3   OH257930   0.233   0.303  16.709 -0.3611  0.2516  0.3909
12172TIP3    H157931   0.168   0.303  16.639  0.5409  3.1308 -0.5214
12172TIP3    H257932   0.208   0.230  16.765 -1.7789 -1.4100 -2.2982
12173TIP3   OH257933   2.972   4.223   0.781 -0.6703 -0.8919  0.2907
12173TIP3    H157934   3.038   4.162   0.749 -0.6109 -0.8829  0.3985
12173TIP3    H257935   3.019   4.282   0.839 -0.8050 -0.9851  0.4943
12174TIP3   OH257936   0.989   4.175   4.280 -0.0166 -0.6516 -0.2117
12174TIP3    H157937   1.069   4.217   4.249 -0.7717 -0.4073 -1.8810
12174TIP3    H257938   1.013   4.083   4.289  1.0028 -0.2616  1.2588
12175TIP3   OH257939   5.156   6.333  17.174 -0.0286  0.1899  0.2191
12175TIP3    H157940   5.224   6.396  17.152  0.9424 -0.2327  1.9110
12175TIP3    H257941   5.136   6.350  17.266 -0.2632 -1.4987  0.5018
12176TIP3   OH257942   4.683   2.915  13.636 -0.3067 -0.2231 -0.1616
12176TIP3    H157943   4.762   2.946  13.593  1.5876 -1.8579  2.0567
12176TIP3    H257944   4.669   2.976  13.708 -0.6393 -0.3981 -0.0776
12177TIP3   OH257945   1.740   2.018  12.947 -0.1287  0.0139  0.2962
12177TIP3    H157946   1.705   2.002  13.035 -0.0929  2.6021  0.8443
12177TIP3    H257947   1.834   2.027  12.960  0.0017 -0.6800 -0.1773
12178TIP3   OH257948   5.252   4.969  13.695 -0.6564  0.2621 -0.1939
12178TIP3    H157949   5.291   5.026  13.762 -2.8725 -1.6960  2.8819
12178TIP3    H257950   5.180   5.021  13.660 -1.2727  0.2230  0.9939
12179TIP3   OH257951   3.188   3.203  13.363  0.5598  0.3965  0.2321
12179TIP3    H157952   3.151   3.282  13.325  0.0649  0.0044 -0.1183
12179TIP3    H257953   3.148   3.131  13.313  0.4616 -0.0995  1.0042
12180TIP3   OH257954   4.156   3.890   0.367  0.3623  0.7949  0.1272
12180TIP3    H157955   4.212   3.869   0.441  0.2390 -0.2757 -0.0695
12180TIP3    H257956   4.210   3.870   0.290 -0.5619 -1.1000 -0.0680
12181TIP3   OH257957   4.014   2.652   4.041  1.4097 -0.1022  0.2531
12181TIP3    H157958   4.016   2.584   3.973  0.5316 -0.6814  0.8082
12181TIP3    H257959   3.974   2.610   4.117 -1.3915  1.6849 -0.1412
12182TIP3   OH257960   2.195   4.567  16.893  0.7190 -0.0300  0.4065
12182TIP3    H157961   2.175   4.559  16.986  0.3040  0.3081  0.3471
12182TIP3    H257962   2.217   4.659  16.881 -0.2729  0.1510 -0.0376
12183TIP3   OH257963   6.539   1.527   5.932 -0.1324 -0.1655 -0.1716
12183TIP3    H157964   6.530   1.476   5.851 -2.2077  0.1759 -0.1696
12183TIP3    H257965   6.521   1.617   5.905 -1.1185 -0.0891  0.7269
12184TIP3   OH257966   4.542   1.886   5.536  0.2799  0.1328  0.9000
12184TIP3    H157967   4.471   1.888   5.600  1.4448  1.3436  2.2179
12184TIP3    H257968   4.594   1.809   5.560  0.1820  0.0428  0.8197
12185TIP3   OH257969   2.058   1.861  13.012 -0.1434 -0.2191 -0.8336
12185TIP3    H157970   2.138   1.812  13.034  0.4539  0.8970 -0.4944
12185TIP3    H257971   1.997   1.794  12.981  1.2117 -0.9859 -1.9073
12186TIP3   OH257972   6.489   1.689   2.375  0.2110 -0.3984 -0.2548
12186TIP3    H157973   6.537   1.684   2.292  1.6326 -1.9862  0.6234
12186TIP3    H257974   6.530   1.622   2.429 -0.2413  1.0878  1.9735
12187TIP3   OH257975   0.249   6.042   4.120  0.4508 -0.0451  0.6782
12187TIP3    H157976   0.291   6.062   4.203 -0.0177 -0.8410  1.1202
12187TIP3    H257977   0.158   6.026   4.143  0.6905 -2.1039  0.2974
12188TIP3   OH257978   2.001   3.581  14.688 -0.6055  0.4932  0.5234
12188TIP3    H157979   1.958   3.514  14.634  1.1720 -0.2957  0.0399
12188TIP3    H257980   1.931   3.615  14.744 -1.7675 -1.0272  0.0394
12189TIP3   OH257981   0.090   0.199   4.838 -0.6734 -0.6266 -0.4292
12189TIP3    H157982   0.121   0.238   4.757  0.3122  0.1056  0.2865
12189TIP3    H257983   0.068   0.274   4.894 -1.4546 -1.1228 -0.0647
12190TIP3   OH257984   6.096   2.822  14.018 -0.2293  0.0709  0.1238
12190TIP3    H157985   6.024   2.834  13.956  0.2550 -0.3015 -0.5036
12190TIP3    H257986   6.100   2.904  14.066  0.9264  1.2468 -1.9314
12191TIP3   OH257987   5.126   0.842  15.182  0.7159  0.0073 -0.6553
12191TIP3    H157988   5.083   0.773  15.132 -1.7204  1.2012 -0.2559
12191TIP3    H257989   5.107   0.922  15.134 -0.6227  1.0059  1.4660
12192TIP3   OH257990   6.474   4.248   1.848  0.2771 -0.0509 -0.3791
12192TIP3    H157991   6.466   4.236   1.943 -1.0019  0.5597 -0.3967
12192TIP3    H257992   6.516   4.168   1.817 -0.1308 -0.6515  0.5914
12193TIP3   OH257993   5.530   4.921  16.629  0.2277  0.8816  0.2436
12193TIP3    H157994   5.545   4.827  16.632 -1.4430  0.4942 -1.7945
12193TIP3    H257995   5.531   4.943  16.536 -0.7656  2.6375  0.6076
12194TIP3   OH257996   4.574   4.998  11.841 -0.3601 -0.6914  0.0435
12194TIP3    H157997   4.598   4.944  11.765  2.0547 -0.2844  0.4564
12194TIP3    H257998   4.566   4.935  11.913  2.4342 -0.5813  0.5183
12195TIP3   OH257999   2.088   1.344   4.674  0.3712  0.3436 -0.4144
12195TIP3    H158000   2.150   1.384   4.735 -1.3422  2.0514  0.2221
12195TIP3    H258001   2.088   1.402   4.598  0.5532 -0.3854 -0.9790
12196TIP3   OH258002   6.495   6.466  14.298 -0.4038  0.2964  0.5354
12196TIP3    H158003   6.432   6.459  14.226 -0.4864 -0.3426  0.6659
12196TIP3    H258004   6.456   6.415  14.368 -0.1394  0.6041  0.9057
12197TIP3   OH258005   2.062   3.481   3.301  0.3007  0.0784  0.5464
12197TIP3    H158006   2.004   3.478   3.224 -0.6168 -1.3344  1.2637
12197TIP3    H258007   2.136   3.535   3.273 -0.2295 -0.0527 -1.1974
12198TIP3   OH258008   6.297   3.343   2.155 -0.1185  0.0355 -0.5782
12198TIP3    H158009   6.254   3.339   2.241  0.3349  2.2443 -0.2092
12198TIP3    H258010   6.225   3.352   2.093 -0.3674  0.0943 -0.2830
12199TIP3   OH258011   1.720   4.165  11.112 -0.4423 -0.0100  0.2265
12199TIP3    H158012   1.757   4.159  11.024 -0.6424  1.1661  0.0531
12199TIP3    H258013   1.636   4.209  11.100  1.0535  3.3213  1.4005
12200TIP3   OH258014   4.316   4.738   4.011 -0.5944 -0.2433  0.7997
12200TIP3    H158015   4.308   4.832   4.030 -2.2913 -0.1192 -0.4166
12200TIP3    H258016   4.273   4.727   3.927  1.1438 -1.8455  0.0837
12201TIP3   OH258017   5.086   1.037  14.992  0.2427 -0.2675  0.1136
12201TIP3    H158018   5.002   1.082  14.990  0.3853  0.0140  0.5550
12201TIP3    H258019   5.091   0.993  14.907 -0.0906  0.1813 -0.1393
12202TIP3   OH258020   1.190   0.160   6.913  0.6770  0.1609 -0.4816
12202TIP3    H158021   1.117   0.221   6.905  0.7730  0.3170 -0.1974
12202TIP3    H258022   1.150   0.074   6.916  0.4177  0.3190  0.9829
12203TIP3   OH258023   4.443   5.734   4.586 -0.2284 -0.4232 -0.1572
12203TIP3    H158024   4.514   5.760   4.646  0.7920 -0.0722 -1.4920
12203TIP3    H258025   4.363   5.750   4.636  0.6395 -2.0308  1.8596
12204TIP3   OH258026   5.321   5.114  12.042  0.4874 -0.1608  0.1402
12204TIP3    H158027   5.378   5.186  12.016  1.0105 -0.5301  0.2692
12204TIP3    H258028   5.327   5.112  12.138  1.0688 -0.8601  0.0930
12205TIP3   OH258029   3.396   5.182   2.950 -0.1482  0.1274  0.4248
12205TIP3    H158030   3.379   5.117   3.018  1.2934 -0.1345  0.5561
12205TIP3    H258031   3.426   5.260   2.996  0.7565 -0.0233  0.0985
12206TIP3   OH258032   6.134   0.532  12.170  0.0266  0.2923  0.9460
12206TIP3    H158033   6.223   0.523  12.134  0.1824  0.5049  1.2754
12206TIP3    H258034   6.147   0.538  12.265 -0.2796  1.1304  0.9378
12207TIP3   OH258035   2.177   1.889  11.674  0.2558 -0.0384 -0.7020
12207TIP3    H158036   2.095   1.936  11.686  0.7114  0.7566 -0.6602
12207TIP3    H258037   2.151   1.801  11.647 -0.6151  0.0728 -0.2243
12208TIP3   OH258038   2.389   2.642  14.207 -0.0512  0.1672  0.0134
12208TIP3    H158039   2.334   2.657  14.284 -1.0908 -3.0867 -0.0272
12208TIP3    H258040   2.342   2.686  14.136 -0.7075  0.5390  0.6591
12209TIP3   OH258041   1.916   2.319  13.462 -0.4255 -0.0762  0.1788
12209TIP3    H158042   2.006   2.312  13.429 -1.4954  0.1688 -2.8728
12209TIP3    H258043   1.925   2.306  13.557  2.5869 -2.0005 -0.3017
12210TIP3   OH258044   4.227   4.654  15.097  0.4767  0.0931 -0.4225
12210TIP3    H158045   4.177   4.690  15.170  0.1830 -0.0224 -0.5672
12210TIP3    H258046   4.249   4.565  15.125 -0.1870 -0.1753 -0.7399
12211TIP3   OH258047   2.134   3.833   5.314 -0.5108 -0.2961 -0.2340
12211TIP3    H158048   2.064   3.897   5.301 -0.8094 -0.1263  2.0308
12211TIP3    H258049   2.211   3.886   5.337 -0.9009 -0.7185  2.2288
12212TIP3   OH258050   5.060   2.803  11.004 -0.4747  0.7997 -0.6526
12212TIP3    H158051   5.131   2.740  10.998 -0.7536  0.4109  0.1335
12212TIP3    H258052   5.050   2.837  10.915 -1.7252 -1.8018 -1.5511
12213TIP3   OH258053   6.522   0.765   4.384  0.7548 -0.3690  0.1756
12213TIP3    H158054   6.586   0.694   4.380  2.3776  1.0636  0.0720
12213TIP3    H258055   6.442   0.723   4.416  2.0049 -2.0137  1.2431
12214TIP3   OH258056   3.810   4.709   4.382  0.0027 -0.4780 -0.2106
12214TIP3    H158057   3.854   4.734   4.463 -1.7629  2.4384 -0.0877
12214TIP3    H258058   3.859   4.633   4.350  1.6429 -0.7394  2.7811
12215TIP3   OH258059   6.021   4.379   3.903 -0.0265 -0.4839  0.6648
12215TIP3    H158060   5.994   4.319   3.973  1.5554  1.3068  2.8717
12215TIP3    H258061   5.998   4.466   3.936 -1.1626  0.2536 -1.9678
12216TIP3   OH258062   2.599   0.622  16.353 -0.1188  0.7281  0.2286
12216TIP3    H158063   2.661   0.603  16.424  1.6027 -1.6538 -1.8190
12216TIP3    H258064   2.521   0.572  16.375  0.4990 -0.1957  0.3447
12217TIP3   OH258065   0.347   3.616   1.263  0.3837 -0.3018 -0.2675
12217TIP3    H158066   0.252   3.629   1.258  0.2409  0.0817  2.6118
12217TIP3    H258067   0.383   3.703   1.280  1.4581 -0.1690 -2.8527
12218TIP3   OH258068   6.427   5.519   3.169  0.4016  0.4824 -0.3163
12218TIP3    H158069   6.414   5.547   3.078 -0.7541  1.8902  0.2546
12218TIP3    H258070   6.342   5.483   3.195  1.2292 -1.5082 -0.3183
12219TIP3   OH258071   3.765   2.497  15.186  0.2611 -0.3846 -0.4805
12219TIP3    H158072   3.689   2.509  15.244  1.7280  1.0530  1.1897
12219TIP3    H258073   3.732   2.518  15.099 -1.4483 -0.5375  0.1053
12220TIP3   OH258074   4.299   3.423   2.198 -0.1233 -0.3950 -0.0873
12220TIP3    H158075   4.392   3.420   2.221 -0.1721  0.8335  0.3103
12220TIP3    H258076   4.267   3.503   2.239 -1.1180 -0.2587 -1.0984
12221TIP3   OH258077   6.573   3.708   2.116  0.6932 -0.0280  0.3196
12221TIP3    H158078   6.667   3.726   2.118  0.3692  1.5967  2.5153
12221TIP3    H258079   6.567   3.613   2.110  2.4806 -0.2757  2.2449
12222TIP3   OH258080   2.677   3.369   3.172  0.2200  0.1958 -0.0396
12222TIP3    H158081   2.750   3.340   3.226 -0.7151 -0.0825  1.0931
12222TIP3    H258082   2.612   3.402   3.234 -0.9631 -0.3366 -0.9621
12223TIP3   OH258083   4.047   0.327  14.934 -0.4237 -0.4212 -0.5261
12223TIP3    H158084   4.123   0.377  14.962 -0.8892 -0.3895  0.7189
12223TIP3    H258085   4.026   0.360  14.846 -0.0185  0.7343 -0.1836
12224TIP3   OH258086   6.694   1.161   2.497  0.0615  0.8578 -0.3712
12224TIP3    H158087   6.693   1.095   2.428  1.5433 -0.2955  0.7073
12224TIP3    H258088   6.778   1.149   2.541 -0.3766  2.3579  0.9006
12225TIP3   OH258089   4.603   3.489  16.838 -0.2035  0.4856 -0.0459
12225TIP3    H158090   4.649   3.406  16.823 -3.3923 -1.2679 -0.4512
12225TIP3    H258091   4.626   3.543  16.762 -0.1603 -0.9723 -1.0937
12226TIP3   OH258092   3.666   2.768  14.541 -0.5710 -0.0943  0.3632
12226TIP3    H158093   3.711   2.707  14.483 -0.8326  0.5425 -0.5312
12226TIP3    H258094   3.696   2.746  14.628  0.2871 -0.6856 -0.0824
12227TIP3   OH258095   4.174   4.190   4.953  0.3202  0.7437  0.3322
12227TIP3    H158096   4.161   4.097   4.974 -1.0050  1.0167  0.7510
12227TIP3    H258097   4.157   4.235   5.036 -0.3122  1.4654 -0.1912
12228TIP3   OH258098   1.351   1.571  14.229 -0.7875 -0.1597 -0.5717
12228TIP3    H158099   1.416   1.510  14.262 -0.9604 -1.1586 -2.0181
12228TIP3    H258100   1.275   1.559  14.286 -0.2461 -0.0868  0.1682
12229TIP3   OH258101   2.121   2.584   5.249  0.2989 -0.5436 -0.5587
12229TIP3    H158102   2.133   2.492   5.274 -1.5135 -0.7967 -0.5826
12229TIP3    H258103   2.145   2.587   5.156  1.2203 -0.8088 -0.3323
12230TIP3   OH258104   2.151   3.941  12.893 -0.0962 -0.4580 -0.9695
12230TIP3    H158105   2.234   3.897  12.912 -0.0459 -0.4837 -1.2489
12230TIP3    H258106   2.113   3.957  12.979  0.7136  0.5426 -0.7886
12231TIP3   OH258107   1.139   4.153   0.875 -0.2083 -0.4524  0.3866
12231TIP3    H158108   1.080   4.229   0.871 -0.9337 -1.0837 -1.8466
12231TIP3    H258109   1.083   4.078   0.852  0.7804 -1.4947  1.3456
12232TIP3   OH258110   1.301   0.056  13.897 -0.0342  0.0857 -0.3118
12232TIP3    H158111   1.272   0.008  13.819 -1.4422  1.1706 -0.4676
12232TIP3    H258112   1.378   0.105  13.867 -0.5881  0.5239 -1.0317
12233TIP3   OH258113   3.079   4.114   4.725  0.0822  0.2322 -0.0151
12233TIP3    H158114   3.091   4.201   4.687 -0.2637 -0.7009 -2.3136
12233TIP3    H258115   2.989   4.089   4.701  0.1068 -0.6846  0.7967
12234TIP3   OH258116   4.622   1.386   3.755  0.0596  0.1414  0.6341
12234TIP3    H158117   4.596   1.469   3.715  0.3032  0.3892  0.9816
12234TIP3    H258118   4.714   1.399   3.778  0.3922 -0.5897 -0.2533
12235TIP3   OH258119   6.280   3.698  11.325  0.4078  0.0351 -0.0117
12235TIP3    H158120   6.230   3.738  11.396  0.2599 -1.2996  0.6472
12235TIP3    H258121   6.368   3.686  11.361  0.2773 -0.8336  0.0333
12236TIP3   OH258122   4.244   6.738   3.236  0.4805 -0.0037  0.0855
12236TIP3    H158123   4.225   6.767   3.147  0.5149 -0.3042 -0.0211
12236TIP3    H258124   4.181   6.668   3.253 -0.4948  1.0497  0.8396
12237TIP3   OH258125   1.343   3.172  13.126  0.0196  0.1953  0.1336
12237TIP3    H158126   1.347   3.176  13.221  1.3908 -0.2996  0.1126
12237TIP3    H258127   1.353   3.078  13.106 -3.6506 -0.1608 -0.3782
12238TIP3   OH258128   0.457   4.797  14.083 -0.4817 -0.6273 -0.1621
12238TIP3    H158129   0.521   4.805  14.153  1.1292 -0.4896 -1.6243
12238TIP3    H258130   0.406   4.878  14.087  2.2598  1.2585 -1.7054
12239TIP3   OH258131   5.547   4.208   2.141 -0.0328  0.3090  0.6843
12239TIP3    H158132   5.502   4.126   2.118 -1.1796  1.5538 -1.7321
12239TIP3    H258133   5.504   4.274   2.087  1.2294  2.4384  2.2213
12240TIP3   OH258134   4.585   0.140  11.145 -0.1287  0.1130  0.1331
12240TIP3    H158135   4.655   0.085  11.110 -1.1210 -0.1113 -1.5708
12240TIP3    H258136   4.555   0.192  11.070 -0.7203  1.3482  1.2098
12241TIP3   OH258137   0.616   5.001   4.030  0.6110 -0.1765 -0.1905
12241TIP3    H158138   0.537   5.049   4.004 -0.0921 -1.0944  0.2300
12241TIP3    H258139   0.645   4.957   3.950 -1.0351 -2.2694  0.3367
12242TIP3   OH258140   2.712   0.677  17.131  0.5702 -0.4612 -0.5109
12242TIP3    H158141   2.806   0.660  17.138  0.4406 -1.7385 -1.7619
12242TIP3    H258142   2.677   0.602  17.084 -1.2928 -0.5987  1.0513
12243TIP3   OH258143   1.665   0.970   4.048  0.5327  0.2836  0.1169
12243TIP3    H158144   1.670   0.988   4.142  1.1444  0.3699  0.0723
12243TIP3    H258145   1.627   1.050   4.011  1.0924  0.5942  0.1952
12244TIP3   OH258146   1.651   2.553   5.911  0.0724  0.0412  0.3242
12244TIP3    H158147   1.628   2.531   5.821  0.7270 -0.9511  0.3817
12244TIP3    H258148   1.659   2.648   5.912  0.2368  0.0442 -0.7061
12245TIP3   OH258149   0.030   3.045   3.197 -0.0453 -0.5917 -0.4260
12245TIP3    H158150   0.036   3.118   3.258  0.6289 -0.3091 -0.8232
12245TIP3    H258151   0.075   3.076   3.118  0.3588 -1.4818 -0.5494
12246TIP3   OH258152   0.969   2.205  16.973  0.4135  1.0118 -0.2513
12246TIP3    H158153   0.883   2.199  17.014  0.8379 -1.5425  0.3237
12246TIP3    H258154   0.950   2.210  16.879 -0.3845  1.7265 -0.0560
12247TIP3   OH258155   0.192   6.754  11.592 -0.8601 -0.2779  0.5135
12247TIP3    H158156   0.172   6.679  11.649  0.9236 -1.8533 -0.8698
12247TIP3    H258157   0.279   6.783  11.620 -1.5161  1.2937  1.0093
12248TIP3   OH258158   2.326   1.250   6.057 -0.0795 -0.2997  0.0599
12248TIP3    H158159   2.387   1.185   6.022  1.0877  0.3974  0.7583
12248TIP3    H258160   2.382   1.311   6.106 -1.4000  0.0500  1.1550
12249TIP3   OH258161   4.309   4.895  15.777 -0.3315 -0.0590 -0.0431
12249TIP3    H158162   4.271   4.886  15.864  0.4041  0.2301  0.3140
12249TIP3    H258163   4.245   4.854  15.718 -1.2573  0.5643  0.5262
12250TIP3   OH258164   6.404   5.693   1.576  0.1027 -0.0661  0.5473
12250TIP3    H158165   6.321   5.740   1.583 -0.9047 -1.7453  0.1643
12250TIP3    H258166   6.400   5.649   1.491  2.0818  1.1120 -0.2009
12251TIP3   OH258167   4.567   2.843   0.606  0.3074  0.8342  0.2303
12251TIP3    H158168   4.601   2.802   0.527  0.1071  0.2669  0.4347
12251TIP3    H258169   4.644   2.885   0.646  1.1874 -1.9723  1.6417
12252TIP3   OH258170   3.758   4.065   0.243  0.6997  0.6431  0.2885
12252TIP3    H158171   3.756   4.160   0.227  0.8085  0.5186 -0.4970
12252TIP3    H258172   3.812   4.031   0.172 -1.3700 -0.2931 -0.8753
12253TIP3   OH258173   5.214   1.465  16.385  0.0086 -0.0844 -0.3314
12253TIP3    H158174   5.304   1.453  16.356  0.3438  2.3363 -0.4641
12253TIP3    H258175   5.218   1.539  16.446 -1.6352 -1.0561  0.9936
12254TIP3   OH258176   4.776   1.453   4.333  0.3782 -0.3771  0.2284
12254TIP3    H158177   4.795   1.409   4.250 -1.7130  0.7084 -0.8348
12254TIP3    H258178   4.832   1.407   4.397  0.4708 -2.5806 -1.3787
12255TIP3   OH258179   1.626   4.942  17.008 -1.0255 -0.2386  0.3229
12255TIP3    H158180   1.642   4.859  16.963 -0.6370  0.3804 -0.6936
12255TIP3    H258181   1.530   4.946  17.017 -0.9951 -1.2220  1.2110
12256TIP3   OH258182   6.137   2.460  12.141  0.1877  0.1478  0.0071
12256TIP3    H158183   6.051   2.422  12.124  0.8534 -1.7768  0.8584
12256TIP3    H258184   6.157   2.511  12.062  0.3214 -3.2059 -2.2138
12257TIP3   OH258185   1.002   4.678  16.342  0.3722  0.3413  0.4500
12257TIP3    H158186   0.975   4.587  16.336  0.9458  0.2772 -1.6415
12257TIP3    H258187   1.037   4.687  16.431  1.0231 -1.6635  0.4132
12258TIP3   OH258188   2.812   5.905   2.072 -0.4673  0.2421 -0.0366
12258TIP3    H158189   2.817   5.934   2.163  1.2816  1.8389 -0.6033
12258TIP3    H258190   2.721   5.878   2.059 -0.8159  0.3883  2.0537
12259TIP3   OH258191   3.460   1.729   1.749  0.1172 -0.4388 -0.8073
12259TIP3    H158192   3.508   1.715   1.667 -1.6844 -1.6206 -1.6711
12259TIP3    H258193   3.369   1.737   1.723 -0.1775  2.2178  0.7893
12260TIP3   OH258194   4.444   0.619   2.276 -0.1631 -0.2232  1.0505
12260TIP3    H158195   4.490   0.536   2.261  0.0433 -0.2189  1.6225
12260TIP3    H258196   4.382   0.626   2.203  0.2885 -0.5500  0.6289
12261TIP3   OH258197   4.615   6.291   3.907  0.1980 -0.3030 -0.1060
12261TIP3    H158198   4.526   6.315   3.884  0.0098 -2.9749 -2.3511
12261TIP3    H258199   4.612   6.278   4.002 -1.5643  0.5046 -0.0318
12262TIP3   OH258200   2.628   1.120  16.888  0.7082  0.0899 -0.6018
12262TIP3    H158201   2.602   1.117  16.980  0.5116  1.1748 -0.6138
12262TIP3    H258202   2.670   1.035  16.871  0.7460 -0.1057  0.4847
12263TIP3   OH258203   5.483   5.866  13.885  0.0752  0.3713  0.0671
12263TIP3    H158204   5.558   5.807  13.894 -1.7293 -2.0899 -0.5963
12263TIP3    H258205   5.492   5.902  13.797  0.1272 -0.3927 -0.2422
12264TIP3   OH258206   2.124   6.206   5.807  0.4916 -0.1136  0.5362
12264TIP3    H158207   2.117   6.233   5.899 -2.3044 -0.0288  0.3357
12264TIP3    H258208   2.078   6.122   5.803  1.1149 -0.4109 -0.6759
12265TIP3   OH258209   0.536   1.378   0.380  0.8264 -0.7373  0.1514
12265TIP3    H158210   0.559   1.326   0.457 -0.2585 -0.0448  0.9513
12265TIP3    H258211   0.618   1.423   0.357  1.5581 -2.1452 -0.0495
12266TIP3   OH258212   0.406   0.825   5.541  0.0592 -0.3417  0.1367
12266TIP3    H158213   0.352   0.897   5.507 -0.1962 -0.1346  0.9768
12266TIP3    H258214   0.495   0.846   5.512 -0.4915 -1.3945 -2.4341
12267TIP3   OH258215   2.511   6.728  13.975  0.7262 -0.1569 -0.0553
12267TIP3    H158216   2.422   6.762  13.962  1.2837  2.0347  1.6830
12267TIP3    H258217   2.561   6.764  13.901  0.0625 -1.9536 -1.4226
12268TIP3   OH258218   2.408   2.774  12.089 -0.9330 -0.4019 -0.0030
12268TIP3    H158219   2.436   2.857  12.126  0.9790 -1.1017  0.1579
12268TIP3    H258220   2.428   2.709  12.157 -2.0027 -1.0671 -0.2961
12269TIP3   OH258221   1.048   4.605  16.889 -0.4667 -0.0448 -0.1518
12269TIP3    H158222   0.955   4.602  16.911 -0.6403  1.7272 -0.5133
12269TIP3    H258223   1.052   4.656  16.808  0.8497  0.2190  0.0568
12270TIP3   OH258224   4.504   5.010  15.253 -0.2958 -0.2557 -0.2087
12270TIP3    H158225   4.537   4.926  15.222  2.5395  0.3023  1.0961
12270TIP3    H258226   4.542   5.074  15.192  0.7274  0.3730  1.0677
12271TIP3   OH258227   1.682   4.738  12.211 -0.1694  0.0259  0.1765
12271TIP3    H158228   1.736   4.697  12.143  0.7707  0.5549  0.5954
12271TIP3    H258229   1.734   4.812  12.242 -1.2873  0.7471  0.3540
12272TIP3   OH258230   4.380   1.997  13.950  0.1280 -0.0995 -0.4954
12272TIP3    H158231   4.389   2.089  13.974 -1.3064  0.1016 -0.6639
12272TIP3    H258232   4.394   1.996  13.855  0.8937 -0.1701 -0.3833
12273TIP3   OH258233   4.678   0.404  12.942 -0.0983  0.5052 -0.0604
12273TIP3    H158234   4.648   0.491  12.970  0.8252  1.8993 -3.1742
12273TIP3    H258235   4.597   0.355  12.927 -0.6464  1.1761  0.5957
12274TIP3   OH258236   2.593   1.158   5.498 -0.1461 -0.0318  0.6156
12274TIP3    H158237   2.660   1.094   5.475  0.5051  0.9826 -0.3304
12274TIP3    H258238   2.550   1.121   5.575 -0.1890 -1.8966 -0.2934
12275TIP3   OH258239   1.669   0.749  12.890 -0.2069 -0.1270 -0.1927
12275TIP3    H158240   1.651   0.726  12.799  0.1127  0.2725 -0.3601
12275TIP3    H258241   1.585   0.781  12.924 -0.5323 -1.0851 -0.0940
12276TIP3   OH258242   4.281   3.652   1.257 -0.3812 -0.6132 -0.0644
12276TIP3    H158243   4.292   3.746   1.243 -0.9307 -0.7329 -1.3281
12276TIP3    H258244   4.371   3.619   1.267 -0.1946  0.0567  0.4993
12277TIP3   OH258245   4.016   6.670  16.009 -0.1712  0.2855  0.2200
12277TIP3    H158246   4.067   6.735  16.058  0.4868  0.5410 -0.7772
12277TIP3    H258247   4.016   6.592  16.064  0.2807  0.6715  0.7699
12278TIP3   OH258248   6.117   4.279  13.799  0.0839 -0.2134  0.0116
12278TIP3    H158249   6.040   4.222  13.794  0.6821 -0.8942 -1.9043
12278TIP3    H258250   6.159   4.269  13.713  1.4986  1.2854  0.5205
12279TIP3   OH258251   5.072   3.571  10.863 -0.3872  0.1142 -0.5821
12279TIP3    H158252   5.035   3.624  10.793 -0.4159  0.8229 -0.0396
12279TIP3    H258253   5.163   3.602  10.870  0.3745 -1.7313 -2.0265
12280TIP3   OH258254   2.356   0.582   4.276 -0.2004 -0.7471 -0.3008
12280TIP3    H158255   2.275   0.531   4.286  0.6460 -2.4731 -1.9263
12280TIP3    H258256   2.332   0.653   4.216 -1.3661  0.7792  1.9083
12281TIP3   OH258257   0.228   6.667   1.816  0.8530 -0.2204 -0.4065
12281TIP3    H158258   0.219   6.651   1.911 -1.4170  0.2221 -0.5179
12281TIP3    H258259   0.254   6.582   1.781 -1.0570 -1.1355  0.2932
12282TIP3   OH258260   2.584   4.988   3.319 -0.2469  0.4731 -0.2980
12282TIP3    H158261   2.617   4.919   3.261 -0.6095  0.0877 -0.0489
12282TIP3    H258262   2.649   5.057   3.312  0.0737  0.1461 -0.6253
12283TIP3   OH258263   3.777   3.120   1.473  0.1489 -0.4247  0.1854
12283TIP3    H158264   3.803   3.155   1.558 -0.8071  0.2277  0.2125
12283TIP3    H258265   3.855   3.076   1.440  0.0987 -1.9472  2.0512
12284TIP3   OH258266   3.607   5.636  11.130 -0.0056  0.0049  0.0432
12284TIP3    H158267   3.529   5.619  11.183 -0.6281  0.6200 -0.6609
12284TIP3    H258268   3.610   5.565  11.067 -0.6182  0.5658 -0.6292
12285TIP3   OH258269   4.090   5.059  11.953 -0.0379  0.1608  0.5842
12285TIP3    H158270   4.086   5.065  11.857 -0.9730 -2.2365  0.4564
12285TIP3    H258271   4.174   5.018  11.971  0.3380  1.0238  0.8359
12286TIP3   OH258272   0.126   1.157  12.295 -0.1982  0.0721  0.3388
12286TIP3    H158273   0.100   1.075  12.252 -0.5500  1.5278 -2.3354
12286TIP3    H258274   0.213   1.176  12.258 -0.0264  0.8039  1.1212
12287TIP3   OH258275   1.795   0.264   2.795  0.2969  0.4761 -0.0634
12287TIP3    H158276   1.746   0.223   2.867 -2.3789  1.1584 -1.4129
12287TIP3    H258277   1.816   0.192   2.736 -0.1361  0.3259 -0.0396
12288TIP3   OH258278   5.978   5.062   5.497 -0.2768  0.4609  0.3171
12288TIP3    H158279   6.022   5.113   5.565  0.1055  0.4066  0.1161
12288TIP3    H258280   6.050   5.021   5.448 -0.5571  0.2789  0.0534
12289TIP3   OH258281   0.501   6.452   3.773 -0.3351 -0.2029  0.1965
12289TIP3    H158282   0.457   6.415   3.697 -1.3344 -0.6977  1.0150
12289TIP3    H258283   0.528   6.539   3.745 -2.6648  0.4744 -0.0165
12290TIP3   OH258284   1.464   6.044  16.894 -0.0130 -0.2531 -0.4272
12290TIP3    H158285   1.484   6.089  16.812  0.2433 -0.8738 -0.7071
12290TIP3    H258286   1.374   6.013  16.882 -0.7061  1.4118  0.3246
12291TIP3   OH258287   6.566   0.542  11.613  0.2653 -0.4469  0.4810
12291TIP3    H158288   6.474   0.556  11.635  0.2159  0.1547 -0.0585
12291TIP3    H258289   6.612   0.614  11.656  0.0644  1.2334 -1.9867
12292TIP3   OH258290   4.718   5.323   2.393  0.3874  0.1209 -0.0301
12292TIP3    H158291   4.726   5.411   2.428 -0.8897  0.1949  0.0997
12292TIP3    H258292   4.719   5.334   2.298 -1.3566  0.4435 -0.0223
12293TIP3   OH258293   4.102   2.574   5.882 -0.4867 -0.4709  0.1349
12293TIP3    H158294   4.086   2.640   5.815 -0.9607 -0.6544  0.0679
12293TIP3    H258295   4.177   2.608   5.932 -0.6679  0.0665  0.0434
12294TIP3   OH258296   3.168   0.996  13.183  0.2385 -0.6720  0.9785
12294TIP3    H158297   3.151   1.081  13.223 -1.6650 -0.0108 -1.1526
12294TIP3    H258298   3.092   0.943  13.206 -1.2933 -0.0273 -2.3757
12295TIP3   OH258299   3.021   6.324  10.535  0.0375 -0.2223 -0.2726
12295TIP3    H158300   2.959   6.367  10.593  0.3455  0.0493 -0.1454
12295TIP3    H258301   3.017   6.231  10.559 -1.3021 -0.4055 -1.1675
12296TIP3   OH258302   4.522   5.771  16.620  0.5883 -0.5437  0.1488
12296TIP3    H158303   4.536   5.794  16.712  0.5861  1.3953 -0.3221
12296TIP3    H258304   4.522   5.855  16.574  1.5951 -1.5557 -1.7575
12297TIP3   OH258305   6.527   2.459   4.511  0.1868  0.0282  0.2789
12297TIP3    H158306   6.568   2.420   4.588  2.2638  0.7512 -0.4187
12297TIP3    H258307   6.560   2.548   4.509 -1.5202  0.6660 -0.2842
12298TIP3   OH258308   4.486   0.520  14.833  0.5374 -0.6992 -0.7970
12298TIP3    H158309   4.419   0.493  14.896  2.2632  0.6136  1.6575
12298TIP3    H258310   4.437   0.563  14.763 -1.3096 -1.0474  0.2621
12299TIP3   OH258311   5.921   4.577  10.885  0.7223 -0.1134 -0.6659
12299TIP3    H158312   6.014   4.556  10.873  0.9664  0.6387 -0.1798
12299TIP3    H258313   5.882   4.567  10.798  1.1873 -0.7885 -0.7959
12300TIP3   OH258314   1.572   6.183  17.076 -0.7857 -0.0450  0.1995
12300TIP3    H158315   1.498   6.156  17.130 -1.3260 -0.7015 -0.8530
12300TIP3    H258316   1.558   6.138  16.992 -0.2265  1.3460 -0.6566
12301TIP3   OH258317   3.089   4.669  14.691  0.4060  0.0148 -0.4178
12301TIP3    H158318   3.183   4.683  14.681  0.1261  2.5777  0.1487
12301TIP3    H258319   3.074   4.676  14.785 -0.6164  1.5967 -0.6815
12302TIP3   OH258320   4.475   4.492  16.079  0.0088  0.1255  0.2846
12302TIP3    H158321   4.562   4.524  16.054 -0.1039 -0.7327 -1.2522
12302TIP3    H258322   4.491   4.433  16.152  0.7292 -0.0996 -0.0533
12303TIP3   OH258323   5.864   1.754   2.065  0.3868  0.2967 -0.1084
12303TIP3    H158324   5.903   1.841   2.064 -1.0882  0.9778 -0.0219
12303TIP3    H258325   5.790   1.761   2.124  0.1209 -0.9671 -0.2665
12304TIP3   OH258326   0.539   3.488   1.429  0.0337  1.3157 -0.2001
12304TIP3    H158327   0.452   3.498   1.391 -0.3930 -1.5669 -0.1437
12304TIP3    H258328   0.599   3.503   1.356 -0.6227  0.4134 -0.9413
12305TIP3   OH258329   5.624   1.824  15.027  0.1572 -0.3516  0.1370
12305TIP3    H158330   5.574   1.879  15.087 -1.4775  0.1883 -1.7109
12305TIP3    H258331   5.673   1.885  14.972 -0.5674 -0.7737 -0.9855
12306TIP3   OH258332   3.747   3.024  16.084 -0.1467 -0.3334 -0.1427
12306TIP3    H158333   3.833   3.034  16.044  0.2437  0.7422  0.9489
12306TIP3    H258334   3.729   3.108  16.125 -2.0944 -0.2538 -1.0672
12307TIP3   OH258335   1.084   4.588  13.634  0.5366 -0.4228  0.0582
12307TIP3    H158336   1.169   4.622  13.608  0.4708 -0.2731  0.0398
12307TIP3    H258337   1.102   4.534  13.711  0.3966  1.0263  1.1333
12308TIP3   OH258338   0.516   3.759   0.892  0.0358 -0.5135  0.0296
12308TIP3    H158339   0.575   3.797   0.958 -0.2247  0.7309 -0.4344
12308TIP3    H258340   0.500   3.670   0.922 -0.0835  0.0445  1.6599
12309TIP3   OH258341   4.425   0.961  15.584  0.2007  1.0666 -0.3125
12309TIP3    H158342   4.451   0.979  15.494  0.2154 -0.2312 -0.5693
12309TIP3    H258343   4.504   0.925  15.625 -0.3295 -0.0712 -0.2834
12310TIP3   OH258344   2.122   2.334   5.401  0.8947 -0.2184  0.1934
12310TIP3    H158345   2.120   2.334   5.496  0.6156 -0.3481  0.1885
12310TIP3    H258346   2.206   2.295   5.378  0.5504 -1.0928  0.3803
12311TIP3   OH258347   0.250   4.721   1.525 -0.7577  0.1249 -0.5021
12311TIP3    H158348   0.288   4.788   1.582 -2.2165  0.6176 -0.0719
12311TIP3    H258349   0.205   4.662   1.586 -0.6516 -0.4533 -0.9904
12312TIP3   OH258350   5.708   2.537  14.692  0.0722  0.3514 -0.3865
12312TIP3    H158351   5.778   2.476  14.670  1.3221  1.2473  0.9497
12312TIP3    H258352   5.655   2.490  14.756 -0.5173 -0.3141 -1.3639
12313TIP3   OH258353   3.251   1.342   6.477 -0.0728  0.4299  0.0342
12313TIP3    H158354   3.170   1.345   6.527 -0.8429 -0.2607 -1.1548
12313TIP3    H258355   3.298   1.265   6.511 -0.4266  0.1842 -0.0269
12314TIP3   OH258356   2.739   1.320   4.386 -0.1196 -0.0998 -0.0500
12314TIP3    H158357   2.752   1.415   4.384 -0.1229 -0.0563  1.3989
12314TIP3    H258358   2.731   1.295   4.294 -3.6267  1.8189 -0.3773
12315TIP3   OH258359   6.746   3.345  16.572 -0.1276  0.8249 -1.1200
12315TIP3    H158360   6.751   3.392  16.488  0.9177  2.6555 -0.0632
12315TIP3    H258361   6.837   3.344  16.603 -0.2528 -1.3066 -0.7719
12316TIP3   OH258362   2.657   5.455   5.553  0.8123 -0.1069 -0.1687
12316TIP3    H158363   2.746   5.433   5.524  0.7414  1.2740 -1.4988
12316TIP3    H258364   2.629   5.379   5.604  2.5635 -0.7769 -0.1630
12317TIP3   OH258365   3.396   6.115   1.613 -0.2436 -0.4518  0.2906
12317TIP3    H158366   3.480   6.105   1.568  0.1684  1.6412  0.5421
12317TIP3    H258367   3.397   6.048   1.682  0.6404 -1.3011 -0.5325
12318TIP3   OH258368   0.395   3.456  13.588  0.3749 -0.6127  0.6155
12318TIP3    H158369   0.399   3.360  13.580  0.6240 -0.5590  0.0657
12318TIP3    H258370   0.442   3.488  13.511 -2.5042 -0.0162 -0.9709
12319TIP3   OH258371   4.730   3.569   2.589 -0.8684 -0.0996  0.3430
12319TIP3    H158372   4.656   3.521   2.551  0.8376 -1.2585 -1.6013
12319TIP3    H258373   4.806   3.513   2.573  0.5821  1.4749  1.5434
12320TIP3   OH258374   6.555   2.362  14.973  0.1027 -0.0127  0.7322
12320TIP3    H158375   6.564   2.403  14.887 -1.1196 -2.1945 -0.4911
12320TIP3    H258376   6.629   2.302  14.978  1.3398  1.5755  2.1130
12321TIP3   OH258377   2.511   6.052  16.706  0.4279  0.1095 -1.0116
12321TIP3    H158378   2.490   6.132  16.658 -0.6788  0.3239 -0.1735
12321TIP3    H258379   2.450   5.987  16.671 -0.2161  0.2045 -0.0775
12322TIP3   OH258380   0.940   4.028  11.717  0.2824 -0.1738 -0.1791
12322TIP3    H158381   0.883   4.104  11.702 -0.9359 -1.2534 -1.0854
12322TIP3    H258382   0.918   3.999  11.805  1.1157  0.8297  0.3651
12323TIP3   OH258383   3.781   1.670   2.898  0.9509  0.2831 -0.0123
12323TIP3    H158384   3.875   1.664   2.914  0.9975  1.9230  0.4457
12323TIP3    H258385   3.764   1.764   2.892 -0.9888  0.0872  1.9698
12324TIP3   OH258386   1.432   5.108   5.515 -0.0406  0.4232 -0.0821
12324TIP3    H158387   1.370   5.057   5.463  1.6380 -0.1516 -1.5752
12324TIP3    H258388   1.405   5.199   5.503 -0.4354  0.1994 -0.9412
12325TIP3   OH258389   0.348   4.921  14.724  0.0879 -0.3559  0.4716
12325TIP3    H158390   0.348   5.015  14.742  1.9715 -0.5466  1.5978
12325TIP3    H258391   0.309   4.913  14.637  0.4708  1.5157  0.1069
12326TIP3   OH258392   6.425   4.233   2.144  0.1651 -0.7276  0.2605
12326TIP3    H158393   6.465   4.157   2.186 -0.4593 -1.0495  0.2711
12326TIP3    H258394   6.331   4.217   2.147  0.0369 -0.0662  0.0502
12327TIP3   OH258395   2.819   3.856  17.005  0.5243 -0.2798  0.0876
12327TIP3    H158396   2.901   3.877  17.050 -0.5991  0.1963  2.0071
12327TIP3    H258397   2.756   3.844  17.077 -1.7482  2.1753 -1.4369
12328TIP3   OH258398   1.598   1.947   1.888 -0.4948 -0.0757  0.3158
12328TIP3    H158399   1.646   1.864   1.886 -0.6434 -0.2007  1.6755
12328TIP3    H258400   1.637   1.995   1.961  0.5471  1.6387 -1.3081
12329TIP3   OH258401   4.402   0.957   1.572 -0.0244  0.8480  0.3941
12329TIP3    H158402   4.406   0.876   1.522  1.1689 -0.7077  2.9168
12329TIP3    H258403   4.493   0.980   1.588 -0.3472 -0.1115  3.9873
12330TIP3   OH258404   5.639   4.872  13.779 -0.1941 -0.3163  0.0326
12330TIP3    H158405   5.594   4.957  13.788 -0.7350 -0.8091  2.2664
12330TIP3    H258406   5.732   4.894  13.778 -0.3268  0.2767  0.8061
12331TIP3   OH258407   1.062   6.623   0.451 -0.4323 -0.2963 -0.1270
12331TIP3    H158408   1.032   6.691   0.391  0.4276 -0.4201 -0.7041
12331TIP3    H258409   1.120   6.668   0.512 -0.8205 -0.2876  0.2382
12332TIP3   OH258410   5.978   0.389   2.921  0.4807  0.3875  0.5509
12332TIP3    H158411   6.021   0.473   2.936  0.1354  1.1538 -2.5620
12332TIP3    H258412   5.885   0.410   2.916  0.3205 -0.3052  0.5388
12333TIP3   OH258413   2.216   5.696  14.488 -0.2585 -0.7145 -0.3523
12333TIP3    H158414   2.284   5.628  14.492  0.5645  0.1614  1.0524
12333TIP3    H258415   2.231   5.741  14.405  0.0642 -1.3548 -0.6453
12334TIP3   OH258416   1.872   4.717  16.335 -0.1654 -0.1773 -0.2188
12334TIP3    H158417   1.816   4.659  16.284 -1.1366  0.5400  0.0097
12334TIP3    H258418   1.815   4.792  16.356  1.1160  0.9387 -0.6865
12335TIP3   OH258419   4.041   6.089   3.499 -0.1606  0.3831  0.4704
12335TIP3    H158420   4.129   6.111   3.529 -0.0360 -2.7919  2.6247
12335TIP3    H258421   3.982   6.132   3.561 -0.0019 -1.5127  1.9719
12336TIP3   OH258422   6.207   4.206   1.828 -0.2939  0.3237 -0.1570
12336TIP3    H158423   6.301   4.208   1.812 -0.5810 -0.5727 -2.0900
12336TIP3    H258424   6.171   4.160   1.753 -2.0943 -1.0206  1.4915
12337TIP3   OH258425   0.151   6.503   0.744 -0.0259  0.2866 -0.0600
12337TIP3    H158426   0.164   6.589   0.704  1.1641 -0.7433 -1.9652
12337TIP3    H258427   0.065   6.475   0.714 -1.1585  1.5200  1.9523
12338TIP3   OH258428   5.744   5.092   6.436 -0.3193  0.2339 -0.1521
12338TIP3    H158429   5.755   5.055   6.523  3.4903  1.9607  0.1833
12338TIP3    H258430   5.654   5.125   6.435 -1.5413 -2.7851  1.8837
12339TIP3   OH258431   1.070   2.060   5.894 -0.0326  0.7079 -0.2458
12339TIP3    H158432   1.155   2.023   5.916 -0.1370 -0.1672 -1.2392
12339TIP3    H258433   1.022   2.061   5.977  0.6273  0.3611  0.1452
12340TIP3   OH258434   6.560   3.668  13.914  0.1547 -1.0983 -0.5810
12340TIP3    H158435   6.501   3.610  13.962 -0.2666 -0.5846 -0.4778
12340TIP3    H258436   6.515   3.753  13.913 -0.0844 -1.2140 -2.2934
12341TIP3   OH258437   1.181   1.534  13.666 -0.4995 -0.6641  0.1964
12341TIP3    H158438   1.254   1.483  13.631 -0.2940 -1.2949  1.5247
12341TIP3    H258439   1.220   1.618  13.691  0.2851 -1.8407  3.1105
12342TIP3   OH258440   1.321   3.232   0.315  0.2369 -0.6045  0.1979
12342TIP3    H158441   1.329   3.325   0.298  1.5030 -0.6939  0.3168
12342TIP3    H258442   1.232   3.222   0.351  0.2418  0.5922  0.5519
12343TIP3   OH258443   5.836   6.659   0.603 -0.5794 -0.3246  0.5662
12343TIP3    H158444   5.866   6.737   0.558 -0.4262 -0.8484 -0.2536
12343TIP3    H258445   5.779   6.615   0.540  0.5250 -1.6328  0.4609
12344TIP3   OH258446   3.039   6.256   4.510 -0.5357  0.1190 -0.0788
12344TIP3    H158447   3.013   6.164   4.503  0.0358 -0.0641  0.1460
12344TIP3    H258448   2.971   6.297   4.564 -0.8367 -0.1540 -0.2543
12345TIP3   OH258449   1.731   4.835   4.183  0.0533  0.4005 -0.1706
12345TIP3    H158450   1.750   4.877   4.266  2.4666 -0.2195 -0.3917
12345TIP3    H258451   1.783   4.883   4.119  0.2802 -0.8131 -0.9226
12346TIP3   OH258452   2.836   1.972  16.435 -0.4646 -0.2745  0.5775
12346TIP3    H158453   2.786   2.018  16.503 -0.8540 -1.0573  0.8305
12346TIP3    H258454   2.906   2.033  16.412 -0.9771  0.4497  0.8948
12347TIP3   OH258455   2.582   4.775   5.471 -0.3497 -0.4935  0.0108
12347TIP3    H158456   2.585   4.868   5.447 -0.6688 -0.1676  1.1836
12347TIP3    H258457   2.660   4.762   5.525  0.5156 -1.2807 -1.4121
12348TIP3   OH258458   3.689   1.980   4.802 -0.4272 -0.0913 -0.0380
12348TIP3    H158459   3.720   1.988   4.712 -0.8611 -1.0213 -0.2724
12348TIP3    H258460   3.595   1.997   4.797 -0.6689 -1.3382  0.0436
12349TIP3   OH258461   1.573   1.171  14.048  0.1349  0.2497  0.2072
12349TIP3    H158462   1.567   1.244  13.987 -0.0593 -0.0057 -0.0822
12349TIP3    H258463   1.663   1.139  14.037 -1.2233 -2.7677 -3.4307
12350TIP3   OH258464   1.114   2.833   0.426  0.3020 -0.4500 -0.2912
12350TIP3    H158465   1.170   2.874   0.360 -1.3609 -0.3802 -1.6806
12350TIP3    H258466   1.104   2.900   0.494 -1.4690  1.1127 -2.0102
12351TIP3   OH258467   1.203   4.743  10.640  0.1009  0.0804  0.3931
12351TIP3    H158468   1.184   4.658  10.679  1.1983  0.3267  1.5058
12351TIP3    H258469   1.150   4.805  10.691  2.3441  0.5359  2.2484
12352TIP3   OH258470   2.718   3.929   2.998  0.5213  0.5398  0.2884
12352TIP3    H158471   2.758   4.014   3.019  0.8482  0.3060  0.6225
12352TIP3    H258472   2.645   3.922   3.060 -0.9297  1.6084 -1.2680
12353TIP3   OH258473   3.027   2.249   5.373 -0.0368 -0.0798 -0.6065
12353TIP3    H158474   2.974   2.320   5.336 -0.1102  0.0573 -0.2427
12353TIP3    H258475   3.006   2.173   5.320  0.6163  0.3489 -1.4863
12354TIP3   OH258476   6.455   2.884   6.574  0.0078  0.5599 -0.1207
12354TIP3    H158477   6.530   2.827   6.556 -0.4242 -0.0311 -0.0523
12354TIP3    H258478   6.493   2.972   6.581  0.8104  0.1417  0.8392
12355TIP3   OH258479   5.179   6.658  14.870 -0.0226  0.1365 -0.2940
12355TIP3    H158480   5.257   6.605  14.855  0.4631  0.3994  1.1819
12355TIP3    H258481   5.133   6.614  14.941 -0.5378  0.7023 -0.2702
12356TIP3   OH258482   6.002   3.430   5.980 -0.3189  0.0897 -0.0524
12356TIP3    H158483   6.063   3.457   5.911  0.4085  0.5879  0.7756
12356TIP3    H258484   6.058   3.398   6.051 -1.1109 -2.1298 -0.3730
12357TIP3   OH258485   1.372   2.850  11.525 -0.3676  0.2723 -0.0005
12357TIP3    H158486   1.444   2.835  11.586 -0.0317  0.1725 -0.4134
12357TIP3    H258487   1.295   2.862  11.580 -0.1233 -0.1341  0.4333
12358TIP3   OH258488   1.249   3.104   4.409 -0.3896 -0.3261 -0.1241
12358TIP3    H158489   1.341   3.131   4.410 -0.3803 -0.4114  1.2191
12358TIP3    H258490   1.231   3.076   4.498 -2.0834  0.8908 -0.0623
12359TIP3   OH258491   3.207   0.086   4.354  0.3480  0.1356 -0.4099
12359TIP3    H158492   3.277   0.147   4.379 -0.8224  1.1997  0.3074
12359TIP3    H258493   3.230   0.059   4.265  2.2203 -0.3191  0.1956
12360TIP3   OH258494   6.512   6.761   3.094 -0.1112 -0.2408  0.1825
12360TIP3    H158495   6.448   6.767   3.165 -0.2475 -0.0011  0.0414
12360TIP3    H258496   6.592   6.800   3.130 -0.1904 -0.0875  0.1906
12361TIP3   OH258497   3.439   0.227  13.258 -0.6328  0.0482  0.3272
12361TIP3    H158498   3.380   0.295  13.293 -0.4240  0.9821 -1.0870
12361TIP3    H258499   3.383   0.150  13.247 -0.9601  0.0897  1.5848
12362TIP3   OH258500   4.085   2.090  10.765 -0.3936 -0.4543 -0.4761
12362TIP3    H158501   4.156   2.126  10.713 -0.8060  0.8446 -0.1406
12362TIP3    H258502   4.006   2.132  10.732 -0.7698 -0.3416  0.5493
12363TIP3   OH258503   0.988   0.604   4.275  0.4045  0.3237  0.3979
12363TIP3    H158504   0.914   0.664   4.263  0.7550  1.1472  2.2014
12363TIP3    H258505   0.987   0.583   4.368  1.5680 -0.8292  0.1665
12364TIP3   OH258506   4.340   2.736   2.986 -0.1192  0.4702  0.8107
12364TIP3    H158507   4.367   2.814   2.938 -0.7462  0.8585  1.0886
12364TIP3    H258508   4.312   2.768   3.071  1.3694 -0.2720  1.5931
12365TIP3   OH258509   1.486   5.143   4.388  0.2730  0.0572 -0.3200
12365TIP3    H158510   1.510   5.180   4.474 -2.1478  0.8722  0.0320
12365TIP3    H258511   1.396   5.172   4.374 -1.5265 -5.1482 -0.3813
12366TIP3   OH258512   0.949   4.038  11.986  0.6222 -0.2216 -0.1908
12366TIP3    H158513   0.991   4.119  12.012  1.8234 -1.4220  1.6979
12366TIP3    H258514   0.983   3.972  12.046 -0.4259 -2.1153 -1.5965
12367TIP3   OH258515   0.619   5.754  15.549  0.0139 -0.0493  0.2418
12367TIP3    H158516   0.706   5.774  15.584 -0.2477 -0.2010  0.9802
12367TIP3    H258517   0.559   5.792  15.612 -0.4666 -0.9128  0.3041
12368TIP3   OH258518   2.150   1.133   0.067  0.6589 -0.1355 -0.2104
12368TIP3    H158519   2.191   1.082  -0.002 -0.6869 -0.1420 -1.0179
12368TIP3    H258520   2.080   1.077   0.100  0.7005  0.2421  0.5259
12369TIP3   OH258521   4.503   3.432   0.005 -0.5151 -0.4896 -0.2457
12369TIP3    H158522   4.514   3.520   0.041 -1.1982 -0.6147  0.2681
12369TIP3    H258523   4.460   3.445  -0.079 -1.3373 -0.3827  0.1859
12370TIP3   OH258524   3.335   2.086  12.967  0.5773  0.0563  0.0328
12370TIP3    H158525   3.292   2.172  12.970 -1.1133 -0.8516  2.7318
12370TIP3    H258526   3.373   2.082  12.879 -1.4735  2.5115 -1.0262
12371TIP3   OH258527   2.460   1.037  11.691  0.1678  0.2716  0.0656
12371TIP3    H158528   2.493   1.127  11.695 -1.5066  0.8411  2.0220
12371TIP3    H258529   2.504   0.992  11.764 -1.9674  0.5906  1.6105
12372TIP3   OH258530   4.055   6.556  13.246 -0.1205  0.5667 -0.6780
12372TIP3    H158531   4.041   6.643  13.283 -0.7068  1.7406 -3.5249
12372TIP3    H258532   4.125   6.518  13.299 -2.3487  1.2917  2.9694
12373TIP3   OH258533   2.023   5.917   0.355  0.4668 -0.2130  0.5191
12373TIP3    H158534   1.974   5.981   0.303  1.1102  0.6081  0.9141
12373TIP3    H258535   1.964   5.893   0.426  0.1572 -0.1859  0.2721
12374TIP3   OH258536   6.668   1.003   2.783  0.1802  0.0174 -0.1301
12374TIP3    H158537   6.619   0.934   2.828  1.3016  0.2184  1.4706
12374TIP3    H258538   6.719   0.957   2.716 -0.1881 -0.5296 -0.0368
12375TIP3   OH258539   1.325   3.314  14.723 -0.6318  0.5000  0.2150
12375TIP3    H158540   1.332   3.354  14.636 -0.6795  1.6099  0.7184
12375TIP3    H258541   1.237   3.278  14.726 -0.2631 -0.5030 -0.6021
12376TIP3   OH258542   2.464   4.263  10.830 -0.4528  0.0695  0.1621
12376TIP3    H158543   2.552   4.288  10.857 -0.7298  0.3635  0.8044
12376TIP3    H258544   2.461   4.281  10.736 -0.8210  3.0462  0.6922
12377TIP3   OH258545   2.602   4.206   3.454  0.1810 -0.0127 -0.0020
12377TIP3    H158546   2.611   4.146   3.528  1.6428 -3.1942 -2.6356
12377TIP3    H258547   2.514   4.189   3.420  0.3682 -0.1883 -0.3914
12378TIP3   OH258548   5.262   1.308  12.531 -0.1839  0.1022  0.0139
12378TIP3    H158549   5.242   1.256  12.454  1.8643 -0.2643 -0.2884
12378TIP3    H258550   5.311   1.250  12.588  1.8589  1.5586 -0.1909
12379TIP3   OH258551   1.413   5.445  15.911 -0.6071 -0.2050  0.1308
12379TIP3    H158552   1.371   5.524  15.877 -0.5312  0.3934  1.4194
12379TIP3    H258553   1.342   5.395  15.951 -0.7530 -1.0732 -1.1595
12380TIP3   OH258554   3.521   5.194  16.698  0.3932 -0.2335 -0.2574
12380TIP3    H158555   3.543   5.144  16.777 -0.2890  1.1891  0.8521
12380TIP3    H258556   3.603   5.200  16.649  1.1283  0.0406  1.0026
12381TIP3   OH258557   2.870   5.224   4.034 -0.5543 -0.1010 -0.2483
12381TIP3    H158558   2.863   5.196   4.125  0.4155 -1.5811 -0.6091
12381TIP3    H258559   2.927   5.301   4.036 -0.1283 -0.4325  0.3376
12382TIP3   OH258560   6.664   1.985  15.303 -0.5793  0.1602  0.7526
12382TIP3    H158561   6.607   1.936  15.243  0.7507 -1.3135  0.6575
12382TIP3    H258562   6.610   1.998  15.381 -2.0347  1.3631 -0.4175
12383TIP3   OH258563   2.105   2.270   0.369 -0.2285  0.5815 -0.4110
12383TIP3    H158564   2.155   2.347   0.341  1.8694 -0.0531  1.4957
12383TIP3    H258565   2.171   2.207   0.396 -2.0516 -0.5765  1.4484
12384TIP3   OH258566   0.523   3.381  17.006  0.4266  0.0645 -0.4239
12384TIP3    H158567   0.483   3.295  16.995  0.0255  0.0598  0.9887
12384TIP3    H258568   0.459   3.442  16.967  0.0259 -0.1425 -0.0923
12385TIP3   OH258569   6.145   1.717  16.741 -0.1622  0.3044  0.6721
12385TIP3    H158570   6.055   1.712  16.773 -0.0773  1.8033  1.2152
12385TIP3    H258571   6.191   1.767  16.809  0.9802 -0.1054  0.2024
12386TIP3   OH258572   3.252   4.634   6.474 -0.5672 -0.3441 -0.1633
12386TIP3    H158573   3.187   4.699   6.448  0.4429  1.3279  1.3639
12386TIP3    H258574   3.205   4.574   6.532 -0.7157  0.9828  1.1113
12387TIP3   OH258575   2.872   5.352   4.814  0.3687 -0.3955  0.1300
12387TIP3    H158576   2.796   5.374   4.761  1.1516 -1.2902 -1.3832
12387TIP3    H258577   2.865   5.258   4.828  0.8802 -0.3835  0.5005
12388TIP3   OH258578   5.465   4.327   5.859  0.0233 -0.1440 -0.0028
12388TIP3    H158579   5.395   4.300   5.919 -1.3909  0.7556 -1.2153
12388TIP3    H258580   5.501   4.407   5.898 -0.4567  0.0811 -0.0218
12389TIP3   OH258581   2.392   1.955   0.923 -0.9860 -0.3100 -0.3509
12389TIP3    H158582   2.444   1.973   0.844  0.3058  0.2815  0.6240
12389TIP3    H258583   2.398   1.860   0.934  0.0930 -0.2269 -0.1223
12390TIP3   OH258584   6.449   2.529  12.701  0.1707  0.5274  0.2484
12390TIP3    H158585   6.370   2.475  12.704  1.1127 -0.8244  2.2389
12390TIP3    H258586   6.504   2.489  12.633  0.6139 -0.7338  1.3104
12391TIP3   OH258587   2.037   1.711   5.349 -0.0243 -0.4028  0.0573
12391TIP3    H158588   2.015   1.804   5.345  1.2816 -0.1123 -0.8503
12391TIP3    H258589   2.021   1.686   5.440 -2.4003  0.1794 -0.1769
12392TIP3   OH258590   6.391   4.008  11.334 -0.0479  0.5969  0.0545
12392TIP3    H158591   6.411   4.058  11.255 -2.1584  1.2189 -0.0988
12392TIP3    H258592   6.371   3.920  11.302  0.6739  0.4308  0.0509
12393TIP3   OH258593   5.554   3.360   6.083  0.9324  0.0801  0.2745
12393TIP3    H158594   5.466   3.320   6.080  0.5995  0.7367  1.1238
12393TIP3    H258595   5.597   3.329   6.003  0.6427 -1.9017  0.8530
12394TIP3   OH258596   2.242   5.586   5.047 -0.5739 -0.0323 -0.0427
12394TIP3    H158597   2.152   5.554   5.059 -0.8324  0.8588  0.4011
12394TIP3    H258598   2.249   5.600   4.953 -0.8567 -0.2231 -0.0959
12395TIP3   OH258599   5.901   1.141   1.796  0.4626  1.0859 -0.5593
12395TIP3    H158600   5.824   1.163   1.744  0.9372  0.6066 -1.4674
12395TIP3    H258601   5.867   1.131   1.885 -0.7310 -0.2406 -1.1419
12396TIP3   OH258602   0.994   1.660  14.384 -0.6025  0.6616  0.6429
12396TIP3    H158603   1.073   1.650  14.436  0.8491  0.9639 -1.4474
12396TIP3    H258604   0.934   1.594  14.420  1.0312 -0.4495  1.4308
12397TIP3   OH258605   2.916   4.232  16.981  0.3224  0.0613 -0.7029
12397TIP3    H158606   2.875   4.161  16.930  1.1204 -1.1453  0.3104
12397TIP3    H258607   2.870   4.311  16.952 -1.6666 -1.0592 -0.7106
12398TIP3   OH258608   0.104   1.459  11.937 -0.1237  0.1009 -0.2281
12398TIP3    H158609   0.031   1.399  11.954 -0.4603  0.7840  0.7694
12398TIP3    H258610   0.099   1.476  11.843 -0.6058 -0.6923 -0.3510
12399TIP3   OH258611   5.349   1.032   2.349  0.1883 -0.1782 -0.6291
12399TIP3    H158612   5.273   1.063   2.300 -0.0134  0.0393 -0.1748
12399TIP3    H258613   5.341   0.937   2.349 -1.5523 -0.0805  1.7486
12400TIP3   OH258614   5.516   2.076   4.623 -0.0402  0.0913  0.3002
12400TIP3    H158615   5.445   2.141   4.630  0.0960  0.1337  1.4465
12400TIP3    H258616   5.595   2.129   4.613 -0.1356  0.0536 -0.6292
12401TIP3   OH258617   6.647   4.577   4.426  0.2664  0.3006  0.5995
12401TIP3    H158618   6.576   4.615   4.373  0.1913 -1.1516 -0.3764
12401TIP3    H258619   6.705   4.651   4.444 -0.7320  1.2200  0.1599
12402TIP3   OH258620   5.558   2.630   4.751  0.5121  0.3322 -0.0817
12402TIP3    H158621   5.580   2.701   4.691  0.8178  0.2189 -0.1095
12402TIP3    H258622   5.574   2.550   4.700  0.2998  0.2433 -0.0086
12403TIP3   OH258623   6.162   6.652   0.376  0.3033 -0.1860  0.6359
12403TIP3    H158624   6.167   6.697   0.291 -1.8186 -1.4137 -0.1692
12403TIP3    H258625   6.210   6.709   0.436  0.4888  1.4921 -1.0658
12404TIP3   OH258626   6.706   1.753   5.002  0.0842  0.2206 -0.8898
12404TIP3    H158627   6.769   1.681   4.990 -0.5229 -0.5700  0.5401
12404TIP3    H258628   6.620   1.711   4.994 -0.3185  0.3230  2.1121
12405TIP3   OH258629   1.366   3.750   2.561  0.4600  0.4121  0.5567
12405TIP3    H158630   1.459   3.744   2.537  0.2399 -0.9004 -0.0261
12405TIP3    H258631   1.328   3.805   2.493  0.2552 -1.5241 -0.9473
12406TIP3   OH258632   3.188   2.404   0.257 -0.3776  0.2551  0.7680
12406TIP3    H158633   3.179   2.499   0.259 -1.5837  0.2105 -0.7586
12406TIP3    H258634   3.282   2.389   0.251 -0.2493  1.4302 -0.6713
12407TIP3   OH258635   4.369   1.295   4.928 -0.3039 -0.4871  0.2684
12407TIP3    H158636   4.411   1.373   4.964  0.8071 -0.3856 -1.1655
12407TIP3    H258637   4.278   1.301   4.956 -1.0639  3.0786 -2.5207
12408TIP3   OH258638   6.442   4.001   5.155 -0.2882  0.7570  0.0170
12408TIP3    H158639   6.375   4.062   5.186 -1.2653  0.3452 -1.2214
12408TIP3    H258640   6.492   4.051   5.091 -0.0650  0.7518  0.1875
12409TIP3   OH258641   4.180   0.722  14.208 -0.5277  0.1226 -0.0756
12409TIP3    H158642   4.174   0.638  14.163  1.2995  0.6923 -1.4197
12409TIP3    H258643   4.265   0.757  14.183 -1.9569  3.1741 -0.9203
12410TIP3   OH258644   0.055   2.963   0.731 -0.4630 -0.1290  0.1870
12410TIP3    H158645   0.021   2.921   0.810 -0.5120 -0.0049  0.2319
12410TIP3    H258646   0.128   3.017   0.762 -0.9006  0.4396  0.2442
12411TIP3   OH258647   2.267   5.172  14.143 -0.4253 -0.0023 -0.3796
12411TIP3    H158648   2.278   5.267  14.140  0.7861 -0.1669 -2.2429
12411TIP3    H258649   2.209   5.153  14.069 -1.7233 -0.6063  0.7688
12412TIP3   OH258650   6.500   2.114  15.827  0.0654  0.5582  0.1395
12412TIP3    H158651   6.467   2.114  15.916 -2.7463 -2.7178 -0.7925
12412TIP3    H258652   6.435   2.163  15.777 -0.4102 -0.9593 -0.7507
12413TIP3   OH258653   2.286   2.178  12.387  0.3571 -0.0967 -0.0706
12413TIP3    H158654   2.377   2.186  12.415 -0.0017 -0.6538  1.2810
12413TIP3    H258655   2.237   2.165  12.468 -0.9873  0.6619 -0.7509
12414TIP3   OH258656   6.118   3.922   1.330  0.5364  0.3493  0.8195
12414TIP3    H158657   6.141   3.963   1.413  4.0372  1.0038 -0.3859
12414TIP3    H258658   6.164   3.974   1.264  0.8209 -2.3521 -1.2004
12415TIP3   OH258659   2.917   5.456   1.758 -0.4005  0.1511  0.7001
12415TIP3    H158660   2.920   5.539   1.806 -1.9431  0.9477 -0.5644
12415TIP3    H258661   2.826   5.429   1.763 -0.1041 -0.9417  0.1991
12416TIP3   OH258662   1.566   0.875   2.681  0.2325  0.3635  0.1958
12416TIP3    H158663   1.605   0.962   2.671  0.2663  0.4611  1.0845
12416TIP3    H258664   1.625   0.829   2.741  0.5041 -0.4599 -0.6846
12417TIP3   OH258665   3.463   0.770   5.918 -1.1026 -0.0269  0.5587
12417TIP3    H158666   3.440   0.691   5.870 -1.5437  0.9077 -0.7943
12417TIP3    H258667   3.404   0.771   5.993  1.1667 -2.7299  2.4577
12418TIP3   OH258668   1.542   6.334  12.702  0.1984 -0.0133  0.0998
12418TIP3    H158669   1.476   6.289  12.754  3.0491 -3.1522  1.2285
12418TIP3    H258670   1.625   6.294  12.729  2.7139  4.3854 -0.5560
12419TIP3   OH258671   3.591   2.923   1.776  0.0601 -0.0530  0.3859
12419TIP3    H158672   3.608   3.001   1.828  0.0919 -0.0839  0.4219
12419TIP3    H258673   3.496   2.917   1.772 -0.0667  2.5185 -3.3582
12420TIP3   OH258674   3.764   0.920   0.686  0.6437 -1.0597 -0.2103
12420TIP3    H158675   3.833   0.958   0.632  1.0927 -0.3429  0.8628
12420TIP3    H258676   3.770   0.826   0.671  1.1766 -0.9118 -0.9171
12421TIP3   OH258677   4.703   2.743   0.367 -0.2919 -0.1957 -0.1447
12421TIP3    H158678   4.649   2.779   0.297 -0.1070 -0.0054 -0.1928
12421TIP3    H258679   4.705   2.649   0.351 -0.3068 -0.1588 -0.3543
12422TIP3   OH258680   5.580   2.040  15.242 -0.9664 -0.0801 -0.3998
12422TIP3    H158681   5.580   1.946  15.260  0.1764  0.1412  0.7964
12422TIP3    H258682   5.590   2.081  15.328 -0.2368  1.1127 -1.0392
12423TIP3   OH258683   2.433   2.896  12.350  0.2134 -0.0587 -0.3727
12423TIP3    H158684   2.511   2.924  12.399  1.3099 -0.7640 -1.6579
12423TIP3    H258685   2.363   2.953  12.381  1.6400  1.8134 -0.4673
12424TIP3   OH258686   0.882   4.307   3.318 -0.2677 -0.3071 -0.5942
12424TIP3    H158687   0.787   4.305   3.308 -0.7121  1.3744  2.6166
12424TIP3    H258688   0.911   4.380   3.264 -0.5356 -1.8801 -2.9577
12425TIP3   OH258689   1.305   3.613  11.035 -0.1963  0.3579 -0.0951
12425TIP3    H158690   1.338   3.625  11.124  2.8547 -1.8151 -0.8666
12425TIP3    H258691   1.264   3.527  11.037 -1.0723  0.7590 -0.5488
12426TIP3   OH258692   6.258   0.329   3.264 -0.6293 -0.1870 -0.0064
12426TIP3    H158693   6.236   0.368   3.348  1.9533 -0.2660  0.7337
12426TIP3    H258694   6.284   0.239   3.284  2.2126  0.4606 -0.5422
12427TIP3   OH258695   4.201   6.432   0.728 -0.3526  0.2315  0.4631
12427TIP3    H158696   4.208   6.370   0.801 -2.3393  2.1904  2.3821
12427TIP3    H258697   4.258   6.505   0.754 -3.2401  2.2104  1.4755
12428TIP3   OH258698   5.562   1.982   5.689  0.3351  0.3953 -0.3492
12428TIP3    H158699   5.606   1.908   5.647 -0.8335 -0.3082 -0.3607
12428TIP3    H258700   5.515   2.024   5.617  0.8860  1.0693 -0.3162
12429TIP3   OH258701   4.760   6.783   3.474  0.1017 -0.0793  0.0798
12429TIP3    H158702   4.778   6.690   3.460  1.9357  0.0984  1.2364
12429TIP3    H258703   4.664   6.788   3.477 -0.0054 -2.0246  0.6232
12430TIP3   OH258704   0.089   6.227  11.384  0.1120 -0.5620 -0.4808
12430TIP3    H158705   0.154   6.195  11.321  0.8286  0.1747 -0.1189
12430TIP3    H258706   0.113   6.185  11.467  1.2581  1.1079  0.0744
12431TIP3   OH258707   2.538   4.034  15.457 -0.4188 -0.2635 -0.2530
12431TIP3    H158708   2.539   4.062  15.366 -2.3185 -0.7986 -0.4537
12431TIP3    H258709   2.587   3.952  15.457 -1.1615 -0.7106 -0.9515
12432TIP3   OH258710   0.944   6.753  11.864 -0.7468  0.0341  0.4591
12432TIP3    H158711   1.018   6.747  11.804 -1.7064  1.0328 -0.8652
12432TIP3    H258712   0.929   6.663  11.893 -0.1735 -0.4518 -0.7033
12433TIP3   OH258713   2.254   3.295   1.756 -0.1954 -0.4200 -0.2424
12433TIP3    H158714   2.305   3.364   1.712 -0.2586 -1.1480 -1.4802
12433TIP3    H258715   2.313   3.220   1.760 -0.2687 -0.4344  0.7381
12434TIP3   OH258716   0.592   5.036  13.254 -0.0042 -0.1711 -0.3338
12434TIP3    H158717   0.629   5.014  13.339  2.5955  0.1353 -1.3266
12434TIP3    H258718   0.611   4.960  13.199  2.5300  1.4526 -1.8275
12435TIP3   OH258719   2.233   3.578  16.048  0.2253 -0.3735  0.2935
12435TIP3    H158720   2.273   3.521  15.983 -1.1705 -1.4893  0.3844
12435TIP3    H258721   2.287   3.657  16.048  0.6575 -0.6499 -1.7097
12436TIP3   OH258722   0.689   2.559  11.309 -0.8610 -0.3748 -0.0863
12436TIP3    H158723   0.771   2.590  11.347 -1.4549 -0.8575  1.5997
12436TIP3    H258724   0.652   2.636  11.266 -0.7512  0.4599  1.3069
12437TIP3   OH258725   6.632   0.068   6.678  0.0407  0.6831  0.0155
12437TIP3    H158726   6.590   0.009   6.615  0.0936 -1.0841  1.5634
12437TIP3    H258727   6.620   0.155   6.642  0.8242 -0.3498 -2.8451
12438TIP3   OH258728   3.827   6.423  12.807  0.4629  0.0451 -0.4003
12438TIP3    H158729   3.793   6.439  12.719  1.4472  0.4388 -0.7180
12438TIP3    H258730   3.906   6.477  12.812  1.6245 -1.6593 -0.0512
12439TIP3   OH258731   6.350   1.681  16.452 -0.3336 -0.2311 -0.6171
12439TIP3    H158732   6.302   1.615  16.403 -0.7505 -1.7204  1.7277
12439TIP3    H258733   6.385   1.634  16.527  1.0897  1.7933  0.0250
12440TIP3   OH258734   1.885   6.147  13.674 -0.1525  0.2067 -0.0025
12440TIP3    H158735   1.894   6.206  13.749  0.4737 -0.8379  0.7467
12440TIP3    H258736   1.973   6.139  13.639 -0.2824 -0.0918 -0.2577
12441TIP3   OH258737   2.289   4.441  14.447 -0.3435 -0.0376  0.1264
12441TIP3    H158738   2.241   4.359  14.434  0.2352 -0.6982  1.9115
12441TIP3    H258739   2.245   4.483  14.521  1.1846 -0.1758  1.1373
12442TIP3   OH258740   2.835   2.721  13.728 -0.2466  0.0532 -0.2207
12442TIP3    H158741   2.884   2.640  13.719 -2.7281 -1.3757 -1.5039
12442TIP3    H258742   2.750   2.702  13.688 -1.7131  2.5444  1.5714
12443TIP3   OH258743   5.464   1.275   0.259 -0.0929 -0.3083 -0.0370
12443TIP3    H158744   5.480   1.367   0.282  0.8635  0.0478 -1.9843
12443TIP3    H258745   5.528   1.227   0.312  1.8381  0.4605 -1.5949
12444TIP3   OH258746   1.030   4.896  10.818  0.1993  0.0347 -0.0146
12444TIP3    H158747   1.085   4.938  10.884 -1.1412  2.1684 -0.2010
12444TIP3    H258748   0.991   4.821  10.862 -0.0977  1.0083  1.3834
12445TIP3   OH258749   3.573   0.286   3.968 -0.1699 -0.3062 -0.4457
12445TIP3    H158750   3.584   0.299   3.874 -2.5661  0.1219 -0.7188
12445TIP3    H258751   3.659   0.302   4.006  0.7597 -0.2450 -2.5388
12446TIP3   OH258752   2.477   2.195  15.729 -0.2827  0.0803 -0.3196
12446TIP3    H158753   2.390   2.219  15.760 -1.7800 -1.2359 -3.3382
12446TIP3    H258754   2.477   2.218  15.636  1.6462 -2.3976 -0.9917
12447TIP3   OH258755   0.906   3.437   3.700 -0.3754  0.3859  0.0765
12447TIP3    H158756   0.956   3.365   3.737 -0.3065 -0.6511 -1.9457
12447TIP3    H258757   0.815   3.407   3.703 -0.7353  1.6338  2.3366
12448TIP3   OH258758   4.092   0.563  13.933 -0.4010 -0.2686 -0.3756
12448TIP3    H158759   4.118   0.633  13.873 -3.3630  1.2292  0.0159
12448TIP3    H258760   3.998   0.555  13.920 -0.6806 -1.5980  2.3387
12449TIP3   OH258761   0.999   1.427   5.271  0.0107 -0.0343 -0.4100
12449TIP3    H158762   0.982   1.332   5.265 -0.4094  0.0435 -0.5251
12449TIP3    H258763   1.093   1.434   5.286  0.1673 -0.4458 -1.1654
12450TIP3   OH258764   5.356   3.099   0.416  0.2378 -0.2743 -0.4120
12450TIP3    H158765   5.310   3.183   0.421  1.5342  0.5093 -1.4153
12450TIP3    H258766   5.322   3.048   0.490  0.2667  1.5435  0.8632
12451TIP3   OH258767   4.016   4.566   5.484 -0.1373  0.1076  0.0612
12451TIP3    H158768   4.038   4.474   5.501 -1.3443 -0.1377  0.3228
12451TIP3    H258769   4.099   4.606   5.456  0.6655 -0.7827  1.1032
12452TIP3   OH258770   0.827   0.829   5.657 -0.5633 -0.7941  0.3460
12452TIP3    H158771   0.793   0.857   5.743 -1.5929  1.4475 -0.7516
12452TIP3    H258772   0.922   0.828   5.668 -0.6694 -0.1711  1.4399
12453TIP3   OH258773   3.601   6.470  16.501 -0.0669  0.0798 -0.0490
12453TIP3    H158774   3.602   6.389  16.553  0.6063 -0.3615 -0.7280
12453TIP3    H258775   3.631   6.442  16.414  0.4096  1.1140 -0.2150
12454TIP3   OH258776   1.081   5.713  14.723  0.3349 -0.3215 -0.2378
12454TIP3    H158777   0.991   5.693  14.748 -0.5544  0.7037 -2.4851
12454TIP3    H258778   1.083   5.807  14.709  1.1869 -0.6127 -2.3088
12455TIP3   OH258779   4.481   5.444   1.850  0.0655  0.3098 -0.4388
12455TIP3    H158780   4.527   5.416   1.930 -0.4310 -0.5005 -0.4271
12455TIP3    H258781   4.532   5.518   1.818  2.1870 -1.4403 -1.2070
12456TIP3   OH258782   1.481   2.963   5.397 -0.0580 -0.3435 -0.5736
12456TIP3    H158783   1.510   2.903   5.329  1.0488 -0.1459 -0.2929
12456TIP3    H258784   1.557   2.970   5.456 -0.3548  0.9263 -0.3329
12457TIP3   OH258785   0.516   5.995  13.891 -0.1559  0.0838  0.1294
12457TIP3    H158786   0.492   5.999  13.983  0.9772  0.0917  0.4352
12457TIP3    H258787   0.437   5.964  13.847 -0.4355 -0.7751  1.2139
12458TIP3   OH258788   6.462   3.412  16.067  0.2530  0.0926 -0.4046
12458TIP3    H158789   6.492   3.337  16.119 -0.9473  0.1023  0.3368
12458TIP3    H258790   6.406   3.461  16.128 -0.7503  0.3891 -1.5602
12459TIP3   OH258791   0.771   5.688  13.897 -0.3446  0.0588 -0.7240
12459TIP3    H158792   0.756   5.596  13.876 -0.7225  0.2480 -1.2863
12459TIP3    H258793   0.741   5.736  13.820  0.7948  0.5962 -0.8415
12460TIP3   OH258794   2.981   5.662  12.248  0.0949  0.4838 -0.2963
12460TIP3    H158795   2.984   5.731  12.313  0.9327  1.6751 -1.5607
12460TIP3    H258796   3.071   5.628  12.245 -0.4329 -1.0685  0.7206
12461TIP3   OH258797   6.290   4.756  14.469  0.2481 -0.3737 -0.0537
12461TIP3    H158798   6.382   4.757  14.445 -0.2020 -1.0515 -1.9792
12461TIP3    H258799   6.270   4.663  14.482  0.0125 -0.1651  1.0596
12462TIP3   OH258800   4.171   2.032   0.565 -0.2055  0.7201 -0.1480
12462TIP3    H158801   4.177   2.101   0.499 -4.0331  0.8358 -0.4521
12462TIP3    H258802   4.198   1.953   0.519 -2.7133  0.8218 -1.8518
12463TIP3   OH258803   3.666   2.034  13.536 -0.0404 -0.1366  0.4805
12463TIP3    H158804   3.661   2.003  13.627 -0.4613  1.6578  1.0893
12463TIP3    H258805   3.582   2.078  13.521  0.8311  1.3722 -0.0946
12464TIP3   OH258806   2.637   4.690   5.880 -0.1393 -0.5050 -0.3808
12464TIP3    H158807   2.718   4.740   5.872 -0.9924  0.9856  0.0033
12464TIP3    H258808   2.653   4.628   5.951  0.9483 -0.8128 -0.8909
12465TIP3   OH258809   3.023   3.831  14.302  0.2296 -0.1215  0.1001
12465TIP3    H158810   3.098   3.846  14.244 -0.4043  0.7141 -0.4989
12465TIP3    H258811   3.019   3.909  14.357  0.2479 -0.4944  0.6368
12466TIP3   OH258812   2.665   1.219  12.886  0.5918  0.3508 -1.0886
12466TIP3    H158813   2.761   1.219  12.890  0.6405 -2.5616 -1.4031
12466TIP3    H258814   2.645   1.184  12.799 -0.7538 -0.7707 -0.3412
12467TIP3   OH258815   6.661   2.517  15.971 -0.6784  0.0620 -0.4722
12467TIP3    H158816   6.578   2.514  15.925 -2.0296  1.8989  1.7480
12467TIP3    H258817   6.682   2.425  15.988 -2.9731 -0.3780  0.1550
12468TIP3   OH258818   1.266   0.122  17.005 -0.6930 -0.1350 -0.0792
12468TIP3    H158819   1.298   0.112  16.915  1.0705  2.7196  0.1343
12468TIP3    H258820   1.276   0.036  17.044  1.3544 -0.7214 -1.7754
12469TIP3   OH258821   3.936   1.069  11.802 -0.2660  0.0932  0.3320
12469TIP3    H158822   3.989   1.071  11.723 -1.5669  1.9684 -0.5494
12469TIP3    H258823   3.976   1.002  11.857  2.4060  0.7905 -0.6909
12470TIP3   OH258824   6.719   3.312  13.422 -0.7695 -0.2522 -0.4653
12470TIP3    H158825   6.641   3.263  13.449  0.3403 -2.6895 -1.5178
12470TIP3    H258826   6.753   3.263  13.347  0.9263  1.6358 -0.9690
12471TIP3   OH258827   2.688   1.787   0.564 -0.2630 -0.3306 -0.0130
12471TIP3    H158828   2.687   1.691   0.567 -2.4078 -0.4116 -2.0810
12471TIP3    H258829   2.678   1.809   0.471 -0.8982  1.9110  0.5449
12472TIP3   OH258830   3.296   0.616   1.500 -0.0365 -0.1716 -0.4123
12472TIP3    H158831   3.347   0.683   1.455  1.0155 -1.0990 -0.6158
12472TIP3    H258832   3.343   0.600   1.581 -0.3142 -0.6171 -0.3386
12473TIP3   OH258833   5.428   0.279   3.743 -0.3696  0.6702 -0.3797
12473TIP3    H158834   5.467   0.312   3.662  1.3167  0.4341  0.2946
12473TIP3    H258835   5.503   0.266   3.801 -1.2667 -1.6595  0.3238
12474TIP3   OH258836   1.332   2.568  11.407 -0.0420 -0.7389 -0.1036
12474TIP3    H158837   1.381   2.588  11.327  0.5233 -0.0717  0.4025
12474TIP3    H258838   1.296   2.652  11.436 -1.2789 -1.1799 -0.3213
12475TIP3   OH258839   0.049   3.220   4.922  0.2435  0.2944  0.0805
12475TIP3    H158840   0.068   3.304   4.963 -0.5564 -0.3118  1.7388
12475TIP3    H258841  -0.016   3.179   4.980  0.6312 -1.4663 -0.7008
12476TIP3   OH258842   3.480   2.098  14.335  0.7291 -0.3125 -0.7089
12476TIP3    H158843   3.424   2.028  14.301  2.3141 -2.2666  0.6599
12476TIP3    H258844   3.470   2.094  14.430  1.8717  0.4470 -0.5425
12477TIP3   OH258845   3.341   1.085  11.464 -0.3283  0.2133 -0.2167
12477TIP3    H158846   3.315   1.148  11.397 -1.1598 -0.7188 -0.7774
12477TIP3    H258847   3.400   1.024  11.419 -1.4724 -0.8550 -0.3110
12478TIP3   OH258848   2.362   4.423  13.821 -0.4152  0.4027 -0.7196
12478TIP3    H158849   2.267   4.436  13.817 -0.4628  0.1925 -0.2726
12478TIP3    H258850   2.397   4.509  13.845 -0.5148  0.4066 -0.5868
12479TIP3   OH258851   4.434   1.715   3.265  0.2929 -0.2678 -0.3479
12479TIP3    H158852   4.509   1.739   3.320 -0.6696 -0.0309  0.8934
12479TIP3    H258853   4.452   1.755   3.180  0.4339  1.7917  0.6332
12480TIP3   OH258854   6.624   2.005   5.061 -0.6431  0.1909  0.0596
12480TIP3    H158855   6.547   1.984   5.010 -0.1415 -0.4463 -0.4453
12480TIP3    H258856   6.679   1.926   5.056  1.0829  1.4356 -1.5222
12481TIP3   OH258857   3.862   4.883  15.163 -0.3477  0.1814  0.3255
12481TIP3    H158858   3.873   4.958  15.106 -1.5377 -0.2991 -0.5396
12481TIP3    H258859   3.776   4.847  15.141  0.6594 -2.1014 -0.0802
12482TIP3   OH258860   5.665   3.733  13.455  0.0011 -0.1995 -0.4538
12482TIP3    H158861   5.744   3.679  13.450  0.4427 -0.0441  3.1973
12482TIP3    H258862   5.699   3.823  13.462 -0.4369 -0.1676  1.5918
12483TIP3   OH258863   4.622   5.656   0.665  0.0416 -0.2178 -0.2397
12483TIP3    H158864   4.704   5.607   0.671  0.8455  1.1541  0.0915
12483TIP3    H258865   4.569   5.623   0.738  0.4887 -0.7470 -0.1522
12484TIP3   OH258866   5.304   3.106  16.356 -0.6419 -0.2996  0.2534
12484TIP3    H158867   5.348   3.124  16.439 -0.7875 -0.8863  0.4651
12484TIP3    H258868   5.263   3.189  16.331 -0.9830 -0.2382  1.0058
12485TIP3   OH258869   1.467   1.955   2.587 -0.3255  0.7159 -0.1217
12485TIP3    H158870   1.482   1.983   2.677 -2.4432 -0.5724  0.6559
12485TIP3    H258871   1.475   1.860   2.589  1.7373  0.8055 -1.7566
12486TIP3   OH258872   4.481   2.228  14.609  0.1462 -0.0857 -0.0915
12486TIP3    H158873   4.559   2.281  14.625 -0.5659  0.3327  2.2826
12486TIP3    H258874   4.440   2.219  14.696 -1.6233 -1.5693 -1.0384
12487TIP3   OH258875   3.746   2.181  16.956  0.5361 -0.5274 -0.2452
12487TIP3    H158876   3.823   2.237  16.966  0.1043 -0.1826  1.3512
12487TIP3    H258877   3.677   2.226  17.005 -0.3507 -1.4509 -0.6228
12488TIP3   OH258878   5.126   4.595   6.656  0.4684  0.4547  0.5364
12488TIP3    H158879   5.146   4.510   6.694  0.2786  0.4959  0.7260
12488TIP3    H258880   5.210   4.641   6.654  1.0156 -0.5498 -1.5945
12489TIP3   OH258881   1.645   0.719   4.578 -0.4581  0.1558  0.6275
12489TIP3    H158882   1.708   0.771   4.627 -0.6686 -0.2293  1.3151
12489TIP3    H258883   1.639   0.762   4.493  0.2021  0.6006  0.8049
12490TIP3   OH258884   2.198   0.888   0.247 -0.1091 -0.3434  0.7616
12490TIP3    H158885   2.289   0.869   0.226  0.1948  0.7977  1.0264
12490TIP3    H258886   2.197   0.903   0.342 -0.7020 -1.0435  0.8790
12491TIP3   OH258887   6.581   1.861   3.402 -0.2449  0.4599 -0.1380
12491TIP3    H158888   6.519   1.851   3.329  1.0328  2.7817 -1.6026
12491TIP3    H258889   6.554   1.942   3.446 -0.7887 -0.7365  1.7983
12492TIP3   OH258890   1.361   1.587   1.342  0.2433  0.4628 -0.3317
12492TIP3    H158891   1.339   1.657   1.280  2.3184  1.5132  0.0490
12492TIP3    H258892   1.421   1.629   1.404  1.5779 -1.6683 -0.1312
12493TIP3   OH258893   6.451   0.809   4.077  0.0042  0.0500 -0.2383
12493TIP3    H158894   6.390   0.879   4.053 -1.1088 -0.1298  1.9310
12493TIP3    H258895   6.395   0.738   4.109  1.1829 -1.4243 -1.4177
12494TIP3   OH258896   1.298   5.950  13.105 -0.7390 -0.5159 -0.0614
12494TIP3    H158897   1.258   6.027  13.145 -0.3559 -0.6069  0.5111
12494TIP3    H258898   1.256   5.941  13.020  0.5379  1.4308 -0.9243
12495TIP3   OH258899   4.861   4.427  13.663 -0.4211  0.3578 -0.3055
12495TIP3    H158900   4.882   4.478  13.741  1.4545  1.6797 -1.6394
12495TIP3    H258901   4.803   4.358  13.695 -0.8306  1.6956  2.0090
12496TIP3   OH258902   6.397   5.182   4.799 -0.3567  0.2710 -0.0207
12496TIP3    H158903   6.437   5.095   4.801 -0.3587  0.2755  0.2699
12496TIP3    H258904   6.437   5.228   4.874 -1.6445 -0.0436  0.8673
12497TIP3   OH258905   0.195   4.210   1.436  0.2678 -0.6969 -0.5012
12497TIP3    H158906   0.227   4.293   1.402  0.4320 -0.7771 -0.5405
12497TIP3    H258907   0.119   4.234   1.489  0.0640 -0.5666 -0.8525
12498TIP3   OH258908   1.205   6.420  12.037  0.3688  0.4107 -0.4474
12498TIP3    H158909   1.185   6.329  12.060 -0.8126  0.4387 -1.3091
12498TIP3    H258910   1.199   6.422  11.941  0.7700  1.3079 -0.4543
12499TIP3   OH258911   0.783   4.918   5.446 -0.4184 -0.1696 -0.3446
12499TIP3    H158912   0.806   4.856   5.377  1.9000 -0.4498  0.6264
12499TIP3    H258913   0.799   4.871   5.528 -3.0771  0.1778  0.4088
12500TIP3   OH258914   5.742   3.611   3.134  0.6953 -0.6843  0.2535
12500TIP3    H158915   5.837   3.623   3.137  0.7194 -0.6276 -0.6098
12500TIP3    H258916   5.717   3.596   3.225  1.1424  2.3478  0.9442
12501TIP3   OH258917   0.798   1.466   3.562 -0.1340  0.0548  0.1838
12501TIP3    H158918   0.827   1.482   3.652 -0.5953  0.8476  0.1963
12501TIP3    H258919   0.746   1.386   3.566  1.1120 -0.7603  0.3579
12502TIP3   OH258920   3.760   5.830   1.067 -0.3679  0.4639 -1.3036
12502TIP3    H158921   3.709   5.909   1.052  1.2402  1.7146 -0.3299
12502TIP3    H258922   3.836   5.859   1.116 -1.0163 -2.0836  1.4043
12503TIP3   OH258923   4.447   1.223   3.538  0.3364  0.3503  0.0888
12503TIP3    H158924   4.471   1.245   3.448  1.5571  0.4288  0.4265
12503TIP3    H258925   4.510   1.270   3.592  0.3164 -0.5984  0.9596
12504TIP3   OH258926   5.630   6.164   3.599  1.0419  0.6416  0.6955
12504TIP3    H158927   5.713   6.191   3.636  2.3460 -1.4804 -0.5921
12504TIP3    H258928   5.608   6.083   3.645  1.4139 -0.6353 -1.3134
12505TIP3   OH258929   0.012   6.002  14.761 -0.1911 -0.2695 -0.2131
12505TIP3    H158930   0.058   5.974  14.840  1.1706 -2.6422 -1.7698
12505TIP3    H258931  -0.036   5.924  14.732  0.7159  0.0127 -2.6427
12506TIP3   OH258932   6.695   0.628  16.928 -0.2141 -0.0278  0.2935
12506TIP3    H158933   6.740   0.599  17.007  0.5070  0.8007  0.1817
12506TIP3    H258934   6.701   0.553  16.869  0.8406  0.0072  0.3523
12507TIP3   OH258935   5.397   3.904   2.723 -0.3340  1.0804 -0.5211
12507TIP3    H158936   5.354   3.970   2.778 -3.0520 -1.6496  0.7459
12507TIP3    H258937   5.445   3.849   2.784 -0.5821  0.0439 -1.2500
12508TIP3   OH258938   1.542   6.257  11.452 -0.4114 -0.3957 -0.0406
12508TIP3    H158939   1.469   6.310  11.482 -1.4713 -2.4124  1.0060
12508TIP3    H258940   1.579   6.220  11.532  0.1010 -1.4942 -0.7857
12509TIP3   OH258941   3.841   2.979   5.706 -0.1995  0.3345  0.3270
12509TIP3    H158942   3.755   3.013   5.731  0.1793  0.9259  0.8365
12509TIP3    H258943   3.839   2.887   5.732 -0.3006  0.6092  1.3040
12510TIP3   OH258944   4.426   5.809   1.742  0.4535 -0.2207 -0.7941
12510TIP3    H158945   4.354   5.754   1.709 -0.6904  0.8666 -0.1449
12510TIP3    H258946   4.402   5.826   1.833  3.8164 -3.6179  0.8550
12511TIP3   OH258947   4.514   1.102  12.389 -0.2774 -0.7161  0.2381
12511TIP3    H158948   4.522   1.007  12.383 -0.3381 -0.7143  0.1114
12511TIP3    H258949   4.507   1.131  12.298  1.2557 -0.4494  0.1980
12512TIP3   OH258950   3.629   2.586  14.958  0.2643 -0.0766 -0.0612
12512TIP3    H158951   3.719   2.599  14.928  0.1918  0.7962  0.1052
12512TIP3    H258952   3.579   2.656  14.916 -0.3292 -0.5158 -0.0972
12513TIP3   OH258953   3.680   3.549  13.418 -0.1013 -0.0869 -0.1155
12513TIP3    H158954   3.695   3.638  13.385  0.4711  0.3116  1.1963
12513TIP3    H258955   3.700   3.554  13.511  1.3863 -1.9432 -0.2970
12514TIP3   OH258956   4.664   4.869  10.643  0.0799 -0.1267  0.0750
12514TIP3    H158957   4.698   4.907  10.562 -1.5735 -0.5955 -0.8585
12514TIP3    H258958   4.732   4.807  10.670 -0.2799 -1.5564 -2.1365
12515TIP3   OH258959   1.504   1.911   0.490 -0.1396  0.5895  0.0183
12515TIP3    H158960   1.471   1.959   0.567 -1.7350 -0.3066 -0.0912
12515TIP3    H258961   1.494   1.819   0.514 -1.0635  0.3055 -1.4373
12516TIP3   OH258962   1.050   1.224   6.297  0.4622  0.3420 -0.2999
12516TIP3    H158963   0.978   1.187   6.348  0.9975  0.7332  0.7600
12516TIP3    H258964   1.012   1.299   6.252 -0.3868 -0.8767 -1.6831
12517TIP3   OH258965   2.018   0.423   0.958 -0.3276 -0.2529 -0.5456
12517TIP3    H158966   2.087   0.372   1.000 -1.4779 -1.5554 -0.2101
12517TIP3    H258967   2.064   0.479   0.895  0.9518 -1.7466 -0.9574
12518TIP3   OH258968   6.024   6.328  14.306 -0.2491  0.1527  0.1390
12518TIP3    H158969   6.066   6.412  14.290  0.1755 -0.1304 -0.2364
12518TIP3    H258970   5.969   6.313  14.230  1.9251 -1.2849 -1.2280
12519TIP3   OH258971   4.416   4.711   3.641  0.0580  0.0079  0.0296
12519TIP3    H158972   4.330   4.732   3.678  0.2800 -2.2257  1.9035
12519TIP3    H258973   4.477   4.763   3.693  0.0068  0.2523 -0.1504
12520TIP3   OH258974   1.960   5.219   4.802 -0.2030  0.1400  0.1179
12520TIP3    H158975   2.033   5.280   4.801  0.7806 -0.9648  2.2764
12520TIP3    H258976   1.997   5.137   4.835 -2.1578 -0.7597  0.1567
12521TIP3   OH258977   4.231   1.426  10.928 -0.2674  0.1510 -0.1521
12521TIP3    H158978   4.180   1.361  10.977 -1.8440  0.4557 -1.3534
12521TIP3    H258979   4.185   1.508  10.942  0.8281  0.7393  0.0696
12522TIP3   OH258980   6.227   1.919   1.435  0.4476  0.6122 -0.0801
12522TIP3    H158981   6.149   1.973   1.448  1.3294  1.9382 -0.1889
12522TIP3    H258982   6.192   1.832   1.417 -1.0232  1.2505 -0.4604
12523TIP3   OH258983   2.284   6.100  11.098  0.0440 -0.1309 -0.3601
12523TIP3    H158984   2.261   6.031  11.036  1.1135  0.7713 -1.7712
12523TIP3    H258985   2.333   6.164  11.047 -0.0992  1.2218  1.1483
12524TIP3   OH258986   2.684   5.408   4.607 -0.5596 -0.2242  0.1197
12524TIP3    H158987   2.663   5.315   4.602  2.0695 -0.7415 -4.0315
12524TIP3    H258988   2.628   5.449   4.542 -0.9047  0.9715  1.1414
12525TIP3   OH258989   5.024   3.270  12.962 -0.0002 -0.0565 -0.4368
12525TIP3    H158990   4.989   3.193  13.007  0.7837 -0.7469 -1.0085
12525TIP3    H258991   5.119   3.262  12.971  0.0452  1.6987  0.9283
12526TIP3   OH258992   0.941   0.698  16.956  0.1980  0.0248 -0.4862
12526TIP3    H158993   0.910   0.738  17.037 -1.8276 -0.6485 -0.9040
12526TIP3    H258994   1.005   0.633  16.984 -0.9629 -0.6588  0.6264
12527TIP3   OH258995   5.676   4.844  13.219 -0.3284  0.3078  0.0283
12527TIP3    H158996   5.659   4.789  13.142  1.3407 -0.2899  0.0769
12527TIP3    H258997   5.605   4.822  13.280  1.0599 -2.8388  0.6088
12528TIP3   OH258998   3.601   1.116  12.540  0.2528 -0.3103  0.1695
12528TIP3    H158999   3.661   1.186  12.513 -0.4224 -0.2418 -1.1974
12528TIP3    H259000   3.571   1.142  12.627  1.7311 -0.0376  0.6160
12529TIP3   OH259001   0.634   0.207   1.589  0.0049  0.0011  0.4186
12529TIP3    H159002   0.628   0.112   1.603 -1.1005  0.0308  0.2312
12529TIP3    H259003   0.680   0.216   1.506 -1.7412 -0.4454 -0.6294
12530TIP3   OH259004   6.665   4.868  13.253  0.6042 -0.2084  0.0023
12530TIP3    H159005   6.585   4.874  13.200  0.2300 -0.5705  0.5327
12530TIP3    H259006   6.725   4.929  13.210  0.2048 -0.2782 -0.6738
12531TIP3   OH259007   1.122   0.053   1.930  0.2943  0.0182  0.2970
12531TIP3    H159008   1.064  -0.012   1.970 -0.6345  0.4264 -0.3608
12531TIP3    H259009   1.143   0.114   2.000 -1.2529  0.6806  0.1856
12532TIP3   OH259010   4.543   2.529   1.082  0.5539  0.0420 -0.2431
12532TIP3    H159011   4.611   2.575   1.131 -1.0111  0.6049  1.4306
12532TIP3    H259012   4.535   2.444   1.127  0.1229 -0.0089 -0.4167
12533TIP3   OH259013   5.281   4.321  12.180  0.1513  0.1657  0.4415
12533TIP3    H159014   5.287   4.416  12.179  0.2501  0.1510 -1.1000
12533TIP3    H259015   5.331   4.294  12.258  0.6001  1.3307  0.5586
12534TIP3   OH259016   2.115   0.168   5.407  0.1188  0.2856 -0.3623
12534TIP3    H159017   2.096   0.221   5.329  1.2016  0.6704 -0.3782
12534TIP3    H259018   2.156   0.089   5.372 -0.5556 -0.1073 -0.2674
12535TIP3   OH259019   1.713   2.458   1.118 -0.0790  0.9600  0.0304
12535TIP3    H159020   1.767   2.439   1.195  0.6529  1.7660 -0.2686
12535TIP3    H259021   1.654   2.384   1.111  0.0206  0.7580  1.2261
12536TIP3   OH259022   1.857   0.879  15.965 -0.2832 -0.3677 -0.7018
12536TIP3    H159023   1.865   0.896  16.059 -4.4598 -2.0115  0.0997
12536TIP3    H259024   1.925   0.815  15.946  1.1376  0.6039  1.0399
12537TIP3   OH259025   2.358   0.397  11.216 -0.1642 -0.8933  0.0111
12537TIP3    H159026   2.266   0.395  11.241 -0.7539 -0.1020 -2.0092
12537TIP3    H259027   2.401   0.448  11.285 -1.4011 -0.4835  0.4793
12538TIP3   OH259028   2.930   5.840  13.727 -0.2028  0.2883  0.1244
12538TIP3    H159029   2.990   5.914  13.734 -1.1605  0.8428  3.3401
12538TIP3    H259030   2.892   5.849  13.640  0.6246  2.8609 -0.0297
12539TIP3   OH259031   0.234   1.451   2.405 -0.0260  0.6821 -0.1257
12539TIP3    H159032   0.323   1.463   2.439 -0.7628  1.4014  1.6206
12539TIP3    H259033   0.237   1.487   2.317  1.6815 -0.2779 -0.5001
12540TIP3   OH259034   1.112   4.458  15.472  0.1016  0.1975 -0.7534
12540TIP3    H159035   1.189   4.501  15.434 -0.9917  2.4324 -0.5568
12540TIP3    H259036   1.080   4.521  15.537 -0.2317 -1.9580  1.1997
12541TIP3   OH259037   2.852   1.205  13.420  0.2226 -0.5323 -0.0384
12541TIP3    H159038   2.931   1.258  13.415 -0.0803  0.0556  1.2323
12541TIP3    H259039   2.810   1.217  13.336  0.5963  0.5687 -0.0787
12542TIP3   OH259040   1.732   2.970  16.064  0.6798 -0.2030 -0.0534
12542TIP3    H159041   1.669   3.043  16.059  1.1919  0.2782  0.3786
12542TIP3    H259042   1.815   3.008  16.036  0.9005 -0.6875 -0.0566
12543TIP3   OH259043   5.616   6.108  15.168 -0.0784  0.3935 -0.0770
12543TIP3    H159044   5.587   6.116  15.258 -0.1668 -0.8327  0.0127
12543TIP3    H259045   5.644   6.017  15.160 -0.0216  0.5069 -1.2683
12544TIP3   OH259046   3.321   4.946   2.530 -0.7109  0.2072  1.2948
12544TIP3    H159047   3.256   5.002   2.488  0.8201  0.4044 -0.8758
12544TIP3    H259048   3.320   4.865   2.478  3.4066  1.6125 -1.1712
12545TIP3   OH259049   1.712   5.711   0.935 -0.0220  0.0578  0.1879
12545TIP3    H159050   1.725   5.761   1.015 -0.6666 -1.4129  1.2331
12545TIP3    H259051   1.660   5.769   0.879  0.5482  1.1460  0.7647
12546TIP3   OH259052   0.562   4.502   1.064 -0.1573 -0.0722  0.3183
12546TIP3    H159053   0.521   4.586   1.044 -0.8952 -0.7548 -1.1527
12546TIP3    H259054   0.601   4.475   0.980 -0.4330 -1.4692  0.6409
12547TIP3   OH259055   3.756   5.160  10.374 -0.4265 -0.2686 -0.2815
12547TIP3    H159056   3.664   5.136  10.364 -0.5727  0.0977  0.1884
12547TIP3    H259057   3.786   5.178  10.285 -0.5534 -1.3088 -0.5393
12548TIP3   OH259058   3.626   3.379  14.611 -0.5401  0.1415 -0.1743
12548TIP3    H159059   3.534   3.399  14.592 -0.4754  1.7253  1.0683
12548TIP3    H259060   3.643   3.422  14.695  0.4630 -2.7906  1.1991
12549TIP3   OH259061   5.684   5.525   1.698  0.1026  0.3365  0.7278
12549TIP3    H159062   5.595   5.492   1.686 -0.2134 -0.1652  3.8073
12549TIP3    H259063   5.672   5.619   1.714  0.2255  0.4428  0.2039
12550TIP3   OH259064   5.340   5.949   1.767 -0.8253  0.4228  0.1884
12550TIP3    H159065   5.273   5.988   1.822  0.0625  1.8251  0.3171
12550TIP3    H259066   5.422   5.986   1.800 -0.1720  0.2783 -1.2280
12551TIP3   OH259067   6.299   6.656  13.054  0.0502 -0.5581  0.1889
12551TIP3    H159068   6.219   6.626  13.096  1.1628  0.6245  3.2547
12551TIP3    H259069   6.322   6.737  13.100  1.3040  0.8567 -2.7501
12552TIP3   OH259070   2.821   0.314  12.725 -0.0011 -0.2638  0.2890
12552TIP3    H159071   2.861   0.400  12.718 -1.3409  0.3051 -0.6876
12552TIP3    H259072   2.834   0.275  12.638  1.2176 -1.3215  0.9442
12553TIP3   OH259073   1.189   4.935  12.359 -0.1105  0.4399 -0.0906
12553TIP3    H159074   1.270   4.979  12.331 -0.1776  0.3698 -0.3983
12553TIP3    H259075   1.212   4.842  12.359 -0.0967  0.4429  0.1372
12554TIP3   OH259076   0.623   4.064   0.985  0.1122  0.8213 -0.2111
12554TIP3    H159077   0.638   4.116   0.906  0.7264 -0.4239 -0.9400
12554TIP3    H259078   0.710   4.029   1.007 -0.2974  0.0565  0.2134
12555TIP3   OH259079   5.955   0.215  14.459 -0.0645  0.3840 -0.2968
12555TIP3    H159080   5.975   0.246  14.370  0.6343  0.9030  0.0274
12555TIP3    H259081   6.036   0.233  14.508 -0.1706 -0.6397  0.2480
12556TIP3   OH259082   0.631   6.774   2.615 -0.5429 -0.4170  0.3372
12556TIP3    H159083   0.678   6.839   2.669 -1.1226  1.5553 -1.4502
12556TIP3    H259084   0.687   6.697   2.617  0.3007  0.2046  2.3358
12557TIP3   OH259085   2.714   2.304   1.042 -0.2347  0.0857  0.8068
12557TIP3    H159086   2.619   2.314   1.043 -0.1133  1.8663 -1.1298
12557TIP3    H259087   2.740   2.308   1.134 -2.0029 -0.0189  1.3242
12558TIP3   OH259088   2.226   6.704  16.165  0.1685  0.5710  0.4947
12558TIP3    H159089   2.192   6.701  16.075  0.5721 -2.7995  0.3700
12558TIP3    H259090   2.157   6.745  16.216 -2.0070 -1.6008 -0.6148
12559TIP3   OH259091   6.348   2.751  12.793  0.5602 -0.4703  0.0847
12559TIP3    H159092   6.325   2.798  12.713 -2.3618 -0.9289  0.5880
12559TIP3    H259093   6.397   2.675  12.764  3.4829  1.6911 -0.9045
12560TIP3   OH259094   3.098   0.064   1.368  0.0211 -0.7170  0.2606
12560TIP3    H159095   3.030   0.089   1.431  2.3345 -1.6730  3.2337
12560TIP3    H259096   3.062  -0.013   1.323 -0.2494 -2.2169  2.9418
12561TIP3   OH259097   3.610   5.680   4.921 -0.5499 -0.0786  0.0897
12561TIP3    H159098   3.643   5.594   4.946 -0.5935 -0.3116 -0.6513
12561TIP3    H259099   3.613   5.681   4.825  0.5656  1.1734  0.1188
12562TIP3   OH259100   2.600   4.836  11.961 -0.4262  0.2522  0.0647
12562TIP3    H159101   2.665   4.906  11.965 -1.1825  0.9708 -0.1383
12562TIP3    H259102   2.626   4.775  12.030  1.7623 -0.5946 -1.4521
12563TIP3   OH259103   0.799   2.258  12.375  0.1664  0.3510  0.5217
12563TIP3    H159104   0.857   2.326  12.408  0.7745  0.8584 -1.5333
12563TIP3    H259105   0.856   2.201  12.323 -0.1325 -2.3307  3.0249
12564TIP3   OH259106   5.541   6.383  16.785  0.0341 -0.5446  0.2032
12564TIP3    H159107   5.630   6.361  16.756 -0.3166 -3.4985  1.2287
12564TIP3    H259108   5.548   6.387  16.880 -1.2682 -2.6361  0.4242
12565TIP3   OH259109   1.028   0.040   0.000 -0.4246 -0.2790 -0.4753
12565TIP3    H159110   1.065   0.016  -0.085 -1.5729 -0.2893 -0.9742
12565TIP3    H259111   1.045   0.134   0.008 -2.3915  0.2097 -1.7757
12566TIP3   OH259112   3.701   1.653   0.933  0.2684 -0.4919 -0.9465
12566TIP3    H159113   3.625   1.674   0.878 -0.3041  0.6466  0.2543
12566TIP3    H259114   3.765   1.721   0.911  0.4299 -0.6477 -0.9580
12567TIP3   OH259115   1.391   5.230   4.109  0.2698  0.0884  0.2001
12567TIP3    H159116   1.448   5.157   4.132  0.6515  0.4529  0.4136
12567TIP3    H259117   1.339   5.247   4.187  0.1660  0.0302  0.1437
12568TIP3   OH259118   0.132   4.446  11.750  0.2697  0.3746  0.1643
12568TIP3    H159119   0.078   4.523  11.767  1.9915  1.6645 -0.1082
12568TIP3    H259120   0.155   4.413  11.837 -0.8075 -0.0829  0.2793
12569TIP3   OH259121   1.065   6.008   1.484  0.5344 -0.7493 -0.5483
12569TIP3    H159122   1.007   5.933   1.468 -0.8377 -0.0205  0.8768
12569TIP3    H259123   1.017   6.082   1.448  0.2864 -0.0386  1.2229
12570TIP3   OH259124   1.972   0.258   1.421 -0.2112 -0.5232  0.3207
12570TIP3    H159125   2.053   0.298   1.389  0.0048 -1.5528 -0.4238
12570TIP3    H259126   1.909   0.330   1.419  0.6909  0.3024  0.9699
12571TIP3   OH259127   5.215   2.679   4.152  0.2164  0.0418  0.2468
12571TIP3    H159128   5.154   2.611   4.178  0.4852  0.6105  2.4324
12571TIP3    H259129   5.234   2.661   4.060 -0.6619 -2.0894  0.4759
12572TIP3   OH259130   4.167   6.483  10.210  0.3533  0.1020 -0.3083
12572TIP3    H159131   4.155   6.444  10.296  0.2625  1.9791  0.5649
12572TIP3    H259132   4.245   6.538  10.219  0.8586 -0.3730 -1.6739
12573TIP3   OH259133   2.974   2.453   4.770  0.7742  0.0725  0.6779
12573TIP3    H159134   2.941   2.539   4.798 -1.3252 -0.5290  0.1837
12573TIP3    H259135   2.937   2.391   4.833 -0.7429 -0.8424 -1.0257
12574TIP3   OH259136   1.968   5.873   6.058  0.2838 -0.2350  0.3741
12574TIP3    H159137   1.974   5.968   6.067 -0.1225 -0.1713  0.0054
12574TIP3    H259138   1.923   5.844   6.137  0.1258 -0.0848  0.3408
12575TIP3   OH259139   2.852   2.254   2.352 -0.0653 -0.7107  0.4385
12575TIP3    H159140   2.904   2.184   2.390 -1.9621 -1.9368  0.8640
12575TIP3    H259141   2.801   2.288   2.426  0.7236  1.0263  0.2050
12576TIP3   OH259142   0.448   1.563   5.091 -0.4502 -0.7582  0.3206
12576TIP3    H159143   0.465   1.551   4.997 -0.1164 -1.5197  0.4730
12576TIP3    H259144   0.534   1.582   5.128 -0.3640 -1.7705  0.6640
12577TIP3   OH259145   5.403   1.060  11.076  0.2368 -0.1085 -0.1064
12577TIP3    H159146   5.340   1.013  11.021  0.0238 -0.1710  0.1863
12577TIP3    H259147   5.451   1.116  11.015 -1.1223  1.0556 -0.1443
12578TIP3   OH259148   1.632   4.054   1.842  0.4794  0.2392 -0.5651
12578TIP3    H159149   1.639   4.016   1.754  1.8851 -0.1787 -0.2798
12578TIP3    H259150   1.722   4.055   1.875 -0.0862  0.0117  1.0280
12579TIP3   OH259151   1.771   0.232   1.889 -0.1865  0.7484 -0.1195
12579TIP3    H159152   1.731   0.266   1.809  0.7847  1.0712 -0.4744
12579TIP3    H259153   1.836   0.298   1.913  0.5968 -0.0906  0.0871
12580TIP3   OH259154   3.788   0.964  15.482  0.4029  0.6270  0.5347
12580TIP3    H159155   3.718   0.977  15.418  1.0249 -0.7435 -0.4574
12580TIP3    H259156   3.800   1.050  15.522 -1.2403  1.0791  0.1020
12581TIP3   OH259157   0.244   1.206  11.558 -0.4269  0.1968 -0.5402
12581TIP3    H159158   0.219   1.115  11.544 -2.7066  0.8560 -0.9663
12581TIP3    H259159   0.189   1.256  11.498  0.2292  1.9174  0.2536
12582TIP3   OH259160   3.567   2.983   0.851 -0.5568 -0.2078  0.2461
12582TIP3    H159161   3.539   3.032   0.773 -0.1511 -0.1969  0.1110
12582TIP3    H259162   3.657   2.958   0.833 -0.2955  0.2333  0.9326
12583TIP3   OH259163   2.403   4.881   6.406  0.2220  0.2157  0.1214
12583TIP3    H159164   2.422   4.949   6.471  0.2727 -2.0413  2.5337
12583TIP3    H259165   2.312   4.897   6.381  0.6344  1.9545 -0.2987
12584TIP3   OH259166   4.858   1.700  10.464 -0.1438 -0.0531 -0.9378
12584TIP3    H159167   4.947   1.700  10.499  0.0283  0.2271 -1.3626
12584TIP3    H259168   4.808   1.645  10.524  0.1329  0.4530 -0.2278
12585TIP3   OH259169   3.560   0.433   5.553 -0.0720 -0.2091 -0.1989
12585TIP3    H159170   3.560   0.495   5.481 -0.3974 -1.1481 -1.0230
12585TIP3    H259171   3.492   0.370   5.530 -0.3856 -0.3442  1.0779
12586TIP3   OH259172   3.992   6.477  16.226 -0.2810 -0.4875  0.0244
12586TIP3    H159173   3.937   6.539  16.274  0.0349  0.2179 -0.5093
12586TIP3    H259174   4.032   6.423  16.294 -0.3157  0.0952  0.5169
12587TIP3   OH259175   4.227   5.822   4.317 -0.2089  0.3324  0.1664
12587TIP3    H159176   4.233   5.898   4.376  1.6649  0.0797  0.3313
12587TIP3    H259177   4.232   5.860   4.229  2.6077  0.3053  0.2621
12588TIP3   OH259178   3.069   4.366   3.403  0.4058  0.3237 -0.1604
12588TIP3    H159179   3.070   4.341   3.311  1.5758 -0.7909  0.1462
12588TIP3    H259180   3.112   4.452   3.405  2.1577 -0.5200 -0.4261
12589TIP3   OH259181   6.634   0.685  16.332 -0.2508  0.3092 -0.2381
12589TIP3    H159182   6.698   0.651  16.394  1.5870 -0.9080 -2.7083
12589TIP3    H259183   6.683   0.699  16.251 -3.1542 -1.0192 -2.3362
12590TIP3   OH259184   6.732   2.328  14.718  0.3382 -0.2543 -0.4181
12590TIP3    H159185   6.746   2.241  14.755  0.0516  0.2278  0.8530
12590TIP3    H259186   6.811   2.345  14.667  0.1561 -1.4853 -1.1200
12591TIP3   OH259187   1.237   6.758  16.189 -0.0777  0.0452 -0.2191
12591TIP3    H159188   1.164   6.807  16.153  0.8822  1.7843  0.1268
12591TIP3    H259189   1.198   6.678  16.223 -1.6106  0.3336 -1.2410
12592TIP3   OH259190   3.392   4.002   2.247  0.0637  0.3176  0.3203
12592TIP3    H159191   3.315   4.039   2.290  0.0642  0.2445  0.3836
12592TIP3    H259192   3.464   4.060   2.272 -0.1755  1.0761 -0.6980
12593TIP3   OH259193   2.901   1.357  16.049  0.1005 -0.4095 -0.4960
12593TIP3    H159194   2.870   1.402  16.127 -1.4163 -2.4017  0.0966
12593TIP3    H259195   2.854   1.398  15.977  0.9410  0.9254 -0.3010
12594TIP3   OH259196   3.313   0.616   4.036  0.3821 -0.1679 -0.1065
12594TIP3    H159197   3.332   0.621   3.942  1.6523  0.5199  0.1770
12594TIP3    H259198   3.245   0.682   4.050  0.6525  0.1789 -0.4257
12595TIP3   OH259199   1.244   5.541  17.209  0.2918 -0.2623 -0.1027
12595TIP3    H159200   1.176   5.487  17.250  0.3594 -0.6738 -0.5212
12595TIP3    H259201   1.263   5.496  17.126 -0.4417  1.0014 -0.9773
12596TIP3   OH259202   1.154   4.791  15.647  0.4444  0.1076  0.8011
12596TIP3    H159203   1.216   4.829  15.709  0.5299  0.0975  0.7200
12596TIP3    H259204   1.208   4.748  15.581  0.3860  1.5277 -0.1804
12597TIP3   OH259205   4.886   6.304  14.611  0.4603  0.1658  0.0304
12597TIP3    H159206   4.826   6.378  14.613 -0.9950 -0.9473 -1.0812
12597TIP3    H259207   4.926   6.302  14.698 -1.2148  0.8457  0.8231
12598TIP3   OH259208   5.906   5.525  12.768  0.2013  0.2380 -0.4089
12598TIP3    H159209   5.836   5.588  12.783  0.4791  0.7977 -1.3710
12598TIP3    H259210   5.980   5.559  12.818  0.4688  0.9097 -1.2359
12599TIP3   OH259211   2.238   3.578   2.996  0.0210  0.2499 -0.4460
12599TIP3    H159212   2.291   3.656   2.980  0.6862  0.2889  1.8270
12599TIP3    H259213   2.295   3.504   2.973  0.6147  0.3313  0.7600
12600TIP3   OH259214   3.778   3.827   5.778  0.2019  0.7762  0.5014
12600TIP3    H159215   3.818   3.789   5.700  2.6848 -0.1073  2.1084
12600TIP3    H259216   3.761   3.918   5.755  1.4757  0.6910 -0.8723
12601TIP3   OH259217   0.543   4.775  15.066  0.3417  0.3986 -0.6263
12601TIP3    H159218   0.563   4.686  15.037 -1.1823 -0.3119  0.4364
12601TIP3    H259219   0.511   4.819  14.988  2.9041  0.6229 -1.6140
12602TIP3   OH259220   4.312   4.884  13.223  0.2400 -0.3344  0.0427
12602TIP3    H159221   4.372   4.809  13.220 -0.1015 -0.5605 -1.3108
12602TIP3    H259222   4.225   4.844  13.224  0.0850  0.0094  1.3622
12603TIP3   OH259223   0.790   3.305  13.305 -0.5694  0.0491 -0.6900
12603TIP3    H159224   0.799   3.266  13.218  1.0347 -0.2616 -0.4062
12603TIP3    H259225   0.857   3.261  13.358 -0.7855  1.0229  0.4125
12604TIP3   OH259226   3.059   3.658  11.814 -0.0168 -0.0180 -0.0461
12604TIP3    H159227   3.034   3.653  11.722  0.1783 -0.6342 -0.0652
12604TIP3    H259228   3.101   3.743  11.822 -0.9850  0.4899 -0.2905
12605TIP3   OH259229   6.190   2.725   3.541 -0.0532 -0.3455  0.4779
12605TIP3    H159230   6.107   2.728   3.493  0.8163 -1.7328 -1.1505
12605TIP3    H259231   6.252   2.686   3.480  2.3138  2.4510  1.0096
12606TIP3   OH259232   0.348   5.321  13.134  0.0418 -0.0617 -0.0540
12606TIP3    H159233   0.313   5.234  13.116 -0.0361  0.0215 -0.2980
12606TIP3    H259234   0.283   5.362  13.191  0.5897 -0.5561  0.9456
12607TIP3   OH259235   0.988   4.297  16.824 -0.3502 -0.3432  1.1701
12607TIP3    H159236   1.007   4.316  16.915 -1.1143 -1.2025  1.5185
12607TIP3    H259237   0.972   4.202  16.822  1.5755 -0.6758 -0.1934
12608TIP3   OH259238   1.664   0.692  14.989 -0.2761  0.1241  0.0612
12608TIP3    H159239   1.606   0.710  14.915 -0.2941 -0.8990 -0.1834
12608TIP3    H259240   1.659   0.770  15.044  0.5952  1.3898 -1.5854
12609TIP3   OH259241   5.732   3.861  12.660 -0.3021  0.5960 -0.1720
12609TIP3    H159242   5.827   3.859  12.644 -0.3340 -1.7894 -0.1689
12609TIP3    H259243   5.695   3.808  12.591 -1.4544 -0.2449  1.0698
12610TIP3   OH259244   2.510   1.260  15.899 -0.0941  0.3244 -0.3781
12610TIP3    H159245   2.439   1.285  15.840  0.2956  0.7289 -0.6780
12610TIP3    H259246   2.468   1.251  15.985  0.0056  3.4121  0.0261
12611TIP3   OH259247   0.799   6.379   4.585  0.2715 -0.3790  0.2342
12611TIP3    H159248   0.890   6.388   4.612  0.4349  0.2680 -0.5303
12611TIP3    H259249   0.801   6.383   4.489 -0.1689 -3.9216  0.0018
12612TIP3   OH259250   0.208   1.076   0.706  0.0566 -0.6018 -0.2357
12612TIP3    H159251   0.244   1.005   0.653  0.5219 -0.2879 -0.3512
12612TIP3    H259252   0.258   1.073   0.787  0.6602  0.1229 -0.5754
12613TIP3   OH259253   2.725   5.518  13.150 -0.2287 -0.1773 -0.3591
12613TIP3    H159254   2.742   5.572  13.073 -1.8219  0.4973 -0.2637
12613TIP3    H259255   2.721   5.429  13.116 -0.1781  0.0421 -0.9407
12614TIP3   OH259256   4.387   3.594  10.978 -0.1760 -0.3071 -0.6664
12614TIP3    H159257   4.326   3.667  10.988  0.0071 -0.5909  3.0724
12614TIP3    H259258   4.474   3.635  10.976 -0.1525 -0.3147  0.0737
12615TIP3   OH259259   0.709   0.530  14.351  0.5614 -0.1547 -0.2735
12615TIP3    H159260   0.659   0.480  14.416  0.2524  0.7704  0.2195
12615TIP3    H259261   0.651   0.534  14.275 -0.1691  0.9820  0.3255
12616TIP3   OH259262   3.097   6.624   6.230 -0.0452 -0.6287  0.1555
12616TIP3    H159263   3.068   6.534   6.218 -0.0980 -0.5760 -0.1130
12616TIP3    H259264   3.031   6.663   6.286 -1.4638 -0.0021 -1.8904
12617TIP3   OH259265   4.840   6.377   1.978 -0.0288  0.2187 -0.2600
12617TIP3    H159266   4.881   6.340   1.900 -0.8461 -0.8213 -0.2130
12617TIP3    H259267   4.777   6.440   1.944 -1.9495 -1.7939 -0.5808
12618TIP3   OH259268   2.979   3.886   1.843  0.0212  0.2542 -0.5609
12618TIP3    H159269   2.910   3.858   1.903  0.4328  1.6880  0.6299
12618TIP3    H259270   3.052   3.911   1.900  1.7196 -1.6674 -1.8161
12619TIP3   OH259271   3.802   4.649  17.168  0.0927 -0.6045 -0.1715
12619TIP3    H159272   3.873   4.632  17.229 -0.6351 -2.4240  0.2097
12619TIP3    H259273   3.740   4.577  17.183 -0.5408 -0.5554 -2.3779
12620TIP3   OH259274   5.121   5.988   4.286 -0.4319  0.4746  0.3895
12620TIP3    H159275   5.159   5.903   4.263 -1.7189 -1.0359  3.4506
12620TIP3    H259276   5.197   6.046   4.297  0.5749 -0.7071 -0.1813
12621TIP3   OH259277   6.153   1.131  14.700  0.1113 -0.3601  0.6551
12621TIP3    H159278   6.213   1.087  14.640  1.9551  1.3418  1.1855
12621TIP3    H259279   6.172   1.092  14.785  0.1015 -0.1679  0.7448
12622TIP3   OH259280   3.448   4.793  14.274  0.3641 -0.1769  0.7065
12622TIP3    H159281   3.404   4.796  14.189  1.2593  1.2526  0.2728
12622TIP3    H259282   3.499   4.712  14.272  0.7186  0.0630 -0.2898
12623TIP3   OH259283   2.854   5.154   4.343  0.1187 -0.3062 -0.0308
12623TIP3    H159284   2.918   5.148   4.413  0.2163 -1.6227 -0.2135
12623TIP3    H259285   2.842   5.064   4.313 -2.3440 -0.1988  0.4724
12624TIP3   OH259286   2.548   3.756   6.430 -0.2921 -0.2999  0.1036
12624TIP3    H159287   2.556   3.843   6.469  0.1928 -0.5148  0.5014
12624TIP3    H259288   2.603   3.700   6.485 -0.1208 -0.7406 -0.5008
12625TIP3   OH259289   0.078   1.585   1.673  0.3787  0.6722  0.2823
12625TIP3    H159290   0.015   1.515   1.658  0.5501  0.5491  0.1264
12625TIP3    H259291   0.111   1.607   1.586  0.1608  1.1007  0.3070
12626TIP3   OH259292   1.107   1.914   4.849 -0.1173 -0.2598  0.2037
12626TIP3    H159293   1.131   1.851   4.917  1.7039  1.1691  0.9357
12626TIP3    H259294   1.025   1.952   4.879 -1.2702 -2.2891 -0.2796
12627TIP3   OH259295   3.408   5.731   4.088 -0.8339 -0.1035 -0.1284
12627TIP3    H159296   3.470   5.730   4.160 -1.3507 -1.0383  0.3135
12627TIP3    H259297   3.463   5.723   4.009 -0.3482 -0.2503  0.2216
12628TIP3   OH259298   3.274   3.192   4.673 -0.2327 -0.0478  0.0907
12628TIP3    H159299   3.321   3.179   4.590 -0.3130 -0.0036  0.0384
12628TIP3    H259300   3.212   3.119   4.676 -0.4332  0.1188 -0.0280
12629TIP3   OH259301   4.284   2.295   1.063  0.2740  0.4103  0.3034
12629TIP3    H159302   4.202   2.247   1.074 -0.8348  2.1458 -0.2998
12629TIP3    H259303   4.278   2.334   0.975  1.1374  1.7168  0.8096
12630TIP3   OH259304   5.933   6.072  11.051  0.5565 -0.1951 -0.9083
12630TIP3    H159305   5.919   6.129  10.975 -1.7905 -0.0405 -0.3966
12630TIP3    H259306   5.989   6.123  11.110 -1.9012  1.8256 -0.2388
12631TIP3   OH259307   5.589   3.368  14.601 -0.0769 -0.5385  0.3913
12631TIP3    H159308   5.623   3.281  14.619  0.6422 -0.6869 -1.5945
12631TIP3    H259309   5.643   3.402  14.530 -0.6201  1.3626  0.8324
12632TIP3   OH259310   0.393   2.873   0.657  0.2918  0.7321  0.0806
12632TIP3    H159311   0.328   2.825   0.710 -0.6253  0.3201 -1.4006
12632TIP3    H259312   0.431   2.936   0.718  0.4989 -0.9059  1.7043
12633TIP3   OH259313   3.428   1.318   2.912 -0.1159  0.2088 -0.4847
12633TIP3    H159314   3.399   1.322   2.821  1.0791 -0.2101 -0.8929
12633TIP3    H259315   3.372   1.381   2.957 -0.5229  0.6461 -1.5654
12634TIP3   OH259316   5.678   1.007  14.212  0.0931 -0.1853  0.7606
12634TIP3    H159317   5.749   0.967  14.262  0.6632  0.9947  0.9134
12634TIP3    H259318   5.611   0.939  14.206 -0.0768 -0.2871  3.3086
12635TIP3   OH259319   4.834   5.460   0.331  0.9922  0.3110 -0.1619
12635TIP3    H159320   4.782   5.527   0.286  0.0693 -0.5622 -0.4410
12635TIP3    H259321   4.868   5.405   0.260 -0.6968 -1.2356  0.1814
12636TIP3   OH259322   4.903   1.101  14.721 -0.0698 -0.8932  0.0593
12636TIP3    H159323   4.857   1.172  14.766  1.2472 -0.9450  1.5337
12636TIP3    H259324   4.976   1.144  14.676 -1.2312 -0.8764 -1.8897
12637TIP3   OH259325   4.469   1.408   3.309  0.0416 -0.4385 -0.1797
12637TIP3    H159326   4.468   1.503   3.321  1.2791 -0.4188 -0.1293
12637TIP3    H259327   4.415   1.393   3.232  0.0936  0.3400 -0.3785
12638TIP3   OH259328   2.126   4.077   4.942 -0.6826  0.7703  0.5467
12638TIP3    H159329   2.147   3.985   4.927  1.4398  1.3905 -0.3842
12638TIP3    H259330   2.034   4.085   4.917 -0.4049 -0.7289 -1.0500
12639TIP3   OH259331   3.346   3.369  12.051 -0.3599 -0.0187 -0.3123
12639TIP3    H159332   3.280   3.348  11.985  0.3239 -1.2660 -0.6116
12639TIP3    H259333   3.307   3.440  12.103 -2.1378 -1.0770 -0.1729
12640TIP3   OH259334   4.627   4.020  11.409 -0.6215  0.7304  0.7630
12640TIP3    H159335   4.611   3.928  11.434 -1.8837  0.5754 -0.5447
12640TIP3    H259336   4.686   4.053  11.477  0.9031 -1.4119  0.5500
12641TIP3   OH259337   0.886   1.883  14.482  0.2573 -0.2140  0.2637
12641TIP3    H159338   0.929   1.813  14.433  1.5682  0.9036 -0.2274
12641TIP3    H259339   0.949   1.907  14.550 -0.7954 -0.5145  1.3588
12642TIP3   OH259340   0.060   4.901   5.683  0.3713 -0.2135  0.2275
12642TIP3    H159341   0.045   4.870   5.773  1.6200 -1.9769 -0.1449
12642TIP3    H259342   0.018   4.835   5.628  0.4778  0.3241 -0.5000
12643TIP3   OH259343   4.169   2.988  11.224  0.6480 -0.5066  0.0318
12643TIP3    H159344   4.240   2.956  11.168  2.3176 -2.7070  3.2260
12643TIP3    H259345   4.103   2.919  11.222 -0.2708  0.3741 -0.8694
12644TIP3   OH259346   5.971   4.644  15.177  0.3329  0.0705 -0.3168
12644TIP3    H159347   5.909   4.576  15.153  1.6742 -0.7958 -1.4118
12644TIP3    H259348   5.946   4.719  15.124 -0.4341  0.0863  0.0520
12645TIP3   OH259349   0.149   1.942   0.578  0.0704  0.6804  0.0822
12645TIP3    H159350   0.189   1.992   0.649 -1.0584  1.9113 -0.1326
12645TIP3    H259351   0.153   2.000   0.502  1.9633 -0.9072 -1.0835
12646TIP3   OH259352   0.922   2.710   4.801  0.0169  0.3427  0.0305
12646TIP3    H159353   0.854   2.649   4.828 -0.8298  1.0313 -0.5021
12646TIP3    H259354   0.875   2.778   4.752  0.8406  1.7654  1.1630
12647TIP3   OH259355   5.734   0.705   0.223 -0.3052  0.6438 -0.6783
12647TIP3    H159356   5.770   0.788   0.191  0.3666  0.5324 -0.2195
12647TIP3    H259357   5.662   0.686   0.163  1.2390  0.2106 -2.4470
12648TIP3   OH259358   2.703   3.247  15.687  0.1564  0.2105  0.1737
12648TIP3    H159359   2.734   3.235  15.598 -0.9130 -0.6087 -0.0941
12648TIP3    H259360   2.768   3.203  15.742 -0.5672 -1.6032 -0.3901
12649TIP3   OH259361   5.936   4.563   2.029 -0.2967 -0.3800 -0.2272
12649TIP3    H159362   5.913   4.492   2.089 -2.1206  0.4541  0.0786
12649TIP3    H259363   6.029   4.579   2.046 -0.4778 -1.0133  1.4819
12650TIP3   OH259364   1.064   0.245   3.598 -0.4369  0.6792  0.6630
12650TIP3    H159365   1.087   0.288   3.516 -0.2848 -0.2153  0.2317
12650TIP3    H259366   1.016   0.311   3.647  0.4670  1.5998  0.3321
12651TIP3   OH259367   0.011   6.189   1.124  0.7086  0.2206 -0.1011
12651TIP3    H159368   0.069   6.117   1.149 -0.8865 -2.0454 -2.6643
12651TIP3    H259369   0.030   6.204   1.031 -0.4345  1.6979 -0.1077
12652TIP3   OH259370   2.068   3.405  10.991  0.0716  0.2162  0.8505
12652TIP3    H159371   2.163   3.406  10.979 -0.1525  0.2450 -1.0316
12652TIP3    H259372   2.032   3.405  10.902 -1.6827 -1.3296  1.5144
12653TIP3   OH259373   0.666   6.375   4.884  0.1683  0.2708  0.7702
12653TIP3    H159374   0.757   6.345   4.892 -0.5838 -2.6225 -0.9164
12653TIP3    H259375   0.639   6.394   4.974  1.6861 -1.1892  1.5600
12654TIP3   OH259376   3.534   3.181   6.570 -0.0282  0.2091  0.0342
12654TIP3    H159377   3.577   3.097   6.583  0.4611  0.3630 -0.5775
12654TIP3    H259378   3.590   3.244   6.615  0.3245  0.3950 -0.6675
12655TIP3   OH259379   1.340   1.438  10.588 -0.0463  0.1403 -0.7360
12655TIP3    H159380   1.315   1.483  10.669  1.6131  1.6616 -1.0377
12655TIP3    H259381   1.295   1.486  10.519 -0.7917 -0.6338 -0.7874
12656TIP3   OH259382   0.837   3.763  13.839 -0.0467  0.0946 -0.6045
12656TIP3    H159383   0.872   3.674  13.829 -0.4844 -0.1513  0.0096
12656TIP3    H259384   0.746   3.756  13.809 -0.5730 -0.0472  0.9598
12657TIP3   OH259385   5.862   6.059  16.256  0.3797  0.0237 -0.0933
12657TIP3    H159386   5.938   6.063  16.313  1.4484  0.1893 -1.5107
12657TIP3    H259387   5.788   6.044  16.316  1.5384 -0.4059  1.2568
12658TIP3   OH259388   3.499   2.360  16.004  0.6278  0.2902 -0.2437
12658TIP3    H159389   3.533   2.432  16.057  1.6530 -1.1473  1.0908
12658TIP3    H259390   3.536   2.374  15.918  1.1153  1.1517  0.1001
12659TIP3   OH259391   4.277   6.194  11.964 -0.3081  0.6402  0.9550
12659TIP3    H159392   4.219   6.225  11.895 -2.0282 -0.6993  1.7312
12659TIP3    H259393   4.360   6.178  11.921 -1.0790  0.7448 -0.6045
12660TIP3   OH259394   5.043   3.032  13.943  0.0195 -0.0127 -0.6810
12660TIP3    H159395   5.096   3.039  13.863 -0.9689 -2.3462 -1.5979
12660TIP3    H259396   5.092   2.972  13.999  1.2120  2.4025  0.9446
12661TIP3   OH259397   5.304   0.658   1.071  0.0477  0.3850 -0.3923
12661TIP3    H159398   5.310   0.563   1.077  0.4211  0.3689 -0.9761
12661TIP3    H259399   5.393   0.689   1.087  0.0130  0.6064 -0.6180
12662TIP3   OH259400   5.503   2.714   5.308  0.3335  0.0249 -0.6515
12662TIP3    H159401   5.597   2.698   5.316  0.4317  0.8173 -0.2310
12662TIP3    H259402   5.468   2.630   5.277  1.3197  0.0325 -1.8582
12663TIP3   OH259403   0.582   4.268  15.089  0.3203  0.3516 -0.0086
12663TIP3    H159404   0.567   4.358  15.060  0.5668  1.1252  2.1610
12663TIP3    H259405   0.660   4.273  15.144  1.3037 -1.4898 -1.1751
12664TIP3   OH259406   1.779   3.495  13.489 -0.6219  0.1774 -0.7629
12664TIP3    H159407   1.770   3.513  13.395  0.9274 -1.0838 -1.1735
12664TIP3    H259408   1.871   3.513  13.508 -0.7139 -0.4700  0.3150
12665TIP3   OH259409   4.200   0.479  13.066  0.1818 -0.6396 -0.2152
12665TIP3    H159410   4.197   0.424  12.987 -1.3440  1.8493 -1.9521
12665TIP3    H259411   4.109   0.499  13.085  0.6889  0.8838  0.6930
12666TIP3   OH259412   3.710   2.977   5.151 -0.1781 -0.2000  0.1223
12666TIP3    H159413   3.762   2.998   5.073 -0.6249  2.7244  0.5613
12666TIP3    H259414   3.757   3.019   5.223 -1.5834 -0.0205  0.9497
12667TIP3   OH259415   0.692   1.065   3.392  0.1000 -0.5463 -0.4593
12667TIP3    H159416   0.628   1.094   3.328 -0.7135 -1.3704 -0.0189
12667TIP3    H259417   0.713   1.144   3.443  1.0291  0.1965 -1.9512
12668TIP3   OH259418   2.260   1.833  16.226 -0.1763  0.2873 -0.3126
12668TIP3    H159419   2.250   1.747  16.266 -2.9105  1.0587  0.7554
12668TIP3    H259420   2.217   1.825  16.141 -0.4118  0.5983 -0.2211
12669TIP3   OH259421   3.649   3.557   1.407  0.1336 -0.0749  0.0684
12669TIP3    H159422   3.675   3.571   1.316 -1.7852 -0.0045 -0.4972
12669TIP3    H259423   3.728   3.526   1.451  1.3992  1.1259 -1.3340
12670TIP3   OH259424   5.654   1.105  16.367 -0.3129  0.4659  0.7089
12670TIP3    H159425   5.604   1.160  16.427  2.6079  1.9702  1.8854
12670TIP3    H259426   5.715   1.166  16.325  0.1124 -1.1907 -1.1141
12671TIP3   OH259427   2.072   4.515  16.644  0.5967 -0.2742 -0.4609
12671TIP3    H159428   2.129   4.562  16.705  0.3901  1.3477 -1.4903
12671TIP3    H259429   2.008   4.472  16.701 -0.2185  2.0550  0.4401
12672TIP3   OH259430   2.362   0.412   2.748 -0.2685  0.1398  0.0493
12672TIP3    H159431   2.441   0.466   2.755 -0.8820  0.9210  1.0765
12672TIP3    H259432   2.347   0.404   2.654  0.4773  0.8201 -0.1310
12673TIP3   OH259433   4.351   2.088  13.398 -0.1499  0.5261  0.1699
12673TIP3    H159434   4.374   1.996  13.414 -0.5471  0.1071 -1.6734
12673TIP3    H259435   4.430   2.136  13.423 -0.8135 -0.0589  3.6451
12674TIP3   OH259436   3.135   1.816   1.267 -0.6925  0.0756  0.1386
12674TIP3    H159437   3.065   1.756   1.243 -1.6993  1.5724 -0.7051
12674TIP3    H259438   3.115   1.897   1.221 -0.1120  1.5206  2.3462
12675TIP3   OH259439   5.592   0.045   4.304  0.5627 -0.0551 -0.3501
12675TIP3    H159440   5.652   0.080   4.369  2.6007  1.0989 -2.7797
12675TIP3    H259441   5.590   0.111   4.234 -1.4490 -1.3163 -1.5504
12676TIP3   OH259442   2.079   0.676  15.804  0.4241 -0.3182  0.1563
12676TIP3    H159443   2.124   0.740  15.749  1.9762 -1.3891  0.1206
12676TIP3    H259444   2.106   0.697  15.893  0.5148 -0.5928  0.1946
12677TIP3   OH259445   2.998   6.456   1.946  0.2259  0.5761  0.0302
12677TIP3    H159446   3.068   6.405   1.905 -0.4488  0.6699 -1.2513
12677TIP3    H259447   3.025   6.547   1.934  0.8874  0.5685  1.3533
12678TIP3   OH259448   4.633   1.164  15.442 -0.2296 -0.3013  0.2882
12678TIP3    H159449   4.688   1.160  15.520 -1.8015  0.9436  1.4904
12678TIP3    H259450   4.691   1.199  15.374  0.7260  0.0528  1.2666
12679TIP3   OH259451   3.493   0.654  11.616 -0.7728 -0.2901  0.2506
12679TIP3    H159452   3.488   0.561  11.637  1.7791 -0.0741  2.1527
12679TIP3    H259453   3.491   0.658  11.521  0.8736 -2.4635  0.0862
12680TIP3   OH259454   5.107   4.979   0.684  0.0675 -0.2507 -0.0518
12680TIP3    H159455   5.072   4.951   0.600 -0.4936  0.9756 -0.2271
12680TIP3    H259456   5.202   4.967   0.675 -0.0849 -1.1987 -0.4490
12681TIP3   OH259457   0.615   6.185  15.332  0.0310  0.1172 -0.0089
12681TIP3    H159458   0.543   6.230  15.376 -0.9714  0.0017 -1.5333
12681TIP3    H259459   0.647   6.248  15.268 -1.0612 -1.1394 -1.8134
12682TIP3   OH259460   3.220   0.926  16.106  0.7759  0.9537 -0.2368
12682TIP3    H159461   3.160   0.999  16.116  0.9347  0.7360  2.9015
12682TIP3    H259462   3.165   0.848  16.113  1.5059  0.7120  4.6176
12683TIP3   OH259463   2.727   4.338  15.475 -0.0121  0.5920  0.1192
12683TIP3    H159464   2.758   4.248  15.483  0.7300  0.7991 -0.3144
12683TIP3    H259465   2.796   4.390  15.516 -0.6428  0.9320  0.7579
12684TIP3   OH259466   1.227   2.981  15.005  0.2894 -0.1668  0.6110
12684TIP3    H159467   1.134   2.973  14.987  0.1611  1.8160  0.2181
12684TIP3    H259468   1.268   2.987  14.918  0.5748  0.8008  0.8056
12685TIP3   OH259469   5.352   4.383   4.434 -0.0294 -0.5694  0.2027
12685TIP3    H159470   5.292   4.375   4.508  2.2079  2.8969  2.5097
12685TIP3    H259471   5.350   4.476   4.411  0.8551 -1.2543 -2.8035
12686TIP3   OH259472   3.171   0.508   6.038 -0.2595 -0.0806 -0.7590
12686TIP3    H159473   3.254   0.489   5.994  1.0080  0.3055  1.3523
12686TIP3    H259474   3.154   0.600   6.017  0.5415  0.2150 -0.1675
12687TIP3   OH259475   5.440   0.097   2.193  0.1871 -0.1656 -0.8202
12687TIP3    H159476   5.409   0.027   2.136  0.0581 -1.1204  0.3940
12687TIP3    H259477   5.424   0.065   2.282  0.8660  1.0700 -0.2305
12688TIP3   OH259478   1.854   5.080  16.779  0.0989  0.0711  0.2291
12688TIP3    H159479   1.803   5.135  16.838 -3.0443 -0.0640 -2.2016
12688TIP3    H259480   1.843   4.991  16.814 -0.2260  0.2191  0.5031
12689TIP3   OH259481   5.697   4.243  14.508 -0.2817  0.3098  0.2058
12689TIP3    H159482   5.627   4.276  14.565 -0.6677  0.6439 -0.4463
12689TIP3    H259483   5.679   4.284  14.423  0.6037  0.2451 -0.0129
12690TIP3   OH259484   0.534   1.359  16.183 -0.7088  0.4735 -0.1759
12690TIP3    H159485   0.539   1.271  16.145  0.5619  1.6917 -2.9542
12690TIP3    H259486   0.469   1.404  16.130  0.3302  1.8943 -0.2685
12691TIP3   OH259487   6.105   2.464   0.162 -0.1384 -0.1654  0.4447
12691TIP3    H159488   6.032   2.464   0.100 -0.6567 -3.3521  0.9326
12691TIP3    H259489   6.067   2.431   0.244  1.2383  0.9070  1.5516
12692TIP3   OH259490   2.308   4.283  14.089  0.6968 -0.7179  0.0260
12692TIP3    H159491   2.345   4.291  14.002  0.5915 -2.8859 -0.2263
12692TIP3    H259492   2.362   4.218  14.133 -0.5368 -1.1781  0.8789
12693TIP3   OH259493   3.444   5.060  12.077 -0.3093 -0.4707 -0.1262
12693TIP3    H159494   3.482   5.124  12.137 -0.4636  0.1651 -0.7010
12693TIP3    H259495   3.388   5.111  12.019  1.3045 -0.7684 -2.0479
12694TIP3   OH259496   2.256   2.129   2.710 -0.1301 -0.2811 -0.8262
12694TIP3    H159497   2.201   2.080   2.771  1.3905  0.2973  1.0872
12694TIP3    H259498   2.196   2.186   2.663 -1.5049 -1.6693 -0.7954
12695TIP3   OH259499   4.168   2.033  15.350 -0.0324  0.0035 -0.8186
12695TIP3    H159500   4.260   2.006  15.349 -0.0464 -0.1223  0.4739
12695TIP3    H259501   4.131   1.997  15.269  0.5099 -1.8815 -0.2488
12696TIP3   OH259502   5.285   5.822   2.733  0.1186  0.0150  0.0623
12696TIP3    H159503   5.256   5.909   2.707  0.0497  0.3418  1.2074
12696TIP3    H259504   5.380   5.825   2.723  0.3622  0.9676  2.1738
12697TIP3   OH259505   4.240   1.146  13.436 -0.3939  0.6627 -0.6783
12697TIP3    H159506   4.177   1.140  13.508  0.1224 -0.4469 -0.3163
12697TIP3    H259507   4.219   1.071  13.380  1.8505 -0.8579  0.4587
12698TIP3   OH259508   4.883   2.009   3.538  0.3723  0.3359  0.1646
12698TIP3    H159509   4.854   1.999   3.629 -0.8400 -0.3373 -0.2809
12698TIP3    H259510   4.976   1.989   3.540  0.4430  0.7416  1.3349
12699TIP3   OH259511   4.917   6.754   1.485  0.4154 -0.8175  0.1731
12699TIP3    H159512   4.845   6.715   1.435  1.6693 -1.7921 -0.9245
12699TIP3    H259513   4.982   6.776   1.419  1.6802 -1.1950  1.2783
12700TIP3   OH259514   0.082   4.211  16.750 -0.0804 -0.1706 -0.0983
12700TIP3    H159515   0.118   4.132  16.712  0.0835 -0.1693  0.0563
12700TIP3    H259516   0.084   4.197  16.845  0.7780  0.3808 -0.0347
12701TIP3   OH259517   4.515   6.694   4.759  0.0469 -0.2157 -0.1959
12701TIP3    H159518   4.598   6.727   4.794  0.7197 -0.8282 -1.2112
12701TIP3    H259519   4.454   6.767   4.771  0.9360  0.5485 -0.2234
12702TIP3   OH259520   0.242   2.642   3.116 -0.1632 -0.3471 -0.1592
12702TIP3    H159521   0.182   2.687   3.175  1.1513  0.3969  0.6297
12702TIP3    H259522   0.190   2.571   3.079 -1.2564 -0.3024  1.2375
12703TIP3   OH259523   6.602   1.451   2.799  0.6635  0.2861  0.1739
12703TIP3    H159524   6.562   1.370   2.831  1.7004 -0.1114  0.4819
12703TIP3    H259525   6.676   1.467   2.857  1.8959  0.1586 -1.3021
12704TIP3   OH259526   5.221   0.446  15.137 -0.2434 -0.1587 -0.5895
12704TIP3    H159527   5.180   0.511  15.080 -0.3005  0.6183  0.3227
12704TIP3    H259528   5.151   0.418  15.196  0.2576  0.4147  0.3005
12705TIP3   OH259529   2.045   2.628  14.963  0.1246 -0.9390 -0.1042
12705TIP3    H159530   1.968   2.577  14.937  0.2394 -0.5419 -1.2364
12705TIP3    H259531   2.070   2.591  15.048  0.2499 -2.8195 -0.9305
12706TIP3   OH259532   3.596   1.838   5.473 -0.2582 -0.4923 -0.2844
12706TIP3    H159533   3.601   1.869   5.382 -0.3038 -4.0444 -1.5824
12706TIP3    H259534   3.687   1.820   5.496 -0.0758  1.8462  0.9636
12707TIP3   OH259535   3.518   3.629   6.023 -0.4059  0.1752  0.3340
12707TIP3    H159536   3.449   3.600   6.083 -1.2788 -1.3066 -1.3313
12707TIP3    H259537   3.589   3.566   6.037 -0.8286 -0.5101 -0.5766
12708TIP3   OH259538   6.432   2.653   4.082  0.5829  0.4990  0.0937
12708TIP3    H159539   6.346   2.695   4.082  0.5291  0.3870 -0.1689
12708TIP3    H259540   6.434   2.601   4.163  0.3345  0.3572  0.0075
12709TIP3   OH259541   4.484   2.502   5.195 -0.2226  0.3042  0.3685
12709TIP3    H159542   4.533   2.502   5.278  0.1257 -0.5201  0.1630
12709TIP3    H259543   4.473   2.595   5.175 -1.2559  0.5354  1.9022
12710TIP3   OH259544   5.519   1.156   5.392  0.1610  0.1963  0.6847
12710TIP3    H159545   5.564   1.146   5.308 -3.2446 -1.7248 -1.0146
12710TIP3    H259546   5.531   1.249   5.414  2.5508  0.3534 -1.0299
12711TIP3   OH259547   3.714   1.793  14.060 -0.2877  0.1126  0.1820
12711TIP3    H159548   3.753   1.870  14.020 -0.9910  0.1583 -0.4240
12711TIP3    H259549   3.742   1.720  14.005  1.4835 -0.2529  1.5101
12712TIP3   OH259550   6.645   6.124   6.343 -0.5498  0.4579 -0.0040
12712TIP3    H159551   6.611   6.080   6.421 -1.2468  0.3395 -0.3768
12712TIP3    H259552   6.569   6.168   6.305 -0.1912  0.5912 -0.5686
12713TIP3   OH259553   0.360   2.275   5.321 -0.8241 -0.6627 -0.2109
12713TIP3    H159554   0.349   2.370   5.323  0.4500 -0.5215  0.0581
12713TIP3    H259555   0.414   2.259   5.244 -1.6884 -1.2433 -0.7050
12714TIP3   OH259556   2.204   5.013   2.996 -0.1334  0.3674  0.0211
12714TIP3    H159557   2.154   5.093   3.015  0.0913  0.5035  0.0418
12714TIP3    H259558   2.287   5.045   2.960  1.0047  0.2446  2.4445
12715TIP3   OH259559   0.718   0.496   6.567  0.1825  0.0549  0.4738
12715TIP3    H159560   0.702   0.468   6.657  2.3339 -0.0814  0.8354
12715TIP3    H259561   0.761   0.581   6.575 -2.1592  1.3742 -0.5148
12716TIP3   OH259562   2.402   4.902   0.118 -0.1231  0.0830  0.2362
12716TIP3    H159563   2.474   4.955   0.153  0.6278 -1.3960  0.9707
12716TIP3    H259564   2.367   4.856   0.194 -0.4188 -0.8755 -0.4720
12717TIP3   OH259565   3.126   2.924   5.497  1.1486  0.2452  0.5662
12717TIP3    H159566   3.076   2.978   5.558 -0.6187  0.4956 -1.0495
12717TIP3    H259567   3.189   2.877   5.552 -1.0488 -0.3025  2.7176
12718TIP3   OH259568   4.414   2.126   5.970 -0.2593 -0.4455 -0.0062
12718TIP3    H159569   4.462   2.109   6.051 -0.9265  0.1698  0.5204
12718TIP3    H259570   4.367   2.045   5.952  0.2530 -0.7380 -0.0254
12719TIP3   OH259571   6.145   4.466   1.141 -0.1900  0.2630  0.0534
12719TIP3    H159572   6.106   4.380   1.160  1.3877 -0.2199  1.2070
12719TIP3    H259573   6.189   4.454   1.057 -1.4247  0.4525 -0.6353
12720TIP3   OH259574   5.513   3.009  17.131  0.1019  0.1551 -0.2277
12720TIP3    H159575   5.479   2.958  17.205 -0.9683  0.6332 -0.3656
12720TIP3    H259576   5.536   2.945  17.065 -0.4930 -0.1975 -0.0990
12721TIP3   OH259577   4.073   2.439  13.229  0.6995  0.6480 -0.0386
12721TIP3    H159578   4.122   2.435  13.147  1.2879  0.8188  0.3002
12721TIP3    H259579   3.982   2.425  13.203  0.7686  1.6058 -0.8383
12722TIP3   OH259580   2.667   0.843   4.949 -0.0614  0.2159  0.0217
12722TIP3    H159581   2.758   0.871   4.951  0.3440 -0.9938 -0.6828
12722TIP3    H259582   2.658   0.794   4.867 -0.3723 -2.7741  1.7674
12723TIP3   OH259583   2.377   1.300   1.786  0.4404  0.0580 -0.2873
12723TIP3    H159584   2.417   1.355   1.718  1.2505  0.0039  0.1416
12723TIP3    H259585   2.386   1.211   1.753 -0.8016  0.1684 -0.9463
12724TIP3   OH259586   0.434   1.293  14.520 -0.0052  0.2596 -0.2024
12724TIP3    H159587   0.435   1.221  14.457  1.1838 -0.9687  1.1907
12724TIP3    H259588   0.344   1.292  14.555  0.1293 -0.8439  0.1344
12725TIP3   OH259589   6.725   2.077  14.845  0.2224  0.3818  0.7826
12725TIP3    H159590   6.642   2.042  14.812  0.6035  0.2973 -0.1118
12725TIP3    H259591   6.730   2.047  14.935 -0.8997  0.6973  0.9627
12726TIP3   OH259592   3.325   5.008   4.596 -0.2204 -0.7416 -0.5507
12726TIP3    H159593   3.380   5.009   4.517  0.1704 -0.8225 -0.2807
12726TIP3    H259594   3.264   4.935   4.581  0.9565 -1.8369 -0.0341
12727TIP3   OH259595   2.005   1.578   0.926  0.3927  0.2902  0.7061
12727TIP3    H159596   2.071   1.556   0.992  0.2125 -2.7802 -0.0226
12727TIP3    H259597   2.056   1.605   0.850  0.9006 -2.0698  0.1467
12728TIP3   OH259598   4.693   0.867   5.147  0.0574 -0.5518 -0.0470
12728TIP3    H159599   4.788   0.878   5.147 -0.0475  0.4618  0.6413
12728TIP3    H259600   4.665   0.907   5.064  0.1757 -0.3441  0.0119
12729TIP3   OH259601   5.242   6.549   3.340 -0.6782 -0.1801 -0.2318
12729TIP3    H159602   5.188   6.600   3.400 -1.4401 -0.8958 -0.2965
12729TIP3    H259603   5.310   6.510   3.396 -0.8616 -0.1385  0.0197
12730TIP3   OH259604   3.962   1.553   1.032  0.1943 -0.6724  0.4300
12730TIP3    H159605   3.890   1.517   0.979 -1.0904  1.1095  0.9270
12730TIP3    H259606   4.040   1.535   0.981 -0.6786 -1.9709 -0.4938
12731TIP3   OH259607   2.387   0.520  16.490 -0.0114  0.4817 -0.4114
12731TIP3    H159608   2.322   0.522  16.560  0.1887 -0.6174 -0.1762
12731TIP3    H259609   2.462   0.473  16.528  0.6285  1.0668 -0.9254
12732TIP3   OH259610   0.031   3.442  15.641  0.5970 -0.4853 -0.7116
12732TIP3    H159611  -0.009   3.528  15.656  0.0104 -0.7280 -0.8675
12732TIP3    H259612   0.079   3.451  15.559  1.9934  0.2083  0.1731
12733TIP3   OH259613   0.458   3.436  14.220 -0.2787  0.1117  0.1621
12733TIP3    H159614   0.410   3.414  14.300  0.5394 -2.5951 -0.0372
12733TIP3    H259615   0.411   3.390  14.150 -0.1705  1.3259 -0.7321
12734TIP3   OH259616   5.529   6.673  16.948 -0.6889  0.0330 -0.3510
12734TIP3    H159617   5.589   6.718  17.008  0.3681  1.0274 -2.1081
12734TIP3    H259618   5.586   6.640  16.878 -2.0915  0.3214 -1.6512
12735TIP3   OH259619   6.398   1.083   2.444  0.1576 -0.0264  0.2324
12735TIP3    H159620   6.490   1.100   2.462  0.1763 -0.0289  0.1420
12735TIP3    H259621   6.377   1.004   2.494 -0.0729  0.5807  1.1104
12736TIP3   OH259622   4.239   6.215   5.837 -0.3115  0.4086 -0.4573
12736TIP3    H159623   4.281   6.240   5.755 -2.3065  0.2207 -1.5720
12736TIP3    H259624   4.184   6.291   5.860 -0.4394  0.1129  0.2278
12737TIP3   OH259625   2.680   2.218   2.146  0.0325 -0.0446 -0.0467
12737TIP3    H159626   2.662   2.140   2.199  0.6269  0.4988  0.9754
12737TIP3    H259627   2.743   2.268   2.198  0.6251  0.5037 -1.2827
12738TIP3   OH259628   1.932   2.310  11.277 -0.0639  0.1255 -0.2694
12738TIP3    H159629   1.846   2.333  11.242  0.7268  1.8858 -1.0967
12738TIP3    H259630   1.983   2.286  11.200  0.5534  0.2998  0.0848
12739TIP3   OH259631   0.059   2.265  15.430 -0.4623  0.8031  0.4722
12739TIP3    H159632   0.026   2.186  15.473 -0.7468  1.1878  0.9637
12739TIP3    H259633   0.127   2.298  15.488  2.1944 -1.0683 -1.4818
12740TIP3   OH259634   2.289   3.206   5.460  0.2680 -0.1791  0.2292
12740TIP3    H159635   2.290   3.289   5.506 -0.3222 -1.1231  1.9871
12740TIP3    H259636   2.381   3.188   5.440  0.4268  0.7189  0.1526
12741TIP3   OH259637   3.882   1.671   5.143 -0.8576  0.5987  0.3953
12741TIP3    H159638   3.956   1.691   5.201 -0.0378  0.4528 -0.5957
12741TIP3    H259639   3.837   1.755   5.131  0.8991  1.3280 -1.4205
12742TIP3   OH259640   2.383   4.755   3.328 -0.2133  0.3295 -0.1898
12742TIP3    H159641   2.440   4.826   3.357  1.4037 -0.8570 -0.3185
12742TIP3    H259642   2.432   4.675   3.351 -1.3385 -0.7078 -1.3128
12743TIP3   OH259643   0.177   4.936   1.062  0.5384  0.3162  0.2624
12743TIP3    H159644   0.207   4.857   1.107 -1.3111  0.2972  1.5048
12743TIP3    H259645   0.086   4.948   1.091  0.2512  1.9658 -1.1956
12744TIP3   OH259646   2.449   1.006   0.835 -0.4693 -0.0085 -0.0333
12744TIP3    H159647   2.504   0.974   0.763 -0.9936  1.1485 -0.9716
12744TIP3    H259648   2.402   0.929   0.865 -0.4820 -0.4471 -1.1498
12745TIP3   OH259649   2.102   2.946   3.600 -0.4606 -0.4853 -0.3255
12745TIP3    H159650   2.063   2.957   3.513 -1.2879 -0.5981  0.0295
12745TIP3    H259651   2.027   2.939   3.659  0.0874  1.2227  0.6061
12746TIP3   OH259652   4.219   3.350  14.403  0.1779 -0.2099 -0.0180
12746TIP3    H159653   4.149   3.304  14.357  0.8542 -1.3347  0.0654
12746TIP3    H259654   4.230   3.431  14.353 -0.1165 -0.7408 -0.9604
12747TIP3   OH259655   0.867   2.792   6.005  0.5996  0.2178 -0.3992
12747TIP3    H159656   0.800   2.724   6.010  2.8359 -2.0338  0.2116
12747TIP3    H259657   0.820   2.873   6.022 -1.7918 -1.3946  1.0037
12748TIP3   OH259658   2.679   6.019  14.720 -0.2746  0.6385  0.1980
12748TIP3    H159659   2.608   6.013  14.784  0.4229  1.6568  1.0828
12748TIP3    H259660   2.640   6.064  14.644 -0.9158  0.0371  0.1723
12749TIP3   OH259661   0.190   2.728  16.560 -0.0932  0.3644 -0.3872
12749TIP3    H159662   0.210   2.821  16.558  0.5155  0.3144  1.9420
12749TIP3    H259663   0.122   2.719  16.626  1.4462 -1.0883  1.0628
12750TIP3   OH259664   5.928   3.590  17.119 -0.0058 -0.0312  0.4206
12750TIP3    H159665   5.835   3.612  17.124 -0.0464  0.0589 -0.6275
12750TIP3    H259666   5.960   3.602  17.209 -1.3754 -1.7731  1.1688
12751TIP3   OH259667   2.418   0.642  17.178  0.5912  0.1993 -0.4225
12751TIP3    H159668   2.421   0.690  17.261  2.0272 -0.9152  0.1760
12751TIP3    H259669   2.504   0.655  17.139 -0.0442  0.6424 -1.7189
12752TIP3   OH259670   5.260   1.118  12.949  0.4783 -0.4447  0.0502
12752TIP3    H159671   5.315   1.117  12.871  3.2583  1.3294  1.8808
12752TIP3    H259672   5.218   1.032  12.950  1.2697 -0.9144 -2.7587
12753TIP3   OH259673   4.919   3.123  16.878  0.3215  0.1597 -0.1403
12753TIP3    H159674   4.861   3.070  16.823  0.2357 -1.3805  1.3740
12753TIP3    H259675   4.861   3.181  16.926  0.1613 -0.2564  0.1760
12754TIP3   OH259676   5.840   2.472  15.026 -0.0023 -0.5097 -0.0456
12754TIP3    H159677   5.781   2.445  14.955  0.2136  0.2060 -0.5024
12754TIP3    H259678   5.928   2.464  14.988  0.1617 -0.9023  0.4070
12755TIP3   OH259679   5.945   2.971   2.227 -0.1783 -0.3351  0.0987
12755TIP3    H159680   6.039   2.957   2.224 -0.0146  0.9835 -1.0144
12755TIP3    H259681   5.928   3.000   2.317  0.6870  0.8989 -0.1296
12756TIP3   OH259682   6.494   6.312   1.905 -0.3437  0.7570  0.4022
12756TIP3    H159683   6.468   6.343   1.992  1.6831  1.7440  0.6988
12756TIP3    H259684   6.544   6.232   1.923 -0.5566  0.5574  0.0977
12757TIP3   OH259685   5.436   5.927  12.296 -0.0536 -0.1096 -0.1082
12757TIP3    H159686   5.368   5.861  12.287 -1.5554  1.6125 -1.6614
12757TIP3    H259687   5.404   5.986  12.364  0.9236 -0.5073  0.7159
12758TIP3   OH259688   5.730   3.300  15.732  0.7496  0.1189 -0.0029
12758TIP3    H159689   5.809   3.255  15.763  1.8031  1.4730 -0.6760
12758TIP3    H259690   5.714   3.369  15.796 -1.3748 -1.7035  1.5105
12759TIP3   OH259691   0.389   6.784  14.517  0.2459 -0.1887 -0.7646
12759TIP3    H159692   0.342   6.711  14.477  0.1379 -0.0116 -0.9567
12759TIP3    H259693   0.480   6.754  14.521  0.3938  0.1112 -1.8773
12760TIP3   OH259694   5.158   3.900   2.564  0.2665 -0.9336  0.6303
12760TIP3    H159695   5.138   3.809   2.544  0.8101 -1.4042  2.2287
12760TIP3    H259696   5.230   3.896   2.626  0.7835  0.6079  0.1493
12761TIP3   OH259697   4.158   3.647   3.975  0.3883 -0.3452 -0.4057
12761TIP3    H159698   4.178   3.698   3.897 -2.4879  1.4967 -0.0153
12761TIP3    H259699   4.171   3.709   4.047  0.5369 -1.2786  0.3680
12762TIP3   OH259700   1.193   1.174   2.726  0.1479 -0.1912 -0.2035
12762TIP3    H159701   1.273   1.144   2.768 -0.3263 -0.7926  0.2718
12762TIP3    H259702   1.165   1.100   2.672 -1.6516 -1.0447  1.8615
12763TIP3   OH259703   6.426   2.673  13.224  0.2942 -0.5114 -0.2994
12763TIP3    H159704   6.478   2.673  13.143 -0.3196 -0.3133 -0.6959
12763TIP3    H259705   6.463   2.744  13.276 -0.9720  1.0593 -1.4949
12764TIP3   OH259706   3.441   5.502   5.479 -0.2064  0.0093 -0.1670
12764TIP3    H159707   3.351   5.522   5.449 -0.1106  0.6758 -0.0306
12764TIP3    H259708   3.466   5.425   5.429 -0.9796 -0.3763  0.0281
12765TIP3   OH259709   3.750   3.145  12.917  0.3856  0.2843 -0.4557
12765TIP3    H159710   3.822   3.173  12.974  0.3139  0.5369 -0.4865
12765TIP3    H259711   3.680   3.207  12.936 -0.1534 -0.5409  0.2587
12766TIP3   OH259712   0.621   0.361  12.105 -0.1144  0.0516  0.1733
12766TIP3    H159713   0.626   0.425  12.177 -3.9973  0.3464  0.2514
12766TIP3    H259714   0.630   0.414  12.026  1.3947  0.0573  0.3207
12767TIP3   OH259715   3.104   4.677  14.954 -0.5195 -0.1447 -0.1028
12767TIP3    H159716   3.072   4.752  15.003 -2.4320 -0.6641 -0.4839
12767TIP3    H259717   3.057   4.602  14.991 -0.6126 -0.7869 -1.4629
12768TIP3   OH259718   1.972   0.579  14.501  0.0819 -0.3639  0.2308
12768TIP3    H159719   2.005   0.559  14.588 -2.4799 -1.1203  1.0914
12768TIP3    H259720   1.929   0.498  14.472 -0.7907  0.4718 -0.8743
12769TIP3   OH259721   5.631   3.871   3.303  0.9302 -0.1190 -0.5374
12769TIP3    H159722   5.711   3.891   3.256  0.8479 -0.1777 -0.7050
12769TIP3    H259723   5.561   3.897   3.242  0.8182  0.8322 -0.0097
12770TIP3   OH259724   3.295   0.874  14.084  0.2356  0.1678 -0.1265
12770TIP3    H159725   3.256   0.957  14.055 -1.6493 -0.7551 -0.2861
12770TIP3    H259726   3.255   0.808  14.027 -0.0187 -1.1270  1.5397
12771TIP3   OH259727   5.479   0.427   1.126  0.3054 -1.0065  0.0697
12771TIP3    H159728   5.541   0.463   1.063 -0.9305  0.3249 -0.4127
12771TIP3    H259729   5.532   0.407   1.203  1.3815 -0.1441 -0.4346
12772TIP3   OH259730   3.474   6.018  16.511  0.9666  0.0106  0.1551
12772TIP3    H159731   3.484   6.022  16.416  0.2889  0.8073  0.1068
12772TIP3    H259732   3.493   5.927  16.534 -2.7560 -1.1944 -1.1969
12773TIP3   OH259733   1.755   4.883  11.036 -0.4347  0.1190 -0.0780
12773TIP3    H159734   1.684   4.892  10.972 -0.8583 -0.4133  0.3045
12773TIP3    H259735   1.713   4.900  11.121 -0.2113 -0.6458  0.1941
12774TIP3   OH259736   6.519   6.205   0.421  0.6915 -0.0898 -0.1515
12774TIP3    H159737   6.459   6.159   0.479  1.7737 -0.2628  0.8335
12774TIP3    H259738   6.463   6.267   0.373 -0.1151  0.4416  1.4539
12775TIP3   OH259739   1.886   4.126   1.943 -0.0077  0.0964 -1.0998
12775TIP3    H159740   1.898   4.216   1.916 -2.3375  0.1401 -2.0143
12775TIP3    H259741   1.933   4.074   1.877  1.6708  0.6151 -0.3508
12776TIP3   OH259742   5.052   1.985  11.491 -0.4950 -0.1031  0.8524
12776TIP3    H159743   5.057   2.057  11.554  1.1953  1.1478 -0.6383
12776TIP3    H259744   4.982   2.010  11.431  0.6777  0.7692 -0.1820
12777TIP3   OH259745   6.257   1.288  15.396 -0.3320  0.1333  0.0700
12777TIP3    H159746   6.172   1.328  15.416 -0.4160 -0.3643  0.7534
12777TIP3    H259747   6.322   1.351  15.427 -0.4520  0.7761 -0.9911
12778TIP3   OH259748   1.728   6.474  15.018 -0.1863  0.7875  0.3495
12778TIP3    H159749   1.652   6.428  15.055 -1.0061  2.1639  0.4365
12778TIP3    H259750   1.753   6.422  14.942  0.0706 -0.8079  1.4903
12779TIP3   OH259751   3.487   0.495   1.247  0.1566  0.3898 -0.3861
12779TIP3    H159752   3.398   0.470   1.225 -0.2105  0.9929  0.3968
12779TIP3    H259753   3.527   0.415   1.281 -0.0728  0.1151 -0.7601
12780TIP3   OH259754   5.922   2.657   3.892  0.0031  0.1357  0.0032
12780TIP3    H159755   5.995   2.642   3.953 -0.2569 -0.9119  0.0632
12780TIP3    H259756   5.845   2.661   3.949 -0.1040  0.2862 -0.1544
12781TIP3   OH259757   1.765   0.425   1.117 -0.1951  0.3422 -0.2758
12781TIP3    H159758   1.852   0.454   1.089 -0.6031  1.2291 -0.6357
12781TIP3    H259759   1.762   0.332   1.093  1.1696 -0.0560  0.9988
12782TIP3   OH259760   4.506   5.409   4.184  0.4063  0.1871  0.2452
12782TIP3    H159761   4.581   5.432   4.128  0.3222  1.2134  0.5446
12782TIP3    H259762   4.492   5.487   4.237  0.4898 -0.7861  1.7103
12783TIP3   OH259763   5.186   3.588   4.849 -0.1015 -0.6172  0.1411
12783TIP3    H159764   5.219   3.542   4.771 -0.4996  1.2647 -1.1786
12783TIP3    H259765   5.264   3.619   4.894  0.0833  0.4503 -0.8822
12784TIP3   OH259766   3.728   2.239   3.348 -0.3182  0.4110 -0.4423
12784TIP3    H159767   3.712   2.295   3.424  0.2031  0.7510 -0.5794
12784TIP3    H259768   3.821   2.251   3.329  0.0042 -1.2177  0.0958
12785TIP3   OH259769   5.449   0.087   1.597 -0.0291  0.1288 -0.0224
12785TIP3    H159770   5.447   0.170   1.550 -0.8589 -0.9171 -1.8712
12785TIP3    H259771   5.542   0.073   1.616  0.0656  1.7057  0.7600
12786TIP3   OH259772   4.901   0.756  16.990 -0.1683 -0.4891  0.2193
12786TIP3    H159773   4.909   0.849  17.008  2.6595 -0.8340  1.0934
12786TIP3    H259774   4.849   0.721  17.062  0.7654  0.0697  1.1713
12787TIP3   OH259775   4.925   1.420  15.116  0.0282  0.1729  0.9499
12787TIP3    H159776   4.958   1.451  15.032  0.2167 -0.6408  0.7213
12787TIP3    H259777   4.899   1.499  15.163 -0.6450  0.5877 -0.1181
12788TIP3   OH259778   1.734   4.269  13.743 -0.0901  0.0617 -0.1987
12788TIP3    H159779   1.766   4.182  13.765 -2.2012 -0.7785 -0.3063
12788TIP3    H259780   1.703   4.304  13.827 -2.3233 -0.6493 -0.6884
12789TIP3   OH259781   4.616   5.336  16.592 -0.0389 -0.3863  0.0250
12789TIP3    H159782   4.613   5.419  16.545  1.3288 -0.7827 -0.7665
12789TIP3    H259783   4.709   5.317  16.603 -0.3114 -2.6115 -1.2241
12790TIP3   OH259784   3.084   3.643  14.977 -0.1690 -0.1527 -0.6373
12790TIP3    H159785   3.013   3.665  14.916 -1.9365  0.6647  1.6521
12790TIP3    H259786   3.050   3.568  15.026  1.1000 -0.5820 -0.4010
12791TIP3   OH259787   5.683   0.396   0.080 -0.2350 -0.6987  0.0964
12791TIP3    H159788   5.594   0.429   0.069 -0.2844 -0.8943 -0.1023
12791TIP3    H259789   5.692   0.380   0.174 -0.4700 -0.8482  0.0932
12792TIP3   OH259790   4.471   0.560  11.611  0.1739 -0.0661  0.0986
12792TIP3    H159791   4.536   0.631  11.617  0.6462 -0.6163  1.9675
12792TIP3    H259792   4.397   0.591  11.663 -0.5779  0.0372 -1.0217
12793TIP3   OH259793   0.464   3.318   2.876  0.1257 -0.0624 -0.4455
12793TIP3    H159794   0.480   3.303   2.969  0.1231  0.3099 -0.3831
12793TIP3    H259795   0.492   3.238   2.832  2.2773  0.6143 -0.3666
12794TIP3   OH259796   2.708   1.971   1.799 -0.4460  0.0704  0.7079
12794TIP3    H159797   2.715   2.065   1.781 -2.3929  0.0484 -0.3025
12794TIP3    H259798   2.763   1.958   1.876  3.4449  1.2376 -1.6763
12795TIP3   OH259799   1.020   0.307  13.298  0.4417  0.1450  0.4627
12795TIP3    H159800   0.973   0.331  13.377 -0.5201  1.5438 -0.4967
12795TIP3    H259801   0.981   0.224  13.270 -1.0970  1.0352 -0.0412
12796TIP3   OH259802   1.038   2.067  14.035 -0.3461 -0.5728  0.6415
12796TIP3    H159803   1.098   2.097  13.966 -2.3638  0.9009 -0.5428
12796TIP3    H259804   1.023   1.975  14.015 -0.8821 -0.1717 -0.9031
12797TIP3   OH259805   6.426   0.876  16.262 -0.5485  0.4025 -0.3434
12797TIP3    H159806   6.508   0.826  16.263 -1.2679 -0.7960 -0.1105
12797TIP3    H259807   6.454   0.967  16.273  0.6973 -0.0744  0.7135
12798TIP3   OH259808   5.037   1.149   1.827 -0.0819  0.6453 -0.4333
12798TIP3    H159809   5.033   1.129   1.921  2.7467  0.2217 -0.3554
12798TIP3    H259810   5.028   1.065   1.784 -1.9807  0.9119 -0.5770
12799TIP3   OH259811   0.749   2.026  15.368  0.8272  0.0333 -0.2296
12799TIP3    H159812   0.707   2.091  15.311  0.7458  1.4138  1.3756
12799TIP3    H259813   0.794   2.079  15.435  0.2173 -1.5906  1.4840
12800TIP3   OH259814   6.056   4.029  15.808 -0.0531 -0.0147 -0.1188
12800TIP3    H159815   6.092   3.941  15.821 -0.1395 -0.0150  0.1162
12800TIP3    H259816   5.978   4.014  15.754 -0.1216 -0.0954  0.0009
12801TIP3   OH259817   6.381   0.976   1.265  0.1222  0.4896  0.3355
12801TIP3    H159818   6.333   1.047   1.307 -0.7115 -0.0196  0.2590
12801TIP3    H259819   6.415   1.014   1.184  0.9243  1.2072  1.0080
12802TIP3   OH259820   3.443   6.723  12.261 -0.2082  0.3305  0.9262
12802TIP3    H159821   3.412   6.676  12.184  0.7704  1.1389  0.0292
12802TIP3    H259822   3.363   6.753  12.305 -0.7748 -0.4147  0.4096
12803TIP3   OH259823   6.574   3.942   6.499 -0.3103 -0.7013  0.0764
12803TIP3    H159824   6.658   3.902   6.522 -0.9931 -0.3509  3.3644
12803TIP3    H259825   6.591   4.037   6.498 -0.3442 -0.6952 -0.7443
12804TIP3   OH259826   5.953   0.450   0.063 -0.0564 -0.5510 -0.3005
12804TIP3    H159827   5.988   0.539   0.063  0.7470 -0.8045  2.8213
12804TIP3    H259828   5.859   0.461   0.052 -0.0258  0.7308  0.6504
12805TIP3   OH259829   4.208   6.617  15.497 -0.0169  0.0019 -0.1146
12805TIP3    H159830   4.215   6.523  15.483 -0.9529 -0.0286 -0.4318
12805TIP3    H259831   4.296   6.645  15.521  0.6443 -0.6810 -1.6805
12806TIP3   OH259832   1.742   1.495  12.784  0.3229  0.6315 -0.0437
12806TIP3    H159833   1.820   1.449  12.753 -0.3739 -0.1883 -0.6260
12806TIP3    H259834   1.669   1.445  12.747 -0.5018  0.7319  1.4097
12807TIP3   OH259835   2.762   1.026  11.741  0.6277 -0.0307 -0.1572
12807TIP3    H159836   2.787   1.043  11.832 -1.8727  1.1371  0.3487
12807TIP3    H259837   2.736   1.112  11.708  1.2341 -0.5014 -1.9187
12808TIP3   OH259838   3.934   2.395   1.342 -0.4577 -0.0223  0.5571
12808TIP3    H159839   3.990   2.413   1.418  0.5022  1.7906 -0.5628
12808TIP3    H259840   3.860   2.454   1.352 -0.4475  0.0500  0.1924
12809TIP3   OH259841   4.678   0.811   2.978  0.7168  0.1939 -0.2517
12809TIP3    H159842   4.634   0.753   3.041  1.6155 -0.2904 -0.0528
12809TIP3    H259843   4.641   0.786   2.893 -1.2522  1.5461  0.1649
12810TIP3   OH259844   5.233   4.145  16.138 -0.1854  0.0619  0.0475
12810TIP3    H159845   5.279   4.225  16.115  0.1388  0.1195  0.8862
12810TIP3    H259846   5.217   4.152  16.232 -1.5073 -0.1599 -0.1402
12811TIP3   OH259847   1.499   1.320   0.860  0.3445  0.7771 -0.1871
12811TIP3    H159848   1.553   1.247   0.890  1.2492  1.5529  0.1016
12811TIP3    H259849   1.534   1.396   0.907  0.0562  1.5582 -1.2296
12812TIP3   OH259850   4.593   1.268  13.038  0.0228 -0.4707  0.1369
12812TIP3    H159851   4.625   1.245  13.125 -0.8607 -0.9970  0.3209
12812TIP3    H259852   4.513   1.217  13.027  0.1379 -0.4150 -0.9909
12813TIP3   OH259853   1.777   1.280   3.032 -0.0969  0.2223 -0.7304
12813TIP3    H159854   1.772   1.360   3.083  2.8026  0.8194 -1.3154
12813TIP3    H259855   1.839   1.225   3.079 -0.5269 -0.8855 -1.4209
12814TIP3   OH259856   5.317   0.377  11.265 -0.0562  0.6435  0.7092
12814TIP3    H159857   5.225   0.399  11.273 -0.0696  0.0146  2.5417
12814TIP3    H259858   5.340   0.337  11.349  0.8736 -2.8251 -1.0834
12815TIP3   OH259859   3.279   4.459   1.241  0.7075  0.0182  0.5989
12815TIP3    H159860   3.268   4.450   1.336  2.0201  0.2193  0.7729
12815TIP3    H259861   3.301   4.551   1.227  1.4033 -0.2077  0.1858
12816TIP3   OH259862   6.675   5.040  12.951  0.6962 -0.3292  0.6042
12816TIP3    H159863   6.641   5.129  12.941 -1.5085 -1.2697 -0.6813
12816TIP3    H259864   6.766   5.052  12.976  1.2177  2.3212 -2.2731
12817TIP3   OH259865   1.367   1.823  13.319  0.5564 -0.3288  0.1599
12817TIP3    H159866   1.391   1.763  13.248  0.3141 -0.4188  0.1566
12817TIP3    H259867   1.298   1.878  13.282 -0.9837 -1.6894  0.9740
12818TIP3   OH259868   4.080   5.708  11.970  0.1969  0.0152  0.6666
12818TIP3    H159869   4.067   5.743  12.059  0.9465 -1.0577  1.2024
12818TIP3    H259870   4.032   5.626  11.970 -1.5701  1.0204 -0.6048
12819TIP3   OH259871   5.788   4.134   0.777 -0.0538  0.1469  0.0231
12819TIP3    H159872   5.694   4.140   0.795 -0.0742 -0.4727  0.1516
12819TIP3    H259873   5.794   4.086   0.694  0.1405  0.2588 -0.0269
12820TIP3   OH259874   5.104   1.168   5.771  0.2562  0.4975  0.5085
12820TIP3    H159875   5.031   1.142   5.827  0.0995 -0.6528 -0.2217
12820TIP3    H259876   5.137   1.086   5.734 -0.2902  1.3116 -1.8886
12821TIP3   OH259877   2.744   4.014  12.237  1.1273 -0.0445 -0.4845
12821TIP3    H159878   2.701   4.078  12.293  0.5673 -0.9662  0.1479
12821TIP3    H259879   2.681   3.997  12.167  2.0010  1.4414 -1.6888
12822TIP3   OH259880   3.016   1.910  11.526  0.2208 -0.2087 -0.1192
12822TIP3    H159881   2.962   1.989  11.524  0.2211 -0.2182 -0.7837
12822TIP3    H259882   2.957   1.840  11.498  0.5875 -0.2103 -0.8891
12823TIP3   OH259883   5.231   3.667   1.192  0.1592 -0.5255  0.2661
12823TIP3    H159884   5.276   3.622   1.263 -0.3227 -0.0140  0.9099
12823TIP3    H259885   5.285   3.744   1.175  0.2304 -0.6046  0.1349
12824TIP3   OH259886   6.001   2.986  12.936  0.3299  0.1285 -0.6520
12824TIP3    H159887   6.035   3.070  12.966 -0.0450  1.0561 -2.6925
12824TIP3    H259888   6.074   2.926  12.944 -0.1013  0.0232  3.1658
12825TIP3   OH259889   0.713   4.903  14.213 -0.2230  0.0628  0.2464
12825TIP3    H159890   0.797   4.879  14.253 -0.3429  0.1958  0.5759
12825TIP3    H259891   0.729   4.895  14.119 -0.0943 -0.7693  0.3333
12826TIP3   OH259892   1.134   2.848   6.397  0.4039 -0.2851  0.4695
12826TIP3    H159893   1.209   2.790   6.385 -1.3436 -2.0874 -2.2272
12826TIP3    H259894   1.064   2.791   6.428 -0.0606  1.2617  2.3588
12827TIP3   OH259895   4.373   3.714  11.673 -0.1525  0.1890  0.2913
12827TIP3    H159896   4.291   3.759  11.653 -1.3656 -2.0072  0.0921
12827TIP3    H259897   4.357   3.673  11.758  0.5374 -0.6877  0.0020
12828TIP3   OH259898   2.599   2.479  17.098  0.2136  0.2676 -0.2052
12828TIP3    H159899   2.647   2.431  17.030 -0.3244 -1.2691  0.4731
12828TIP3    H259900   2.512   2.494  17.060  0.2765  0.3909 -0.2980
12829TIP3   OH259901   2.974   6.003   1.054 -0.9099  0.4372  0.0884
12829TIP3    H159902   2.926   6.053   1.120 -1.7019  0.1684 -0.2794
12829TIP3    H259903   2.958   5.912   1.077 -0.3399  0.3518  0.1340
12830TIP3   OH259904   3.439   0.086   4.699  0.2919 -0.1716 -0.5804
12830TIP3    H159905   3.495   0.008   4.696  0.5726  0.0670 -1.5238
12830TIP3    H259906   3.493   0.153   4.742 -0.2062 -0.6887  0.9085
12831TIP3   OH259907   4.004   4.332  13.683 -0.4170  0.2883  0.0218
12831TIP3    H159908   4.017   4.399  13.750 -0.0047  0.2055  0.0295
12831TIP3    H259909   3.987   4.252  13.732 -0.1668  0.2378  0.0266
12832TIP3   OH259910   3.020   0.766  11.389 -0.0159  0.0901  0.4620
12832TIP3    H159911   3.070   0.781  11.309  0.8305  0.9216  1.1359
12832TIP3    H259912   2.943   0.822  11.380 -0.9731 -1.3890 -0.6977
12833TIP3   OH259913   3.646   5.680   2.955  0.1094  0.4370  0.1869
12833TIP3    H159914   3.627   5.676   2.862  0.9629 -2.1226  0.0820
12833TIP3    H259915   3.740   5.665   2.961 -0.2337 -1.3859  1.5541
12834TIP3   OH259916   5.266   6.336  12.200 -0.4832 -0.4595  0.2504
12834TIP3    H159917   5.294   6.376  12.118  0.4194  0.0830  0.8073
12834TIP3    H259918   5.292   6.400  12.267 -2.5977 -0.1846  0.8314
12835TIP3   OH259919   3.096   0.821  12.345 -0.6278 -0.1155 -0.8936
12835TIP3    H159920   3.100   0.895  12.284 -0.6062  0.9886  0.4208
12835TIP3    H259921   3.163   0.840  12.410  0.0943 -1.8286 -1.1143
12836TIP3   OH259922   2.807   3.853   4.830  0.2887 -0.0914  0.5010
12836TIP3    H159923   2.877   3.894   4.881  0.9454 -0.6207  0.0372
12836TIP3    H259924   2.811   3.896   4.744 -0.7607  0.7411  0.8583
12837TIP3   OH259925   6.611   4.070  12.657  0.2702  0.0989 -0.0949
12837TIP3    H159926   6.674   4.117  12.711 -0.0310  0.2706  0.1065
12837TIP3    H259927   6.610   3.981  12.693  1.4134 -0.2791 -0.9680
12838TIP3   OH259928   6.427   6.705  15.157  0.2666 -0.2651  0.6992
12838TIP3    H159929   6.465   6.688  15.243  0.3267  0.6050  0.8551
12838TIP3    H259930   6.496   6.683  15.095 -0.7283 -3.6702  0.6940
12839TIP3   OH259931   5.357   0.590   0.160  0.7817  0.3543  0.0464
12839TIP3    H159932   5.309   0.591   0.243  1.6409  0.1885  0.5523
12839TIP3    H259933   5.342   0.502   0.125  0.6534  0.3313  0.1567
12840TIP3   OH259934   6.397   3.254  16.931  0.5948 -0.2949 -0.1771
12840TIP3    H159935   6.315   3.205  16.930 -0.6251  1.6913  0.8250
12840TIP3    H259936   6.441   3.224  17.011  0.5143 -0.8149 -0.3262
12841TIP3   OH259937   2.880   5.580   6.158  0.2826 -0.3525  0.0162
12841TIP3    H159938   2.860   5.620   6.243  2.0309  1.5355 -0.4389
12841TIP3    H259939   2.794   5.556   6.122 -0.7114  1.8319  0.8652
12842TIP3   OH259940   4.246   3.275  15.647 -0.0081 -0.1207 -0.1103
12842TIP3    H159941   4.321   3.267  15.706 -0.5331  1.2601  0.7837
12842TIP3    H259942   4.202   3.191  15.651  1.6272 -1.0316 -0.8399
12843TIP3   OH259943   6.314   4.526  13.600 -0.3791 -0.1107  0.8103
12843TIP3    H159944   6.298   4.459  13.533  2.5163  0.3031 -0.3247
12843TIP3    H259945   6.406   4.517  13.622 -0.5775  1.8109  2.5457
12844TIP3   OH259946   4.088   2.293   0.759  0.7940 -0.0308 -0.3657
12844TIP3    H159947   4.111   2.311   0.668 -1.0089  0.6046 -0.7261
12844TIP3    H259948   4.106   2.376   0.804 -1.6611  0.8175 -0.8506
12845TIP3   OH259949   0.123   3.459   5.062 -0.7170 -0.2999 -0.1064
12845TIP3    H159950   0.187   3.520   5.024 -2.4311  0.8098 -1.2631
12845TIP3    H259951   0.072   3.513   5.122 -0.8590 -1.0900  0.4826
12846TIP3   OH259952   5.356   6.149   4.268 -0.1116  0.3308 -0.9762
12846TIP3    H159953   5.439   6.109   4.293  0.1414  1.2842 -0.2766
12846TIP3    H259954   5.369   6.243   4.281 -1.5574  0.4241 -0.0610
12847TIP3   OH259955   3.919   4.494   5.119  0.2827 -0.6900 -0.4935
12847TIP3    H159956   3.851   4.495   5.187 -0.2058 -0.7632 -0.9758
12847TIP3    H259957   3.939   4.586   5.103 -0.2636 -0.6364 -0.8975
12848TIP3   OH259958   4.173   6.378   0.254 -0.7324  0.2850  0.1825
12848TIP3    H159959   4.177   6.473   0.246 -2.0542  0.3315 -0.0454
12848TIP3    H259960   4.101   6.352   0.197 -0.0706 -0.9086 -0.1271
12849TIP3   OH259961   5.241   5.651  17.197 -0.5307  0.1568  0.8351
12849TIP3    H159962   5.146   5.663  17.191 -0.6627 -1.1611  0.0198
12849TIP3    H259963   5.252   5.568  17.244  0.1911 -0.2396 -0.0113
12850TIP3   OH259964   5.046   5.666   2.286  0.1604 -0.1201  0.3313
12850TIP3    H159965   5.129   5.694   2.323  0.0899  0.2023  0.2501
12850TIP3    H259966   4.980   5.713   2.336  0.0436 -0.0633  0.1276
12851TIP3   OH259967   1.361   1.728  15.489  0.5232  0.0016  0.5893
12851TIP3    H159968   1.359   1.732  15.585  0.1380  1.7397  0.5232
12851TIP3    H259969   1.301   1.797  15.461  2.1455  0.8259 -0.9161
12852TIP3   OH259970   6.567   0.717  15.833 -0.2503 -0.0044  0.2824
12852TIP3    H159971   6.480   0.708  15.874 -0.8723  1.3495 -0.7107
12852TIP3    H259972   6.552   0.773  15.758  1.3452 -0.5046 -0.4262
12853TIP3   OH259973   5.469   5.905   1.395  0.1027 -0.6982 -0.1717
12853TIP3    H159974   5.464   5.941   1.306 -0.1773 -0.0185  0.1175
12853TIP3    H259975   5.430   5.817   1.388 -2.6250  0.4618 -0.1311
12854TIP3   OH259976   0.371   0.414  11.276  0.2936  0.1948  0.1224
12854TIP3    H159977   0.385   0.411  11.182  0.5698  0.9536  0.1327
12854TIP3    H259978   0.280   0.444  11.286 -0.8135 -2.9822  0.0763
12855TIP3   OH259979   2.491   6.501   3.505 -0.4902  0.2380  0.1147
12855TIP3    H159980   2.525   6.583   3.469  0.7833 -0.0477  0.6392
12855TIP3    H259981   2.444   6.461   3.432  1.1852  0.1497 -0.9608
12856TIP3   OH259982   4.770   5.260  16.895  0.0360  0.0051  0.1649
12856TIP3    H159983   4.765   5.272  16.989  1.0829  0.3489  0.1907
12856TIP3    H259984   4.783   5.166  16.883  3.4265  0.3386  0.5668
12857TIP3   OH259985   2.697   0.975   0.336 -0.3628 -0.0193  0.2778
12857TIP3    H159986   2.694   0.958   0.242  1.0794  2.8715 -0.3436
12857TIP3    H259987   2.783   1.014   0.350 -0.2566 -1.1378  2.9442
12858TIP3   OH259988   5.492   0.685  11.923  0.7577  0.2491  0.0871
12858TIP3    H159989   5.542   0.748  11.871  2.1932 -1.2485 -0.3959
12858TIP3    H259990   5.407   0.681  11.879  0.9076  1.2848 -0.3178
12859TIP3   OH259991   6.362   0.948  13.464  0.1361 -0.7963 -0.0585
12859TIP3    H159992   6.433   1.012  13.451  1.6584 -2.3263  0.5014
12859TIP3    H259993   6.322   0.974  13.547  0.8442 -0.6430  0.2436
12860TIP3   OH259994   2.071   1.108  15.518 -0.5520  0.5009  0.3544
12860TIP3    H159995   2.107   1.025  15.550  0.0095  0.4301 -0.4475
12860TIP3    H259996   1.990   1.120  15.568 -0.9140 -0.7878  0.0977
12861TIP3   OH259997   2.907   6.390  14.404  0.6869  0.5455  0.1604
12861TIP3    H159998   2.888   6.300  14.430 -1.3462  0.8408 -0.2072
12861TIP3    H259999   2.981   6.383  14.344  0.7691 -0.8368  0.4174
12862TIP3   OH260000   1.865   5.977   5.314  0.1643 -0.0769 -0.1551
12862TIP3    H160001   1.880   6.056   5.263  1.8033  0.4884  1.1627
12862TIP3    H260002   1.840   6.010   5.401  1.5029 -0.9994  0.5844
12863TIP3   OH260003   6.379   6.522   3.700  0.0128  0.1425  0.0533
12863TIP3    H160004   6.468   6.496   3.724  0.3962  0.3974 -1.0462
12863TIP3    H260005   6.327   6.508   3.779  1.4619  2.1482  1.3941
12864TIP3   OH260006   3.342   0.564  13.859  0.4729 -0.7309  0.8517
12864TIP3    H160007   3.370   0.556  13.950 -0.9578 -0.8966  1.2871
12864TIP3    H260008   3.266   0.622  13.862  0.9132 -0.0805 -0.3346
12865TIP3   OH260009   6.706   5.476  16.404 -0.3260  0.4162 -0.0542
12865TIP3    H160010   6.690   5.445  16.315 -2.0674  1.8427 -0.2708
12865TIP3    H260011   6.800   5.468  16.417 -0.1306 -0.2414 -1.8572
12866TIP3   OH260012   2.104   3.436   3.828 -0.0372 -0.0486  0.5636
12866TIP3    H160013   2.092   3.349   3.791 -1.1460  0.8344 -1.2173
12866TIP3    H260014   2.196   3.437   3.857 -0.5632 -2.4483  2.4399
12867TIP3   OH260015   1.209   3.226  11.458 -0.0248 -0.2965 -0.0557
12867TIP3    H160016   1.262   3.152  11.428  0.6391  1.0561 -2.3180
12867TIP3    H260017   1.271   3.282  11.506 -0.5092 -1.1320  1.5841
12868TIP3   OH260018   4.469   0.096   0.878  0.0028  0.1929 -0.0010
12868TIP3    H160019   4.559   0.108   0.849 -0.0333  1.0861  0.2430
12868TIP3    H260020   4.466   0.136   0.965 -0.6857  0.3687 -0.1025
12869TIP3   OH260021   2.872   5.248  12.712 -0.2575 -0.0405 -0.7643
12869TIP3    H160022   2.804   5.295  12.762 -0.5450  0.5092 -1.6587
12869TIP3    H260023   2.939   5.314  12.695  0.4461 -0.5490 -0.0064
12870TIP3   OH260024   2.304   0.577   0.798 -0.0658 -0.2264  0.2174
12870TIP3    H160025   2.323   0.590   0.891 -0.2445 -1.2276  0.3976
12870TIP3    H260026   2.231   0.636   0.780 -1.4031 -1.5501  1.2203
12871TIP3   OH260027   0.651   3.168  11.566 -0.3839  0.0748 -0.2174
12871TIP3    H160028   0.741   3.170  11.534 -0.1170 -1.5683  0.3752
12871TIP3    H260029   0.598   3.144  11.489 -0.5611  2.9355 -1.0236
12872TIP3   OH260030   4.783   5.059  10.782  0.4352 -0.1239  0.1205
12872TIP3    H160031   4.731   5.131  10.817  1.0294  0.6015 -0.4876
12872TIP3    H260032   4.719   5.000  10.741  0.1121  0.8462 -0.7713
12873TIP3   OH260033   3.058   1.065  11.537  0.3151 -0.4951  0.7985
12873TIP3    H160034   3.152   1.082  11.550  0.3102  0.1510  0.0273
12873TIP3    H260035   3.056   0.981  11.492  0.5240 -0.5318  0.8536
12874TIP3   OH260036   2.981   2.660  12.577  0.4751  0.5726  0.0677
12874TIP3    H160037   3.064   2.613  12.572  1.7038  2.6503  0.5301
12874TIP3    H260038   2.994   2.737  12.521 -1.6154  0.2348 -0.9356
12875TIP3   OH260039   0.356   2.067  12.169  0.2441  0.2994  0.5505
12875TIP3    H160040   0.448   2.084  12.149  0.2122 -1.5962 -1.3757
12875TIP3    H260041   0.357   2.029  12.257  0.9764  3.0788  1.7850
12876TIP3   OH260042   4.967   3.333   5.163  0.4068 -0.1980 -0.2288
12876TIP3    H160043   5.035   3.286   5.115 -0.8915 -2.6375  0.2656
12876TIP3    H260044   4.920   3.265   5.211 -1.0332  1.7039  1.1332
12877TIP3   OH260045   1.168   0.085  13.135 -0.4533  0.2768 -0.2194
12877TIP3    H160046   1.155   0.003  13.181  0.3513 -0.8847 -2.0158
12877TIP3    H260047   1.211   0.142  13.200 -0.5213 -0.8772  0.8570
12878TIP3   OH260048   5.462   0.655   2.760 -0.3286 -0.2348  0.3699
12878TIP3    H160049   5.482   0.617   2.674  2.1524  1.6540  0.0789
12878TIP3    H260050   5.438   0.746   2.741 -0.4432  0.0010  1.6307
12879TIP3   OH260051   5.475   4.624   1.033  0.1591 -0.6256  0.3243
12879TIP3    H160052   5.444   4.593   0.948  0.8606 -0.3604 -0.0342
12879TIP3    H260053   5.513   4.710   1.015  0.0546 -0.4453  0.9544
12880TIP3   OH260054   6.186   0.848  13.897  1.1253 -0.2798  0.3874
12880TIP3    H160055   6.256   0.893  13.944  2.3118 -0.4883 -1.1454
12880TIP3    H260056   6.222   0.762  13.877 -0.4228 -1.2284  1.5914
12881TIP3   OH260057   2.700   0.013  16.213 -0.4298 -0.5567  0.4072
12881TIP3    H160058   2.614   0.021  16.172 -1.1368  0.7510  2.0862
12881TIP3    H260059   2.711  -0.081  16.227 -1.3568 -0.7725 -0.2661
12882TIP3   OH260060   2.836   3.837   0.747 -0.2977  0.2068 -0.1617
12882TIP3    H160061   2.757   3.881   0.717 -1.8917 -2.0375  0.6313
12882TIP3    H260062   2.854   3.771   0.681  0.1117 -0.2138  0.3666
12883TIP3   OH260063   1.772   3.583   4.546 -0.3189  0.7077  0.9644
12883TIP3    H160064   1.750   3.491   4.529 -2.3237  0.9843  1.9159
12883TIP3    H260065   1.864   3.581   4.573 -0.3596 -1.0323  1.0585
12884TIP3   OH260066   2.555   2.424   5.013 -0.7111 -0.3853 -0.0819
12884TIP3    H160067   2.572   2.421   4.919  0.4169  0.5334  0.0781
12884TIP3    H260068   2.467   2.387   5.023 -0.7589 -0.6704 -1.4708
12885TIP3   OH260069   3.678   0.520   4.747 -0.3964 -0.6221  0.7619
12885TIP3    H160070   3.639   0.496   4.663  1.0757  0.8804 -0.4166
12885TIP3    H260071   3.611   0.572   4.791 -0.5975 -0.0229 -0.2278
12886TIP3   OH260072   5.560   1.450   0.675 -0.5071  0.0501  0.6840
12886TIP3    H160073   5.607   1.526   0.708  0.1802 -0.7797  1.6740
12886TIP3    H260074   5.468   1.474   0.680 -0.2846  0.9175  0.6984
12887TIP3   OH260075   6.167   6.202  12.720  0.1778  0.1418  0.1181
12887TIP3    H160076   6.090   6.236  12.764  0.5922  0.2460  0.7642
12887TIP3    H260077   6.143   6.202  12.627 -0.6858 -0.0666  0.3367
12888TIP3   OH260078   4.849   4.584  16.805  0.3787 -0.0812 -0.3075
12888TIP3    H160079   4.834   4.574  16.899  0.7161  0.4145 -0.2004
12888TIP3    H260080   4.848   4.494  16.771  0.7290 -0.2907  0.2433
12889TIP3   OH260081   1.733   5.073   5.016 -0.0085 -0.0094 -0.1542
12889TIP3    H160082   1.715   5.059   4.923 -0.9572  1.3520 -0.1838
12889TIP3    H260083   1.710   5.164   5.032  2.9650  0.6359  0.7735
12890TIP3   OH260084   4.452   2.476   3.017 -0.6399  0.1115 -1.2003
12890TIP3    H160085   4.527   2.518   3.060 -0.8414  0.0188 -0.7554
12890TIP3    H260086   4.392   2.548   2.998 -1.9030 -0.2055  1.4107
12891TIP3   OH260087   3.963   6.312  15.919 -0.8069  0.6153  0.2065
12891TIP3    H160088   3.926   6.340  16.002 -2.6710 -1.5731  0.1829
12891TIP3    H260089   3.928   6.223  15.907  0.6016  0.3554 -2.1971
12892TIP3   OH260090   4.365   3.228   0.074 -0.0608 -0.5672 -0.6230
12892TIP3    H160091   4.420   3.304   0.059  0.8490 -0.7590  1.6043
12892TIP3    H260092   4.280   3.252   0.037  1.4362 -0.2539 -4.0195
12893TIP3   OH260093   1.328   6.225  12.814  0.1116 -0.4314  0.4617
12893TIP3    H160094   1.305   6.151  12.870 -0.8160  0.8505  1.8227
12893TIP3    H260095   1.244   6.266  12.793  0.8189  2.3351  2.7236
12894TIP3   OH260096   3.828   1.124  12.141 -0.1525 -0.5736  0.2381
12894TIP3    H160097   3.752   1.098  12.089 -1.4295 -0.2821  1.9215
12894TIP3    H260098   3.861   1.042  12.177  0.8992 -0.8112 -1.1935
12895TIP3   OH260099   6.474   1.534   4.318  0.1357  0.5445  0.2408
12895TIP3    H160100   6.503   1.625   4.312  1.3598  0.1544  0.2222
12895TIP3    H260101   6.470   1.504   4.227 -0.0200  0.4983  0.2624
12896TIP3   OH260102   3.912   2.939  13.967  0.1219  0.1126  0.2036
12896TIP3    H160103   3.885   2.915  13.878  1.0383 -0.9744  0.2140
12896TIP3    H260104   3.859   2.883  14.024 -0.8276  1.1626  0.3697
12897TIP3   OH260105   2.381   3.077   1.073  0.1527  0.5951  0.4378
12897TIP3    H160106   2.389   3.040   1.161 -0.0784 -0.5751 -0.0268
12897TIP3    H260107   2.471   3.087   1.043  0.1956 -2.4663 -0.6084
12898TIP3   OH260108   1.645   5.459  16.392 -0.4498 -0.1516 -0.4173
12898TIP3    H160109   1.731   5.421  16.378 -1.3483 -1.7447 -1.7972
12898TIP3    H260110   1.589   5.385  16.417 -1.7112  0.6366 -0.8250
12899TIP3   OH260111   0.412   5.940   2.490 -0.6868 -0.7439  0.0948
12899TIP3    H160112   0.404   5.924   2.396  1.2321  0.4180 -0.2996
12899TIP3    H260113   0.432   6.034   2.496 -2.4625 -0.4613  1.7631
12900TIP3   OH260114   5.749   2.512   0.835 -0.5703  0.3283  0.1679
12900TIP3    H160115   5.835   2.503   0.876 -0.9562 -0.9088  0.7249
12900TIP3    H260116   5.737   2.431   0.786 -1.2040  0.7264 -0.3407
12901TIP3   OH260117   5.198   0.147  16.584  0.5800 -0.4558 -0.0887
12901TIP3    H160118   5.126   0.104  16.538  0.2468  0.4733 -0.4391
12901TIP3    H260119   5.274   0.137  16.526  0.3403  0.0424 -0.4859
12902TIP3   OH260120   4.889   2.148   1.478 -0.1969 -0.0470 -0.2605
12902TIP3    H160121   4.982   2.168   1.482 -0.1954 -0.1802  0.5826
12902TIP3    H260122   4.882   2.060   1.514 -0.6287 -0.1058 -0.4850
12903TIP3   OH260123   0.101   2.110  12.764  0.2667 -0.8649  0.0527
12903TIP3    H160124   0.188   2.078  12.740  0.0679 -0.5216 -1.1781
12903TIP3    H260125   0.117   2.176  12.831  0.9581 -0.8339 -0.1421
12904TIP3   OH260126   2.068   1.455   6.058  0.3272 -0.4221  0.1876
12904TIP3    H160127   2.144   1.435   6.113  1.0933 -0.3354 -0.8318
12904TIP3    H260128   2.076   1.396   5.984  1.4409  2.1120 -1.7925
12905TIP3   OH260129   0.364   4.294   5.885  0.4757 -0.1341  0.0055
12905TIP3    H160130   0.332   4.226   5.826 -0.4167 -0.4807  0.8850
12905TIP3    H260131   0.459   4.292   5.874  0.3185 -0.1375 -1.4808
12906TIP3   OH260132   1.505   1.883  13.547  0.1065 -0.0724 -0.4687
12906TIP3    H160133   1.462   1.845  13.471  1.2393 -1.1946 -0.5490
12906TIP3    H260134   1.500   1.978  13.532 -0.0659 -0.2687 -1.7144
12907TIP3   OH260135   4.166   4.596  12.490  0.4699  0.2791 -0.3714
12907TIP3    H160136   4.193   4.518  12.539 -3.0839 -1.5660 -1.1522
12907TIP3    H260137   4.224   4.598  12.414  2.7266  0.3163  1.2854
12908TIP3   OH260138   1.894   6.297   3.067  0.3718 -0.4357 -0.0307
12908TIP3    H160139   1.902   6.263   3.156  0.3231 -1.4354 -0.3999
12908TIP3    H260140   1.984   6.305   3.036  0.3365 -1.7300 -0.4935
12909TIP3   OH260141   3.205   5.698  13.339 -0.4667 -0.4363 -0.0151
12909TIP3    H160142   3.141   5.728  13.274  1.4134 -0.4464 -1.9223
12909TIP3    H260143   3.201   5.603  13.334  0.8469 -0.4427 -1.3449
12910TIP3   OH260144   4.895   6.537   2.463  1.0080 -0.3977 -0.2522
12910TIP3    H160145   4.834   6.473   2.427  0.2181  0.3346 -0.2332
12910TIP3    H260146   4.852   6.621   2.450  2.0588  0.1454 -0.3358
12911TIP3   OH260147   6.001   3.411   0.223 -0.1045 -0.1476  0.5404
12911TIP3    H160148   6.008   3.504   0.244  0.8945 -0.5167  1.8503
12911TIP3    H260149   6.061   3.398   0.150  0.4405  0.0432  0.9581
12912TIP3   OH260150   0.397   5.647  14.893  0.5388 -0.0714 -0.0265
12912TIP3    H160151   0.465   5.589  14.928  0.3744 -1.1440 -1.4114
12912TIP3    H260152   0.389   5.717  14.958  2.0270 -0.6362  0.7984
12913TIP3   OH260153   0.016   3.473   4.768  0.5797 -0.0727  0.0540
12913TIP3    H160154  -0.054   3.473   4.833 -0.4960 -1.3676 -1.0758
12913TIP3    H260155   0.012   3.561   4.729 -0.1549  0.0016  0.2826
12914TIP3   OH260156   0.376   0.219   0.946  0.1489 -0.4255  0.1802
12914TIP3    H160157   0.327   0.300   0.966  0.6702  0.0300 -0.3772
12914TIP3    H260158   0.308   0.152   0.939 -0.2654 -0.1018  0.9635
12915TIP3   OH260159   6.662   6.389  16.736 -0.0208 -0.1970  0.2990
12915TIP3    H160160   6.702   6.444  16.804 -1.5159  0.0240  1.0143
12915TIP3    H260161   6.633   6.450  16.669 -1.7613 -0.0926  1.1350
12916TIP3   OH260162   5.807   2.343  16.906  0.4825 -0.2946  0.0185
12916TIP3    H160163   5.714   2.338  16.885  0.2677 -0.4858  0.9767
12916TIP3    H260164   5.851   2.348  16.821 -0.5045  1.7087 -0.4131
12917TIP3   OH260165   3.933   1.519   1.315 -0.5841  0.2038 -0.5008
12917TIP3    H160166   4.028   1.526   1.321 -0.5467 -1.1082  0.7727
12917TIP3    H260167   3.915   1.507   1.222  0.5143  0.2441 -0.7223
12918TIP3   OH260168   3.037   1.016  14.320  0.2654 -0.1711 -0.4286
12918TIP3    H160169   2.986   1.088  14.359 -0.3616 -0.8143 -0.0525
12918TIP3    H260170   3.125   1.027  14.357  0.1957  0.4469 -0.4333
12919TIP3   OH260171   5.805   6.415  10.409  0.0963  0.2504  0.1085
12919TIP3    H160172   5.886   6.391  10.455  0.4818  1.7690  0.2315
12919TIP3    H260173   5.835   6.453  10.326 -0.5222  0.2571 -0.1121
12920TIP3   OH260174   3.144   5.605  16.803  0.0850  0.0972  0.1013
12920TIP3    H160175   3.079   5.664  16.841 -1.3046 -0.4375 -1.3992
12920TIP3    H260176   3.098   5.523  16.789  0.9222 -0.1334 -1.4764
12921TIP3   OH260177   2.730   0.340   4.379  0.3204  0.4221 -0.0306
12921TIP3    H160178   2.782   0.292   4.444 -0.6385  0.8649  1.0932
12921TIP3    H260179   2.793   0.362   4.310  1.3876  0.0332  0.7897
12922TIP3   OH260180   3.959   3.032   4.530  0.5179 -0.0988 -0.8711
12922TIP3    H160181   3.879   3.078   4.506 -0.4284 -2.0458 -1.5082
12922TIP3    H260182   4.028   3.075   4.479 -0.3555  0.5495 -1.5092
12923TIP3   OH260183   2.168   1.472   3.527  0.5896  0.2009  1.2493
12923TIP3    H160184   2.083   1.513   3.546 -0.1841 -1.4004  1.3548
12923TIP3    H260185   2.179   1.482   3.433 -0.5552 -1.1199  0.9640
12924TIP3   OH260186   1.851   4.006  13.771  0.1293 -0.0974  0.4895
12924TIP3    H160187   1.891   3.995  13.684 -1.2896 -0.2860 -0.1558
12924TIP3    H260188   1.832   3.916  13.800 -0.3464  0.0178  0.5393
12925TIP3   OH260189   3.131   4.790   3.050  0.1427 -0.1438 -0.2908
12925TIP3    H160190   3.151   4.878   3.019  0.3618  0.1440  0.6777
12925TIP3    H260191   3.055   4.763   2.998 -0.9554  1.2568  0.5594
12926TIP3   OH260192   6.335   3.363   5.936 -0.1237 -0.0297 -0.1252
12926TIP3    H160193   6.284   3.431   5.891  0.0016  0.0195 -0.1919
12926TIP3    H260194   6.396   3.331   5.870  2.1401  2.1376  0.8544
12927TIP3   OH260195   1.506   5.009   2.255 -0.3591  0.0250  0.2621
12927TIP3    H160196   1.595   5.024   2.225 -0.7530  2.2386  0.1349
12927TIP3    H260197   1.482   5.090   2.302 -1.8472 -1.0217  1.3728
12928TIP3   OH260198   4.128   2.519  12.267 -0.3546 -0.7515 -0.6785
12928TIP3    H160199   4.146   2.612  12.255 -1.0770 -0.7609 -1.9812
12928TIP3    H260200   4.090   2.513  12.354  1.0589 -0.0348 -0.0059
12929TIP3   OH260201   5.084   4.441  15.986  0.3890 -0.6807  0.1185
12929TIP3    H160202   5.155   4.445  16.050 -0.5072  1.6536  1.0298
12929TIP3    H260203   5.100   4.515  15.927 -1.3351 -0.0589  0.4000
12930TIP3   OH260204   6.776   1.361  15.417 -0.3089  0.0566 -0.4850
12930TIP3    H160205   6.759   1.267  15.421 -0.9214  0.1503 -0.7952
12930TIP3    H260206   6.868   1.368  15.389  0.1712 -0.4511  0.9230
12931TIP3   OH260207   4.221   0.992  14.282 -0.4023  0.0101  0.2632
12931TIP3    H160208   4.228   1.046  14.204  2.5555 -0.9594 -0.1935
12931TIP3    H260209   4.200   0.904  14.248  0.7114 -0.3751  0.5575
12932TIP3   OH260210   1.990   0.586  13.989 -0.2476  0.5382  0.0112
12932TIP3    H160211   1.990   0.533  14.069 -1.9085 -0.9701 -0.9630
12932TIP3    H260212   1.961   0.672  14.019  0.9505  0.5026  1.3454
12933TIP3   OH260213   1.463   0.052  15.711  0.5915  0.1307 -0.4288
12933TIP3    H160214   1.538   0.063  15.652 -1.4812 -0.5050 -3.2653
12933TIP3    H260215   1.442   0.141  15.739  1.6411  0.4380 -0.5912
12934TIP3   OH260216   3.764   6.776   1.998 -0.4312  0.6629  0.0344
12934TIP3    H160217   3.806   6.726   2.068  0.1644  1.6157  0.3725
12934TIP3    H260218   3.685   6.813   2.037 -0.9245 -0.0916 -0.2436
12935TIP3   OH260219   0.926   4.326   5.358 -0.3332 -0.4557  0.4425
12935TIP3    H160220   0.957   4.242   5.323 -0.7560 -0.1234 -0.7659
12935TIP3    H260221   0.850   4.303   5.411 -1.5329 -0.6787 -1.3305
12936TIP3   OH260222   1.590   4.870  13.317  0.3395 -0.3042 -0.0881
12936TIP3    H160223   1.676   4.828  13.311  0.5891  0.2429 -0.3993
12936TIP3    H260224   1.528   4.803  13.287  0.9092  0.1155 -2.3109
12937TIP3   OH260225   4.724   2.928   5.504 -0.1620  0.0986  0.6578
12937TIP3    H160226   4.815   2.918   5.533  0.4065  1.7666 -0.4444
12937TIP3    H260227   4.686   2.990   5.565 -0.1046  0.6026  0.1803
12938TIP3   OH260228   6.761   1.601   3.006  0.0104  0.3077  0.5484
12938TIP3    H160229   6.674   1.635   2.983 -0.1249  0.0535  0.6809
12938TIP3    H260230   6.820   1.673   2.986 -0.0574 -0.0303 -0.9412
12939TIP3   OH260231   3.252   5.976   4.059  0.1578  0.1238 -0.2803
12939TIP3    H160232   3.176   5.931   4.022  1.2308 -0.2407 -2.1021
12939TIP3    H260233   3.319   5.909   4.068  0.0462  0.2966  2.0134
12940TIP3   OH260234   2.749   0.814   1.151  0.0239  0.2585 -0.3185
12940TIP3    H160235   2.666   0.770   1.173  1.1236 -2.5125 -1.5574
12940TIP3    H260236   2.723   0.885   1.093 -1.4756 -0.8737 -1.0715
12941TIP3   OH260237   6.625   4.040   3.638 -0.1063 -0.6932 -0.0489
12941TIP3    H160238   6.626   4.083   3.552  1.0148 -0.9238 -0.1465
12941TIP3    H260239   6.621   3.947   3.618 -0.6752 -0.7165  0.1614
12942TIP3   OH260240   0.822   6.564   4.067  0.4265 -0.2725  1.1550
12942TIP3    H160241   0.741   6.612   4.083  0.1037  0.4602 -2.3722
12942TIP3    H260242   0.794   6.485   4.020  1.8055  0.4297 -0.8952
12943TIP3   OH260243   5.482   4.725  13.355 -0.0571 -0.0280  0.3267
12943TIP3    H160244   5.390   4.745  13.338  0.3130  0.0711 -1.6215
12943TIP3    H260245   5.485   4.707  13.449 -1.8008  1.4028  0.6929
12944TIP3   OH260246   5.933   2.976   4.685 -0.3250  0.4115  0.0325
12944TIP3    H160247   5.931   3.069   4.707 -1.6639 -0.1825  2.6885
12944TIP3    H260248   5.966   2.934   4.764  0.2547 -1.3764 -1.1401
12945TIP3   OH260249   5.442   2.898  14.467 -0.3270 -0.4501  0.3813
12945TIP3    H160250   5.432   2.950  14.546  0.2266 -1.5187  1.1556
12945TIP3    H260251   5.462   2.810  14.498  1.5247 -0.5279 -0.9601
12946TIP3   OH260252   2.993   0.275   3.971  0.4956  0.2571 -0.0588
12946TIP3    H160253   2.975   0.181   3.967  0.0716  0.1513  3.2479
12946TIP3    H260254   3.084   0.283   3.940  1.2295 -1.4898  1.5724
12947TIP3   OH260255   4.815   1.221  15.264  0.1074 -0.2444 -0.0694
12947TIP3    H160256   4.895   1.174  15.288  0.5539  0.6279  0.1820
12947TIP3    H260257   4.845   1.297  15.215 -0.2383  2.1404  3.1843
12948TIP3   OH260258   4.039   5.497  16.360  0.2204  0.4561  0.9286
12948TIP3    H160259   4.084   5.413  16.353 -0.8699 -0.1016  0.5189
12948TIP3    H260260   4.091   5.547  16.423  1.7765  0.0638 -0.0016
12949TIP3   OH260261   1.249   2.570   2.639  0.5026 -0.0785  0.2512
12949TIP3    H160262   1.169   2.623   2.645  0.0505 -0.7738  0.3818
12949TIP3    H260263   1.320   2.633   2.652 -0.0522  0.3931  1.0318
12950TIP3   OH260264   6.360   6.037   1.593 -0.2433 -0.9701  0.3305
12950TIP3    H160265   6.430   6.002   1.537 -1.7455 -0.1611 -2.1212
12950TIP3    H260266   6.282   5.990   1.565 -1.1600 -0.0003  1.2354
12951TIP3   OH260267   6.022   5.893  13.549  0.3948 -0.0457  0.3221
12951TIP3    H160268   5.985   5.933  13.628 -0.0194  1.1823 -0.4824
12951TIP3    H260269   5.980   5.807  13.544 -2.2526  1.2476 -0.4651
12952TIP3   OH260270   5.190   2.985   2.951  0.0150  0.2294 -0.0699
12952TIP3    H160271   5.239   3.064   2.972 -1.2016  0.7562  0.8401
12952TIP3    H260272   5.147   2.961   3.034 -2.0019  0.3238 -1.0596
12953TIP3   OH260273   1.792   5.648  12.659  0.0275 -0.1639 -0.5229
12953TIP3    H160274   1.813   5.625  12.569 -0.8266  0.0187 -0.7743
12953TIP3    H260275   1.732   5.579  12.688  1.0276 -0.7357  0.2128
12954TIP3   OH260276   5.114   1.342   1.349  0.1651  0.3876 -0.4033
12954TIP3    H160277   5.071   1.420   1.385 -1.7001 -0.6135 -0.4138
12954TIP3    H260278   5.198   1.338   1.395 -0.6653  1.1574  1.2362
12955TIP3   OH260279   1.498   5.556   4.701 -0.5865  0.3243  0.8948
12955TIP3    H160280   1.430   5.490   4.696 -0.9316  0.7729 -0.3840
12955TIP3    H260281   1.451   5.639   4.708 -0.1658  0.5322  1.3103
12956TIP3   OH260282   5.705   6.591   5.359  0.3249 -0.4338  0.0496
12956TIP3    H160283   5.661   6.657   5.307  0.2925  0.0991  0.7433
12956TIP3    H260284   5.646   6.575   5.433  1.2328  0.2123  0.9355
12957TIP3   OH260285   0.521   1.637   3.039 -0.5825 -0.0879  0.4805
12957TIP3    H160286   0.603   1.628   2.991  0.5790 -0.8802  2.5291
12957TIP3    H260287   0.454   1.601   2.981  0.4881  0.7284 -1.2834
12958TIP3   OH260288   4.168   4.414   1.623 -0.1688  0.6984 -0.3256
12958TIP3    H160289   4.098   4.445   1.565 -1.1197  1.9649  1.4394
12958TIP3    H260290   4.170   4.319   1.610 -0.2962  0.9724 -2.4849
12959TIP3   OH260291   4.805   3.488   1.897  0.1587 -0.0729  0.2717
12959TIP3    H160292   4.846   3.454   1.976  0.8419 -0.9282 -0.4438
12959TIP3    H260293   4.720   3.443   1.893  0.6202 -0.9317 -0.1064
12960TIP3   OH260294   2.377   6.419  15.957 -0.1388 -0.1123  0.6979
12960TIP3    H160295   2.291   6.390  15.986  0.5157 -1.5130  1.3088
12960TIP3    H260296   2.386   6.381  15.869  0.0067 -0.2813  0.7855
12961TIP3   OH260297   1.989   5.159   0.630 -0.2067 -0.5644  0.3549
12961TIP3    H160298   2.034   5.226   0.682 -0.1254 -0.2413 -0.1274
12961TIP3    H260299   1.993   5.192   0.540  0.4792 -1.5584  0.0062
12962TIP3   OH260300   6.550   2.702   0.087  0.8707 -0.0077 -0.5118
12962TIP3    H160301   6.473   2.701   0.144  0.0991  1.8447 -1.4799
12962TIP3    H260302   6.521   2.662   0.006  0.6509  1.4690 -1.1823
12963TIP3   OH260303   4.672   6.728   5.910  0.5109 -0.2319  0.0200
12963TIP3    H160304   4.621   6.649   5.924  0.0380 -0.7525 -3.9644
12963TIP3    H260305   4.761   6.705   5.936 -0.2536 -1.0042  1.9839
12964TIP3   OH260306   2.538   1.742  15.399 -0.0476  0.7023  0.2624
12964TIP3    H160307   2.450   1.742  15.435  0.2609  1.1251  1.0425
12964TIP3    H260308   2.588   1.684  15.456 -0.1550 -0.7008 -1.0477
12965TIP3   OH260309   1.235   0.911  10.693  0.1543  0.0503  0.3314
12965TIP3    H160310   1.174   0.957  10.751  1.2411  1.0933  0.6788
12965TIP3    H260311   1.288   0.981  10.654  1.9442 -0.9172  0.9840
12966TIP3   OH260312   3.368   2.852  13.705 -0.5200 -0.5238 -0.3599
12966TIP3    H160313   3.411   2.795  13.642 -1.8345 -1.7337 -0.1610
12966TIP3    H260314   3.425   2.848  13.782 -0.3399 -1.1524 -0.5201
12967TIP3   OH260315   4.272   6.419  16.817 -0.1457 -0.1662  0.6286
12967TIP3    H160316   4.314   6.438  16.733 -0.4269  0.2505  0.5773
12967TIP3    H260317   4.196   6.477  16.819 -0.3218 -0.4042  1.0314
12968TIP3   OH260318   0.702   5.400  13.812 -0.0594  0.6400 -0.1238
12968TIP3    H160319   0.612   5.412  13.843 -0.0620 -2.3614  1.1669
12968TIP3    H260320   0.694   5.396  13.716 -1.2836  0.4034 -0.0170
12969TIP3   OH260321   6.030   1.535   1.645 -0.1026 -0.1770 -0.6100
12969TIP3    H160322   5.947   1.533   1.694 -1.0483  1.3669 -2.0985
12969TIP3    H260323   6.028   1.455   1.592 -1.3973  0.6179 -1.8011
12970TIP3   OH260324   0.889   0.828   0.334 -0.4084  0.6714 -0.1045
12970TIP3    H160325   0.869   0.734   0.336 -0.8971  0.7944  2.2450
12970TIP3    H260326   0.985   0.832   0.328 -0.2363 -0.0302  1.6682
12971TIP3   OH260327   3.218   2.406   2.230 -0.4232  0.8731 -0.4416
12971TIP3    H160328   3.292   2.402   2.169  1.4948  3.0561  1.6614
12971TIP3    H260329   3.179   2.492   2.215 -0.1309  1.3018  1.1784
12972TIP3   OH260330   5.869   4.002  15.030  0.8262 -0.3398  0.3242
12972TIP3    H160331   5.937   4.039  15.086  1.9638 -0.6105 -0.8429
12972TIP3    H260332   5.903   4.013  14.941 -1.7249  1.7743 -0.4733
12973TIP3   OH260333   5.306   3.654  15.836 -0.4645  0.7677 -0.3176
12973TIP3    H160334   5.253   3.732  15.816 -1.5463  0.4402  1.2480
12973TIP3    H260335   5.246   3.581  15.826  0.3457  0.1733 -0.9615
12974TIP3   OH260336   4.790   3.345   1.130 -0.4060 -0.1232 -0.0606
12974TIP3    H160337   4.709   3.381   1.167  0.7730  0.5346  1.9625
12974TIP3    H260338   4.806   3.266   1.181  1.6441  1.2038  1.4580
12975TIP3   OH260339   1.348   5.754  16.029  0.2414 -0.1656 -0.1704
12975TIP3    H160340   1.386   5.712  16.106  1.0377  0.4336 -0.2239
12975TIP3    H260341   1.375   5.846  16.036  0.7951 -0.2214 -1.4507
12976TIP3   OH260342   6.096   0.287   4.050  0.1905  0.3933  0.0085
12976TIP3    H160343   6.101   0.335   4.132 -0.0454 -0.8734  0.7787
12976TIP3    H260344   6.186   0.258   4.034 -0.2659 -1.9838  1.4470
12977TIP3   OH260345   2.344   3.316  10.993  0.1626 -0.1171  0.4702
12977TIP3    H160346   2.434   3.287  11.010  0.2444 -0.2494 -0.1689
12977TIP3    H260347   2.338   3.319  10.898 -0.3404  0.4436  0.5206
12978TIP3   OH260348   3.403   5.686  16.878 -0.4944 -0.2371 -0.0277
12978TIP3    H160349   3.309   5.682  16.861 -0.2125 -1.8877 -1.3652
12978TIP3    H260350   3.440   5.617  16.824  1.1158 -2.0286  3.2147
12979TIP3   OH260351   3.523   1.299  15.797  0.1568 -0.5665  0.5326
12979TIP3    H160352   3.586   1.372  15.803  1.9639 -1.9898 -0.5632
12979TIP3    H260353   3.466   1.323  15.724 -0.3125  0.5246  1.2382
12980TIP3   OH260354   1.213   4.500  13.266 -0.0209  0.6003 -0.3109
12980TIP3    H160355   1.219   4.517  13.360  3.1312  0.5333 -0.4521
12980TIP3    H260356   1.221   4.405  13.258 -2.6577  0.3720 -0.5217
12981TIP3   OH260357   3.919   3.556   5.762 -0.2620  0.4079  0.4739
12981TIP3    H160358   3.928   3.461   5.754  4.1599  0.7970 -0.2075
12981TIP3    H260359   3.884   3.570   5.850  0.0652 -1.7853  0.9793
12982TIP3   OH260360   2.576   4.304   5.981 -0.1964 -0.5043  0.1823
12982TIP3    H160361   2.624   4.296   6.063 -0.1583 -0.7242  0.1396
12982TIP3    H260362   2.644   4.325   5.915 -0.2848  0.1005  0.2807
12983TIP3   OH260363   4.050   4.320  16.102 -0.0931  0.0650 -0.1808
12983TIP3    H160364   4.044   4.229  16.072 -0.3879  0.2444 -0.6793
12983TIP3    H260365   4.019   4.318  16.192 -1.2391 -0.1378 -0.5704
12984TIP3   OH260366   4.694   2.989  12.285  0.0800 -0.0038 -0.2173
12984TIP3    H160367   4.709   3.022  12.374  0.6879 -0.1202 -0.2784
12984TIP3    H260368   4.601   3.005  12.270  0.1778  0.8803  0.0811
12985TIP3   OH260369   5.850   6.740  13.101  0.0352 -0.2323  0.2399
12985TIP3    H160370   5.832   6.649  13.076  0.7684 -1.0150  2.4255
12985TIP3    H260371   5.937   6.757  13.066  0.3576 -0.7675  0.7492
12986TIP3   OH260372   6.169   3.228  11.528  0.6194 -0.5074 -0.0973
12986TIP3    H160373   6.234   3.228  11.458 -0.5433 -1.4750 -1.2088
12986TIP3    H260374   6.197   3.298  11.587  1.2123  0.8414 -1.9180
12987TIP3   OH260375   3.719   1.086   6.553 -0.4262  0.1754  0.1852
12987TIP3    H160376   3.730   1.176   6.521 -0.6047  0.5649  1.2114
12987TIP3    H260377   3.781   1.079   6.626  1.8622 -1.5126 -1.8246
12988TIP3   OH260378   2.486   4.483  16.483  0.6989  0.0256 -0.0051
12988TIP3    H160379   2.546   4.481  16.408 -0.1509 -0.0541 -0.6855
12988TIP3    H260380   2.409   4.435  16.453 -0.4057  1.6095  0.2660
12989TIP3   OH260381   4.689   4.617  15.942 -0.4174 -0.3970  0.3389
12989TIP3    H160382   4.618   4.668  15.903 -1.0756 -0.7170  1.1012
12989TIP3    H260383   4.756   4.682  15.964 -1.3433  0.1835  1.5096
12990TIP3   OH260384   2.073   5.630  15.082  0.1152  0.0728 -0.2358
12990TIP3    H160385   2.154   5.658  15.125 -1.2194  3.0085  0.5522
12990TIP3    H260386   2.035   5.565  15.141  0.8316  0.3188  0.5013
12991TIP3   OH260387   1.455   1.735  12.457  0.0444  0.2252 -0.1887
12991TIP3    H160388   1.443   1.736  12.552 -0.1308 -1.8905 -0.1629
12991TIP3    H260389   1.500   1.653  12.440  0.8825  1.0078 -1.8654
12992TIP3   OH260390   3.447   4.640  15.611  0.7998  0.3250  0.0835
12992TIP3    H160391   3.370   4.655  15.667  0.1532  0.3131 -0.7950
12992TIP3    H260392   3.473   4.550  15.631 -0.0353 -0.0204 -0.3546
12993TIP3   OH260393   5.375   6.359   2.062 -0.0263 -0.3213 -0.3085
12993TIP3    H160394   5.390   6.298   1.990 -1.3688 -2.0335  0.8442
12993TIP3    H260395   5.281   6.375   2.061 -0.0006 -0.0533  0.8187
12994TIP3   OH260396   1.511   5.094  16.169 -0.5927 -0.2213  0.1507
12994TIP3    H160397   1.441   5.124  16.112  0.2478  0.2321 -0.6673
12994TIP3    H260398   1.591   5.131  16.130 -0.0380  0.3398  1.7920
12995TIP3   OH260399   1.608   1.187  13.158 -0.2347  0.0182 -0.0667
12995TIP3    H160400   1.692   1.217  13.123  0.2956  1.1992  2.1178
12995TIP3    H260401   1.613   1.092  13.153  0.4314  0.1192 -1.7530
12996TIP3   OH260402   1.580   2.969   1.408 -0.2473 -0.7388 -0.0751
12996TIP3    H160403   1.599   2.919   1.488  2.6030 -1.4630 -1.1383
12996TIP3    H260404   1.627   2.922   1.339 -1.4486  0.7257 -1.9423
12997TIP3   OH260405   6.667   2.185   1.026  0.2653  0.2583 -0.2339
12997TIP3    H160406   6.592   2.152   1.076  1.6953 -1.5188  0.8034
12997TIP3    H260407   6.693   2.265   1.071  1.1029 -0.9590  1.5027
12998TIP3   OH260408   4.338   0.853  14.511 -0.1220 -0.1278  0.1674
12998TIP3    H160409   4.280   0.899  14.451 -0.7318 -0.1393  0.7311
12998TIP3    H260410   4.422   0.849  14.466 -0.3788  0.4972 -0.3752
12999TIP3   OH260411   6.724   5.062   0.253 -0.2794 -0.0340 -0.1439
12999TIP3    H160412   6.794   4.997   0.242 -0.5905 -0.3351 -0.3644
12999TIP3    H260413   6.694   5.080   0.164  0.1208  0.7670 -0.1226
13000TIP3   OH260414   6.194   4.150   5.192 -0.0099 -0.8334  0.6416
13000TIP3    H160415   6.203   4.226   5.134 -1.0420 -0.5372  0.8462
13000TIP3    H260416   6.234   4.178   5.274  0.2397 -0.7620  0.4954
13001TIP3   OH260417   3.674   3.097   4.584 -0.0461 -0.5455  0.1380
13001TIP3    H160418   3.608   3.039   4.622 -0.1560 -0.7631 -0.3924
13001TIP3    H260419   3.657   3.096   4.490  1.0358 -1.0030 -0.0583
13002TIP3   OH260420   1.688   2.533   0.637  0.2727  0.4593  0.1584
13002TIP3    H160421   1.642   2.562   0.716  0.0190  0.8559 -0.1330
13002TIP3    H260422   1.779   2.522   0.665  0.1375  0.3605  0.5648
13003TIP3   OH260423   3.693   2.570   0.671  0.1501  0.0367 -0.5089
13003TIP3    H160424   3.729   2.601   0.754  1.1899  1.0621 -1.3314
13003TIP3    H260425   3.615   2.519   0.696 -0.2448  1.3535  1.0047
13004TIP3   OH260426   5.426   1.251   5.132 -0.1264 -0.3350  0.3648
13004TIP3    H160427   5.488   1.305   5.181 -0.0665 -0.3150  0.2670
13004TIP3    H260428   5.344   1.259   5.180  0.2346 -1.2982  1.1526
13005TIP3   OH260429   0.528   0.561  14.158 -0.0703 -0.3613  0.2726
13005TIP3    H160430   0.487   0.482  14.194 -0.8982  0.6228  1.5162
13005TIP3    H260431   0.456   0.611  14.120  0.7556 -1.2771 -2.6546
13006TIP3   OH260432   2.519   0.035   0.405  0.4299  0.2155 -0.7368
13006TIP3    H160433   2.501  -0.011   0.487  1.1508  0.0161 -0.6912
13006TIP3    H260434   2.501   0.127   0.425 -0.3138  0.0539 -0.6274
13007TIP3   OH260435   0.684   2.144   4.764 -0.3888 -0.5762  0.3780
13007TIP3    H160436   0.620   2.089   4.808  0.3386  0.3794  2.7021
13007TIP3    H260437   0.632   2.205   4.711 -1.4036  0.0229  2.0290
13008TIP3   OH260438   0.279   5.611   4.456 -0.0702  0.0150 -0.8109
13008TIP3    H160439   0.347   5.545   4.463  0.5850  0.7014 -0.6086
13008TIP3    H260440   0.301   5.675   4.524 -0.3086  0.7827 -1.4513
13009TIP3   OH260441   5.996   6.608  10.280 -0.0336  0.1696 -0.1230
13009TIP3    H160442   5.976   6.659  10.358 -0.8800  0.9426 -0.8294
13009TIP3    H260443   6.092   6.611  10.272 -0.0471  1.3012  0.0779
13010TIP3   OH260444   0.064   1.191  12.553  0.1272  0.2854 -0.2107
13010TIP3    H160445   0.058   1.102  12.585  2.1456  0.5606  1.0107
13010TIP3    H260446   0.080   1.182  12.459  2.2640 -0.6875  0.2258
13011TIP3   OH260447   5.236   3.883  13.603  0.6423 -0.0341 -0.5035
13011TIP3    H160448   5.330   3.881  13.624  0.3984 -0.0726  0.5982
13011TIP3    H260449   5.192   3.880  13.688 -0.4076 -2.5164 -1.0812
13012TIP3   OH260450   5.930   0.640  15.338 -0.4253  0.1513  0.0711
13012TIP3    H160451   5.898   0.553  15.363 -1.2240  0.4595  0.1120
13012TIP3    H260452   5.875   0.701  15.387  0.0634  0.6876 -0.0445
13013TIP3   OH260453   2.224   2.331  16.466  0.3871  0.2671 -0.2917
13013TIP3    H160454   2.165   2.271  16.421 -0.3745  1.0227 -0.3104
13013TIP3    H260455   2.311   2.309  16.433  0.0708 -0.5799 -0.5660
13014TIP3   OH260456   4.179   4.059  12.128  0.4371  0.0557  0.1271
13014TIP3    H160457   4.122   3.982  12.122  0.2644  0.1778  0.2086
13014TIP3    H260458   4.203   4.077  12.038 -1.3159  1.2476 -0.1365
13015TIP3   OH260459   0.234   0.704  15.655 -0.4105 -0.4962  0.7117
13015TIP3    H160460   0.239   0.636  15.588  2.1387 -0.6903  1.0768
13015TIP3    H260461   0.229   0.656  15.738 -1.1716 -0.2374  0.8232
13016TIP3   OH260462   4.097   5.507  14.940  0.0099 -0.2013 -0.3330
13016TIP3    H160463   4.125   5.586  14.894 -0.0746 -1.2230 -2.2159
13016TIP3    H260464   4.130   5.518  15.029  0.8708  1.4882 -0.8382
13017TIP3   OH260465   1.864   3.964   3.650  0.0948  0.0749  0.3388
13017TIP3    H160466   1.846   3.887   3.704 -1.7420  0.1424 -0.1597
13017TIP3    H260467   1.882   4.033   3.713  0.4494 -0.4417  0.8128
13018TIP3   OH260468   0.238   4.218   1.043  0.1728 -0.2664  0.0981
13018TIP3    H160469   0.151   4.234   1.078  0.0988  0.1838 -0.2795
13018TIP3    H260470   0.232   4.133   1.000 -0.0589 -0.2646  0.1261
13019TIP3   OH260471   5.267   1.876  15.242  0.1440  0.7136  0.4611
13019TIP3    H160472   5.321   1.939  15.289  0.3472  1.9651 -1.3844
13019TIP3    H260473   5.269   1.906  15.151 -2.9338  0.2859  0.1993
13020TIP3   OH260474   3.439   4.404   6.202  0.3246 -0.6235  0.2542
13020TIP3    H160475   3.477   4.436   6.284 -3.4135  1.9404  1.0952
13020TIP3    H260476   3.470   4.466   6.136  0.9360 -0.9736  0.2040
13021TIP3   OH260477   4.023   4.600   2.763 -0.4818  0.2666  0.0302
13021TIP3    H160478   3.989   4.553   2.686  3.0425  0.0702 -1.5280
13021TIP3    H260479   3.988   4.551   2.838 -1.1335 -1.6859 -1.4862
13022TIP3   OH260480   0.681   2.235  10.902 -0.1640  0.3102 -0.0087
13022TIP3    H160481   0.645   2.242  10.814  1.7159  1.6328 -0.7041
13022TIP3    H260482   0.776   2.243  10.890  0.1302  0.3758  2.1166
13023TIP3   OH260483   6.109   3.326  16.090  0.3735  0.2156  0.0506
13023TIP3    H160484   6.029   3.273  16.078  1.7105 -1.3822 -2.1834
13023TIP3    H260485   6.169   3.267  16.136  1.3269  0.3115 -1.0567
13024TIP3   OH260486   1.772   0.481   4.325  0.1312  0.4961  0.1472
13024TIP3    H160487   1.768   0.576   4.315  0.4481  0.3999 -0.8670
13024TIP3    H260488   1.753   0.467   4.418 -0.0081  1.5414  0.2870
13025TIP3   OH260489   4.062   0.766   5.331  0.4735  0.4380 -0.2423
13025TIP3    H160490   4.023   0.804   5.253 -1.9706  1.9309  1.6143
13025TIP3    H260491   4.105   0.840   5.375 -0.9592  0.3075  1.4328
13026TIP3   OH260492   1.824   4.728  16.891  0.0958 -0.3957  0.2919
13026TIP3    H160493   1.762   4.696  16.825 -0.3793  0.7639  0.1574
13026TIP3    H260494   1.871   4.650  16.919  0.2814 -0.9162 -1.3994
13027TIP3   OH260495   1.667   1.946   2.223 -0.3312  0.7016 -0.3989
13027TIP3    H160496   1.624   1.862   2.241  1.0592  0.0750  0.0433
13027TIP3    H260497   1.656   1.996   2.304  0.2535  0.3264 -0.0815
13028TIP3   OH260498   0.890   3.132   2.282  1.2538  0.3214  0.7406
13028TIP3    H160499   0.797   3.120   2.262  1.5002  1.4374 -1.1995
13028TIP3    H260500   0.891   3.202   2.348  0.6678 -0.5058  1.6452
13029TIP3   OH260501   0.989   0.537   0.930 -0.1424  0.1406 -1.0876
13029TIP3    H160502   1.085   0.536   0.923 -0.1218 -0.7612 -0.7339
13029TIP3    H260503   0.967   0.630   0.938  0.6385  0.4160 -2.0247
13030TIP3   OH260504   4.675   2.682   1.914 -0.3552  0.0952  0.0219
13030TIP3    H160505   4.652   2.590   1.897  3.5125 -0.6989 -1.4543
13030TIP3    H260506   4.660   2.726   1.831  0.0466  0.2837  0.0474
13031TIP3   OH260507   2.915   2.295  10.997  0.7703  0.2662  0.2253
13031TIP3    H160508   2.937   2.387  11.009 -0.5288  0.5338  0.5807
13031TIP3    H260509   2.905   2.285  10.902 -1.4111  1.0473  0.3431
13032TIP3   OH260510   4.321   3.579  16.691  0.4808  0.3002  0.2403
13032TIP3    H160511   4.390   3.625  16.739 -1.2526  0.5946  2.5223
13032TIP3    H260512   4.251   3.566  16.755 -0.4830 -2.4625 -1.2871
13033TIP3   OH260513   5.092   3.576   2.409  0.6338  0.1900  0.1539
13033TIP3    H160514   5.039   3.496   2.408 -1.2290  1.3478  1.9004
13033TIP3    H260515   5.111   3.590   2.502  0.9294  1.7639 -0.1412
13034TIP3   OH260516   6.578   3.078  15.290  0.3969  0.3664  0.2307
13034TIP3    H160517   6.593   2.983  15.292  0.2083  0.3151 -0.5102
13034TIP3    H260518   6.593   3.102  15.199  1.3299  1.2051  0.5937
13035TIP3   OH260519   6.500   2.411  16.802 -0.4993 -0.0101 -0.2192
13035TIP3    H160520   6.526   2.447  16.717 -0.2220 -1.2151 -0.6537
13035TIP3    H260521   6.567   2.443  16.863  0.2203 -0.4583 -0.7555
13036TIP3   OH260522   3.560   1.322  10.431  0.4371  0.6756 -0.2052
13036TIP3    H160523   3.524   1.252  10.375  1.6708  0.3626 -0.6321
13036TIP3    H260524   3.606   1.275  10.501 -0.3282  1.0701  0.5629
13037TIP3   OH260525   4.371   5.124   4.641  0.0088  0.4748 -0.5214
13037TIP3    H160526   4.444   5.090   4.693 -0.8148  1.1071  1.0668
13037TIP3    H260527   4.403   5.209   4.609 -0.2727  1.0769  0.7598
13038TIP3   OH260528   3.610   1.459  11.217  0.2302 -0.2622 -0.0842
13038TIP3    H160529   3.566   1.415  11.144 -1.5815 -0.9243  1.3413
13038TIP3    H260530   3.539   1.479  11.278  1.6129  0.9145  1.1726
13039TIP3   OH260531   6.327   2.174   1.921  0.2171 -0.1204 -0.7043
13039TIP3    H160532   6.296   2.161   1.831  0.2780 -1.5409 -0.5282
13039TIP3    H260533   6.414   2.134   1.922 -0.8650 -2.5471  0.6761
13040TIP3   OH260534   2.854   3.452  13.733 -0.2181  0.0762 -0.0069
13040TIP3    H160535   2.915   3.478  13.664 -1.3695  1.2466 -0.6020
13040TIP3    H260536   2.904   3.460  13.814  0.6265  0.3322 -0.5482
13041TIP3   OH260537   1.218   2.871   3.583 -0.2713  0.2968  0.3382
13041TIP3    H160538   1.225   2.837   3.672  0.6397 -0.6490 -0.0868
13041TIP3    H260539   1.239   2.796   3.527 -0.7589  0.9057 -0.6749
13042TIP3   OH260540   5.901   0.411   3.895  0.3245 -0.2407 -0.6859
13042TIP3    H160541   5.859   0.459   3.967  0.4663  1.0074 -1.4367
13042TIP3    H260542   5.971   0.361   3.938  0.4261  0.5132  0.0437
13043TIP3   OH260543   1.708   2.675  10.868  0.0961  0.0501  0.1608
13043TIP3    H160544   1.656   2.725  10.805  0.8206  1.6347  0.7716
13043TIP3    H260545   1.782   2.642  10.817  1.2015  2.1426  0.3127
13044TIP3   OH260546   3.790   3.442  16.773 -0.2299 -0.3212 -0.4068
13044TIP3    H160547   3.836   3.453  16.690  1.0293 -1.6750  0.0907
13044TIP3    H260548   3.819   3.517  16.826  3.2889 -2.3604  0.7129
13045TIP3   OH260549   0.075   5.996  12.524 -0.0724  0.0101  0.2735
13045TIP3    H160550   0.030   6.076  12.498 -2.1609 -0.8827  1.0329
13045TIP3    H260551   0.010   5.927  12.512  0.8456 -1.2213  2.1516
13046TIP3   OH260552   2.822   2.441  12.494  0.7840  0.7390  0.4232
13046TIP3    H160553   2.862   2.528  12.503 -0.9237  1.5563  0.3854
13046TIP3    H260554   2.891   2.387  12.455  1.9740  1.9979  0.7315
13047TIP3   OH260555   3.327   6.324  13.261  0.0400 -0.0131 -0.3159
13047TIP3    H160556   3.270   6.251  13.286  0.4544 -0.0858  0.4328
13047TIP3    H260557   3.277   6.402  13.283  0.3951 -0.0783  0.7026
13048TIP3   OH260558   5.046   6.288   5.539 -0.5148 -0.5025  0.5308
13048TIP3    H160559   5.097   6.264   5.617  0.4496  1.0308  0.3836
13048TIP3    H260560   5.112   6.308   5.473 -1.3159  1.1389  0.2275
13049TIP3   OH260561   0.444   3.081   4.377 -0.3926 -0.2813  0.3461
13049TIP3    H160562   0.411   3.144   4.312  1.3319  0.6760  0.3554
13049TIP3    H260563   0.386   3.092   4.452  1.4186  3.2644  1.3666
13050TIP3   OH260564   4.105   0.024  11.329 -0.7438  0.0744 -0.0803
13050TIP3    H160565   4.063  -0.036  11.267  1.8685 -0.3721 -1.4731
13050TIP3    H260566   4.172   0.068  11.278  0.9025  0.3331  2.2416
13051TIP3   OH260567   5.965   1.654  12.189  0.1148  0.2846 -0.0890
13051TIP3    H160568   5.990   1.735  12.234 -1.8642  0.3700  0.9150
13051TIP3    H260569   5.942   1.593  12.260 -1.5563 -0.0892 -0.9197
13052TIP3   OH260570   2.815   0.389  16.360 -0.0177  0.3827  0.4340
13052TIP3    H160571   2.737   0.386  16.305  0.0863 -1.4809  0.3742
13052TIP3    H260572   2.832   0.298  16.383  1.7200  0.8452  1.0437
13053TIP3   OH260573   4.988   4.924   3.704  0.1349  0.2464 -0.1194
13053TIP3    H160574   5.053   4.980   3.747 -0.0458  1.4475 -1.3877
13053TIP3    H260575   4.907   4.939   3.753  0.1631  0.8401 -0.2576
13054TIP3   OH260576   1.679   3.513   2.288  0.1954  0.0180 -0.4943
13054TIP3    H160577   1.768   3.541   2.269 -0.3590  0.8861 -1.8488
13054TIP3    H260578   1.632   3.594   2.309 -1.0908  0.0130 -3.1453
13055TIP3   OH260579   0.478   4.999   0.306  0.5449  0.0692  1.0110
13055TIP3    H160580   0.494   4.965   0.394  1.8037  1.0212  1.1624
13055TIP3    H260581   0.538   4.951   0.250  1.5517  1.2234  1.0639
13056TIP3   OH260582   3.711   1.164   2.674  0.1925 -0.4468 -0.1605
13056TIP3    H160583   3.721   1.236   2.736  2.4583 -0.4178 -0.5241
13056TIP3    H260584   3.628   1.182   2.629  0.6539  1.8436 -0.1383
13057TIP3   OH260585   6.572   3.703  11.238 -0.2117 -0.0311  0.1723
13057TIP3    H160586   6.610   3.769  11.296 -1.2021  2.1689 -1.5960
13057TIP3    H260587   6.523   3.753  11.173 -2.0194 -2.5858 -0.5231
13058TIP3   OH260588   4.351   3.705   1.542  0.3828 -0.4739  0.2422
13058TIP3    H160589   4.379   3.751   1.621  1.1100  0.2289 -0.4077
13058TIP3    H260590   4.279   3.759   1.508  1.0159  0.0291 -0.3379
13059TIP3   OH260591   1.745   4.835  16.009 -0.5012  0.3098 -0.4705
13059TIP3    H160592   1.794   4.895  16.065  0.9291 -1.3764  0.1243
13059TIP3    H260593   1.656   4.835  16.045 -0.3765  1.6657 -0.1614
13060TIP3   OH260594   6.306   0.636  16.361 -0.3339  0.0373 -0.4176
13060TIP3    H160595   6.238   0.701  16.379 -1.1102 -0.0260 -2.9555
13060TIP3    H260596   6.370   0.682  16.306  1.2915 -0.1453  1.2601
13061TIP3   OH260597   1.917   0.706  13.109 -0.4106 -0.0012 -0.7417
13061TIP3    H160598   1.939   0.676  13.197  0.7560 -0.7347 -1.2879
13061TIP3    H260599   1.865   0.635  13.072 -0.4669  0.0903 -0.8385
13062TIP3   OH260600   4.641   1.040  11.259 -0.3836  0.4311 -0.5210
13062TIP3    H160601   4.557   1.016  11.297  0.2813 -1.3144 -0.0931
13062TIP3    H260602   4.631   1.021  11.165 -0.1630 -0.7481 -0.3220
13063TIP3   OH260603   2.352   2.479  12.980  0.1564 -0.4683  0.1128
13063TIP3    H160604   2.428   2.527  12.948  0.9043 -0.6357  1.5957
13063TIP3    H260605   2.298   2.544  13.025  1.4229 -1.0506  2.5747
13064TIP3   OH260606   4.159   0.825   1.401 -0.1712 -0.2769 -1.0858
13064TIP3    H160607   4.174   0.879   1.324  0.5761 -0.8460 -1.3416
13064TIP3    H260608   4.246   0.791   1.424 -0.4201 -0.2857 -0.1260
13065TIP3   OH260609   0.604   1.112  12.739 -0.3727 -0.2098  0.4539
13065TIP3    H160610   0.525   1.057  12.740 -0.6248  0.1462  2.4006
13065TIP3    H260611   0.595   1.167  12.816  0.5078  1.6932 -0.7737
13066TIP3   OH260612   5.114   2.599  12.307 -0.8692 -0.6401  0.1678
13066TIP3    H160613   5.154   2.531  12.253 -0.6861  0.7101 -1.4370
13066TIP3    H260614   5.088   2.554  12.387  0.4798 -2.3133 -0.3042
13067TIP3   OH260615   1.440   6.112   3.649 -0.2139 -0.6009  0.1753
13067TIP3    H160616   1.381   6.147   3.715  0.6294  2.0596 -0.4156
13067TIP3    H260617   1.404   6.142   3.566  2.1037  1.4548 -0.1699
13068TIP3   OH260618   3.750   5.751   2.152  0.3014 -0.2556 -1.0453
13068TIP3    H160619   3.763   5.656   2.155  0.4308 -0.1802  1.9135
13068TIP3    H260620   3.655   5.762   2.161  0.5581 -0.0502  1.9128
13069TIP3   OH260621   0.690   2.987   6.074  0.1673  0.3230  0.1170
13069TIP3    H160622   0.680   2.982   6.169 -0.4165 -0.4496  0.0119
13069TIP3    H260623   0.615   3.039   6.044 -0.0696 -0.0869 -0.0018
13070TIP3   OH260624   5.621   4.905   0.249  0.4645  0.4916  0.0509
13070TIP3    H160625   5.716   4.918   0.251  0.6096 -0.7648  2.1587
13070TIP3    H260626   5.585   4.992   0.267  1.2232  0.7882  0.1451
13071TIP3   OH260627   6.155   5.849   1.439 -0.2031  0.3885 -0.4650
13071TIP3    H160628   6.087   5.815   1.380  0.5166  0.7277 -1.5125
13071TIP3    H260629   6.235   5.849   1.386  0.2565  1.6304  0.1988
13072TIP3   OH260630   3.126   5.872  15.927  0.4918  0.2934  0.2208
13072TIP3    H160631   3.085   5.801  15.877  1.7928 -1.6011  1.7500
13072TIP3    H260632   3.212   5.838  15.950  0.3394  1.5270  2.7769
13073TIP3   OH260633   1.366   3.711  11.301 -0.2763  0.3282 -0.7066
13073TIP3    H160634   1.378   3.757  11.384 -0.3462  1.4374 -1.3001
13073TIP3    H260635   1.448   3.664  11.287 -0.4987 -0.3667  0.2962
13074TIP3   OH260636   3.588   5.075  13.988  0.2019 -0.6776 -0.3391
13074TIP3    H160637   3.599   4.980  13.984 -1.3175 -0.8914  0.1918
13074TIP3    H260638   3.547   5.098  13.904 -2.2547 -0.9206  0.7531
13075TIP3   OH260639   0.621   3.042  12.077  0.5360 -0.9006  0.2358
13075TIP3    H160640   0.710   3.006  12.083  1.4580  0.7454 -2.6219
13075TIP3    H260641   0.583   2.999  12.000 -0.0843  0.6076 -0.3122
13076TIP3   OH260642   3.141   4.420  13.253  0.0084 -0.0438  0.2941
13076TIP3    H160643   3.098   4.410  13.168 -1.4075 -0.9630  1.1045
13076TIP3    H260644   3.069   4.421  13.316  0.9765  1.7701  1.3938
13077TIP3   OH260645   1.243   1.469  13.076 -0.6358  0.1422  0.1577
13077TIP3    H160646   1.251   1.434  13.164 -0.4419  0.7373  0.3797
13077TIP3    H260647   1.282   1.402  13.020  0.6945  0.4709  0.6765
13078TIP3   OH260648   4.593   3.419  11.567  0.6144 -0.0001 -0.1191
13078TIP3    H160649   4.537   3.464  11.630  0.4217  0.5495 -0.6811
13078TIP3    H260650   4.679   3.417  11.609  0.5767  0.7130 -0.0127
13079TIP3   OH260651   6.637   0.148  14.084 -0.3223 -0.2429  0.1318
13079TIP3    H160652   6.553   0.103  14.076 -0.3061 -0.1542 -0.5569
13079TIP3    H260653   6.622   0.235  14.048  0.0963 -0.2655 -0.1077
13080TIP3   OH260654   4.956   5.973   2.529 -0.5621 -0.3172  0.1369
13080TIP3    H160655   4.967   5.881   2.504  0.7881 -0.3077  0.6217
13080TIP3    H260656   4.907   5.971   2.611  0.1756 -0.6508  0.5725
13081TIP3   OH260657   2.236   5.555   1.969 -0.4389  0.6558  0.2074
13081TIP3    H160658   2.155   5.583   1.926 -0.5993  1.8587  1.2473
13081TIP3    H260659   2.255   5.625   2.032 -1.1340 -1.8313  3.3114
13082TIP3   OH260660   6.575   0.692  15.121  0.4908 -0.3218 -0.3159
13082TIP3    H160661   6.601   0.601  15.112 -0.1583 -0.3744 -1.9085
13082TIP3    H260662   6.497   0.689  15.177 -0.3178 -0.8976 -1.4429
13083TIP3   OH260663   1.927   2.875  16.892  0.4991  0.4188 -0.0579
13083TIP3    H160664   1.988   2.864  16.819 -0.1359 -2.3422 -0.2348
13083TIP3    H260665   1.841   2.876  16.850  0.2385  0.8010  0.4857
13084TIP3   OH260666   4.752   3.732   1.695 -0.0672 -0.7019 -0.0537
13084TIP3    H160667   4.818   3.667   1.720  0.9135 -0.0467 -0.9263
13084TIP3    H260668   4.713   3.697   1.615  0.1008 -0.4662 -0.2377
13085TIP3   OH260669   5.065   0.371  16.689  0.2265 -0.5620  0.2274
13085TIP3    H160670   5.048   0.427  16.613 -0.2450  2.2030  2.2748
13085TIP3    H260671   5.134   0.312  16.660  1.5697  1.8344 -1.6958
13086TIP3   OH260672   0.181   2.161   2.196 -0.1602 -0.7308  0.6493
13086TIP3    H160673   0.197   2.143   2.289  1.7492  1.1618  0.7399
13086TIP3    H260674   0.269   2.171   2.159 -0.9503  2.6605 -0.4697
13087TIP3   OH260675   4.890   6.390  10.940 -0.3430 -1.0545  0.2240
13087TIP3    H160676   4.952   6.368  10.870  1.6872 -0.0054  1.6702
13087TIP3    H260677   4.825   6.320  10.937 -0.3920 -0.9429 -2.8164
13088TIP3   OH260678   4.363   3.687  14.651  0.0744  0.0242 -0.1325
13088TIP3    H160679   4.370   3.735  14.733  0.0174  0.3740 -0.3328
13088TIP3    H260680   4.271   3.660  14.645 -0.1633  0.9326 -0.6080
13089TIP3   OH260681   6.080   1.281   3.779 -0.7491  0.2534 -0.2892
13089TIP3    H160682   6.058   1.344   3.711 -5.1310 -0.9481 -0.1409
13089TIP3    H260683   6.069   1.195   3.738  1.2677 -0.4758  0.6125
13090TIP3   OH260684   6.181   3.639   1.577 -0.2323 -0.1401  0.5888
13090TIP3    H160685   6.153   3.548   1.590 -0.5125 -0.0019  0.9478
13090TIP3    H260686   6.218   3.640   1.488 -0.7854 -0.4680  0.3502
13091TIP3   OH260687   2.193   1.395   0.335 -0.0405  0.1180  0.4457
13091TIP3    H160688   2.188   1.471   0.277 -0.6121 -1.4689 -1.6350
13091TIP3    H260689   2.286   1.374   0.339 -0.1093 -0.4549 -0.8291
13092TIP3   OH260690   1.769   2.166   4.468 -0.0809 -0.3484  0.0741
13092TIP3    H160691   1.704   2.102   4.496 -0.4745 -0.5862 -1.3424
13092TIP3    H260692   1.823   2.119   4.404 -0.7640  0.8889 -1.4519
13093TIP3   OH260693   1.272   2.471  13.355  0.4337  1.1383  0.0453
13093TIP3    H160694   1.239   2.388  13.320 -1.1940  1.5411  0.5900
13093TIP3    H260695   1.317   2.447  13.436 -1.4450  0.9598  1.0586
13094TIP3   OH260696   2.831   4.303   3.909  0.2427  0.0941 -0.3288
13094TIP3    H160697   2.807   4.394   3.897  1.1289  0.3670 -0.0699
13094TIP3    H260698   2.847   4.295   4.003 -2.3505 -0.9522  0.0675
13095TIP3   OH260699   3.760   5.063   1.700  0.5679 -0.4936  0.0764
13095TIP3    H160700   3.681   5.013   1.721  0.6285 -0.4602  0.3888
13095TIP3    H260701   3.730   5.152   1.687  0.7548 -0.1774  1.7041
13096TIP3   OH260702   2.119   4.897  16.388  0.1737  0.0111 -0.5376
13096TIP3    H160703   2.133   4.953  16.464  0.0713  1.3272 -1.4780
13096TIP3    H260704   2.034   4.855  16.405 -0.2393  0.9303 -0.3177
13097TIP3   OH260705   2.399   1.205  13.485 -0.2371  0.1518  0.5403
13097TIP3    H160706   2.353   1.168  13.410  0.2901  0.0558  0.2658
13097TIP3    H260707   2.433   1.289  13.453 -0.0259  0.1185  0.6769
13098TIP3   OH260708   1.160   5.894   4.755 -0.0431  0.0506  0.7940
13098TIP3    H160709   1.182   5.922   4.843 -0.5785  2.3424  0.2422
13098TIP3    H260710   1.244   5.883   4.711  0.1900  0.4956  1.1266
13099TIP3   OH260711   3.058   3.439  13.166 -0.2397  0.5486  0.0788
13099TIP3    H160712   3.037   3.367  13.107  0.2878 -0.3970  1.0273
13099TIP3    H260713   2.977   3.454  13.216 -0.0220 -0.1346  0.6497
13100TIP3   OH260714   4.007   3.079  15.936  0.0918 -0.3022 -0.0498
13100TIP3    H160715   3.985   3.013  15.871 -1.6144  0.1586  0.0127
13100TIP3    H260716   4.100   3.067  15.953  0.4215 -0.8330 -2.1056
13101TIP3   OH260717   5.509   6.753  13.117 -0.2294 -0.5814 -0.1819
13101TIP3    H160718   5.453   6.820  13.077 -1.1479 -1.6710 -0.7549
13101TIP3    H260719   5.595   6.795  13.126 -0.4092  0.1945 -1.8857
13102TIP3   OH260720   6.009   1.916  15.990 -0.5530  0.2717  0.2350
13102TIP3    H160721   6.080   1.902  15.928  1.0062  1.8941  1.5697
13102TIP3    H260722   5.988   2.009  15.981 -1.2176  0.2207  1.1838
13103TIP3   OH260723   1.035   3.500  11.524  0.4608  0.5025 -0.2150
13103TIP3    H160724   1.033   3.561  11.598  1.6633  0.5315 -0.1937
13103TIP3    H260725   1.104   3.437  11.546 -1.7162 -1.7164  0.4089
13104TIP3   OH260726   2.903   6.583  11.657  0.6337 -0.8114  0.5416
13104TIP3    H160727   2.981   6.555  11.705  0.3142 -1.7361  0.5312
13104TIP3    H260728   2.861   6.647  11.715  2.1010  0.7039 -0.0449
13105TIP3   OH260729   4.804   4.430  10.856 -0.0328 -0.6409  0.4610
13105TIP3    H160730   4.786   4.512  10.809 -0.3036 -1.3927 -0.7938
13105TIP3    H260731   4.899   4.421  10.852  0.0466 -0.1183  1.0812
13106TIP3   OH260732   4.082   6.439   1.465  0.1549 -0.1610 -0.2125
13106TIP3    H160733   4.175   6.442   1.485 -0.1532 -2.1158  1.7372
13106TIP3    H260734   4.058   6.530   1.446  2.3266  0.4266 -0.1627
13107TIP3   OH260735   0.871   0.735  13.197 -0.3377  0.1826  0.0219
13107TIP3    H160736   0.965   0.734  13.179 -0.5169 -0.0908 -0.9439
13107TIP3    H260737   0.864   0.734  13.293  0.6325 -0.7728  0.0888
13108TIP3   OH260738   2.188   0.840   0.809 -0.4472  0.8794 -0.0030
13108TIP3    H160739   2.196   0.861   0.902 -0.6150 -3.4443  1.0620
13108TIP3    H260740   2.095   0.852   0.790 -0.4195  1.7338  0.3542
13109TIP3   OH260741   2.326   3.316  10.721  0.4391 -0.0346 -0.2861
13109TIP3    H160742   2.307   3.371  10.645  1.2818  0.1473 -0.3619
13109TIP3    H260743   2.350   3.231  10.684 -1.0423 -0.5214 -0.1633
13110TIP3   OH260744   0.920   2.795   1.116 -0.0022  0.1513 -0.6691
13110TIP3    H160745   0.872   2.807   1.198  0.8610 -0.7106 -0.0408
13110TIP3    H260746   0.935   2.884   1.084  0.6734  0.5305  0.6915
13111TIP3   OH260747   5.376   4.095   5.419 -0.2656  0.2542 -0.5555
13111TIP3    H160748   5.443   4.163   5.431 -0.3162  0.2201 -0.0370
13111TIP3    H260749   5.293   4.142   5.425 -0.2948  0.1996 -0.5297
13112TIP3   OH260750   3.794   3.496   3.678 -0.1838 -0.3985 -0.2780
13112TIP3    H160751   3.812   3.407   3.707  0.5438 -0.7616 -1.8116
13112TIP3    H260752   3.720   3.487   3.618  1.2088 -0.2648 -2.0547
13113TIP3   OH260753   3.275   3.387   5.350  0.2360  0.1454  0.1779
13113TIP3    H160754   3.326   3.437   5.414 -0.5022 -0.3104  1.1305
13113TIP3    H260755   3.222   3.453   5.305 -0.0482  0.3438  0.7950
13114TIP3   OH260756   3.762   2.147   2.335  0.0271  0.3858 -0.1183
13114TIP3    H160757   3.796   2.112   2.253 -2.6062  1.0001 -1.5040
13114TIP3    H260758   3.827   2.120   2.401  0.2389 -3.4203 -1.7552
13115TIP3   OH260759   1.316   1.921  11.576 -0.4135  0.5110 -0.3650
13115TIP3    H160760   1.285   1.979  11.507  2.1260  3.0307  0.5352
13115TIP3    H260761   1.259   1.940  11.650 -1.1379  0.0733 -0.8050
13116TIP3   OH260762   5.558   1.897   2.560  1.2034 -0.1985 -0.1891
13116TIP3    H160763   5.542   1.897   2.465 -6.2753 -0.5026  0.7470
13116TIP3    H260764   5.557   1.989   2.584 -1.3221 -0.2444  0.0340
13117TIP3   OH260765   6.013   0.053   0.873  0.3446 -0.0003 -0.5203
13117TIP3    H160766   5.999   0.090   0.786 -1.9824  0.0156 -0.1566
13117TIP3    H260767   5.996   0.126   0.933 -1.1616 -0.8155  0.0668
13118TIP3   OH260768   1.847   5.699  15.310  0.1111 -0.2186  0.3293
13118TIP3    H160769   1.878   5.709  15.220  0.0904 -0.0179  0.3433
13118TIP3    H260770   1.812   5.610  15.314  1.7282 -0.8768  0.6239
13119TIP3   OH260771   0.695   6.175  16.882  0.2041  0.2141 -0.0318
13119TIP3    H160772   0.751   6.230  16.937 -2.0709  2.8030 -0.1829
13119TIP3    H260773   0.629   6.235  16.847 -0.5356 -2.0652 -2.7263
13120TIP3   OH260774   4.750   3.837  13.265  0.1820 -0.2677  0.0541
13120TIP3    H160775   4.843   3.855  13.257 -0.3998  1.9058 -2.5514
13120TIP3    H260776   4.741   3.744  13.243  1.5399 -0.0700 -1.4241
13121TIP3   OH260777   6.273   0.905   3.047  0.4519  0.2560  0.3782
13121TIP3    H160778   6.228   0.871   2.970  1.4993 -0.4328  0.0526
13121TIP3    H260779   6.215   0.885   3.120  0.9057 -1.9748  0.1480
13122TIP3   OH260780   3.757   1.021  15.187  0.5468  0.5900 -1.0246
13122TIP3    H160781   3.795   1.047  15.103  3.9608  1.8899  0.7933
13122TIP3    H260782   3.822   0.961  15.224 -0.4713  0.7500  1.0597
13123TIP3   OH260783   3.389   0.305   0.708 -0.5392  0.2758  0.4378
13123TIP3    H160784   3.447   0.330   0.636 -0.6011 -2.3344 -0.5582
13123TIP3    H260785   3.423   0.354   0.783  0.7119  1.5623 -0.9175
13124TIP3   OH260786   0.117   6.171   6.349  0.1357  0.0689  0.3235
13124TIP3    H160787   0.025   6.148   6.355  0.1088 -0.3063 -1.2263
13124TIP3    H260788   0.157   6.096   6.304  0.5424  1.8032 -2.2851
13125TIP3   OH260789   1.883   1.631  11.150  0.0095  0.1835 -0.4205
13125TIP3    H160790   1.832   1.606  11.073 -0.3833 -0.1385 -0.0572
13125TIP3    H260791   1.830   1.697  11.194  0.8341  1.3292 -1.1279
13126TIP3   OH260792   1.770   4.052  13.396  0.1877  0.3228  0.0742
13126TIP3    H160793   1.838   4.023  13.457 -1.0781 -1.4025  0.7034
13126TIP3    H260794   1.786   4.146  13.386  1.3435  0.3548  1.8934
13127TIP3   OH260795   6.072   1.195   5.210 -0.0321  0.6563  0.2615
13127TIP3    H160796   6.158   1.234   5.224  1.5409 -2.2909 -0.8233
13127TIP3    H260797   6.064   1.187   5.115 -0.6328 -0.8981  0.4276
13128TIP3   OH260798   4.513   1.153  13.516 -0.0140 -0.3082  0.0135
13128TIP3    H160799   4.433   1.124  13.471 -1.8365 -2.4973  4.3722
13128TIP3    H260800   4.492   1.242  13.546 -0.8126 -0.8330  1.0451
13129TIP3   OH260801   6.287   4.812  15.825  0.2792 -0.0701 -0.0976
13129TIP3    H160802   6.372   4.793  15.786  0.1010 -0.4928 -0.2808
13129TIP3    H260803   6.298   4.898  15.866  0.1811  0.8495 -1.9402
13130TIP3   OH260804   3.462   4.426  11.112 -0.0096 -0.3094 -0.2146
13130TIP3    H160805   3.515   4.422  11.032  1.9140 -3.4242  1.1242
13130TIP3    H260806   3.456   4.520  11.131  1.3502  0.3654 -2.7931
13131TIP3   OH260807   2.611   5.104  16.040 -0.6827 -0.1282  0.2627
13131TIP3    H160808   2.603   5.031  15.979 -1.1451 -2.2112  2.7528
13131TIP3    H260809   2.591   5.181  15.987 -2.0191 -1.9466 -1.9838
13132TIP3   OH260810   3.460   1.994   0.644 -0.7748  0.7781  0.2363
13132TIP3    H160811   3.374   1.992   0.687 -0.4636 -1.9614  0.8301
13132TIP3    H260812   3.523   1.982   0.715  0.0490  1.8736 -0.3049
13133TIP3   OH260813   1.521   5.086   3.888  0.1395  0.4791 -0.2471
13133TIP3    H160814   1.461   5.105   3.816 -0.2703  2.3115  0.5788
13133TIP3    H260815   1.465   5.063   3.962  0.5280  0.1258 -0.0562
13134TIP3   OH260816   2.780   1.958  16.008  0.2056  0.1411  0.2865
13134TIP3    H160817   2.807   1.880  16.057 -2.2427 -0.4375  0.7699
13134TIP3    H260818   2.827   2.030  16.051  0.3517 -0.7293  1.6194
13135TIP3   OH260819   2.972   0.490   1.728  0.5299  0.2115 -0.0690
13135TIP3    H160820   2.941   0.427   1.793  2.1326  0.4356  0.9391
13135TIP3    H260821   3.014   0.436   1.660 -0.4705  0.0281 -0.5477
13136TIP3   OH260822   1.093   0.319  15.044  0.4421  0.5150  0.0210
13136TIP3    H160823   1.081   0.389  15.108  4.3219  0.7199  0.6887
13136TIP3    H260824   1.142   0.361  14.973 -0.0971 -0.7413 -1.1183
13137TIP3   OH260825   2.772   1.484   1.218 -0.2022 -0.5760  0.0932
13137TIP3    H160826   2.711   1.524   1.281 -0.9921 -1.9106  0.1897
13137TIP3    H260827   2.716   1.427   1.164  0.6560 -0.3350 -1.0705
13138TIP3   OH260828   5.446   5.952  13.619  0.2071 -0.0655 -0.2765
13138TIP3    H160829   5.522   6.006  13.597  0.9860 -1.6232 -1.5171
13138TIP3    H260830   5.382   5.974  13.551 -0.1714  0.6526  0.3020
13139TIP3   OH260831   6.637   5.101  17.039 -0.4129 -0.1403 -0.2135
13139TIP3    H160832   6.645   5.072  16.948 -1.1069  2.4476 -1.1179
13139TIP3    H260833   6.553   5.145  17.043  0.2145  0.9336  1.3533
13140TIP3   OH260834   4.037   4.238  14.161 -0.4294 -0.2091 -0.5490
13140TIP3    H160835   4.108   4.301  14.149  0.9264 -1.9262 -1.8568
13140TIP3    H260836   3.975   4.260  14.091 -0.5122  0.3853 -0.2961
13141TIP3   OH260837   1.925   0.184   3.147 -0.6648 -0.0469 -0.9487
13141TIP3    H160838   1.978   0.116   3.189 -0.2808  0.8384  0.0074
13141TIP3    H260839   1.840   0.142   3.131 -0.8966 -0.3428  0.9144
13142TIP3   OH260840   2.442   1.597   3.425  0.6316 -0.0039  0.8004
13142TIP3    H160841   2.469   1.675   3.376 -1.0222 -0.4411 -0.8825
13142TIP3    H260842   2.349   1.586   3.402  0.6902 -2.1062  1.4969
13143TIP3   OH260843   2.852   6.752   6.003  0.5214  0.0334  0.2875
13143TIP3    H160844   2.888   6.805   6.075  2.0783 -1.5618  0.7186
13143TIP3    H260845   2.835   6.666   6.041 -0.0466 -0.4003 -0.8982
13144TIP3   OH260846   5.040   2.404  16.263  0.2362 -0.2079  0.3439
13144TIP3    H160847   5.056   2.485  16.311  1.3756 -0.2954  0.1134
13144TIP3    H260848   4.974   2.427  16.198 -0.5665  0.1563  1.2823
13145TIP3   OH260849   0.310   4.742  15.228  0.1674  0.3794 -0.1981
13145TIP3    H160850   0.325   4.786  15.311  0.4524  1.8529 -1.0142
13145TIP3    H260851   0.389   4.761  15.176 -0.8494  1.1164 -1.4976
13146TIP3   OH260852   4.327   3.446  16.445  0.7268  0.5108 -0.6708
13146TIP3    H160853   4.358   3.357  16.461 -1.8279 -0.3129  0.0500
13146TIP3    H260854   4.333   3.489  16.530 -1.3078 -0.0835 -0.1921
13147TIP3   OH260855   3.601   2.967   2.561  0.4789 -0.4584 -0.7050
13147TIP3    H160856   3.566   3.044   2.516 -1.8097  0.2615  2.1549
13147TIP3    H260857   3.665   3.002   2.622 -1.4315 -0.6204  1.4620
13148TIP3   OH260858   1.574   3.532  11.476  0.0908  0.1222  0.5654
13148TIP3    H160859   1.586   3.627  11.481 -2.1143  0.3750  2.0212
13148TIP3    H260860   1.660   3.496  11.497  1.9876  1.7622 -3.8106
13149TIP3   OH260861   1.403   4.552   1.284 -0.1655 -0.1209 -0.9692
13149TIP3    H160862   1.414   4.606   1.206 -0.8550  0.4974 -0.6465
13149TIP3    H260863   1.417   4.613   1.357 -0.7673 -0.4224 -0.6006
13150TIP3   OH260864   1.916   1.118   2.077  0.2334 -0.0797 -0.2281
13150TIP3    H160865   1.932   1.121   1.983 -0.6490  2.8683 -0.3454
13150TIP3    H260866   1.915   1.025   2.098  0.6031 -0.7888 -3.0976
13151TIP3   OH260867   3.366   5.901   2.430 -0.0782  0.3132 -0.4761
13151TIP3    H160868   3.363   5.832   2.496  0.1419  0.3135 -0.4669
13151TIP3    H260869   3.349   5.982   2.478 -0.9485  0.2048 -0.5782
13152TIP3   OH260870   0.242   1.422  12.990 -0.1443 -0.0059  0.8961
13152TIP3    H160871   0.189   1.373  12.926  0.7371 -1.3912  1.2212
13152TIP3    H260872   0.300   1.475  12.936 -0.6600  0.2061  0.5382
13153TIP3   OH260873   6.052   2.995  14.437  0.1707 -0.1661  0.1075
13153TIP3    H160874   5.998   2.988  14.516  0.6111  0.9865  0.5143
13153TIP3    H260875   6.043   2.910  14.395 -1.6157 -0.1563  0.4070
13154TIP3   OH260876   2.101   1.234  12.117  0.6372  0.7137 -0.7659
13154TIP3    H160877   2.082   1.182  12.195 -1.3406 -0.1102 -1.7586
13154TIP3    H260878   2.071   1.322  12.138 -1.6065  0.0994 -1.2012
13155TIP3   OH260879   6.393   2.040   5.421 -0.0732 -0.6229 -0.6345
13155TIP3    H160880   6.397   1.956   5.376 -0.4795 -0.2293 -1.4036
13155TIP3    H260881   6.303   2.047   5.453 -0.1076 -0.3632 -0.7868
13156TIP3   OH260882   1.033   3.933   0.262  0.0789 -0.4089 -0.0532
13156TIP3    H160883   1.057   4.011   0.312  0.5332  0.0608 -0.9741
13156TIP3    H260884   1.024   3.864   0.327 -1.9489  0.7668  1.0046
13157TIP3   OH260885   4.688   1.809   2.098  0.5604 -0.4337  0.0561
13157TIP3    H160886   4.680   1.835   2.006  1.0836 -1.8901 -0.4224
13157TIP3    H260887   4.598   1.792   2.126  0.5323 -1.5462 -0.6721
13158TIP3   OH260888   6.063   2.006   0.406 -0.4741  0.0732 -0.3239
13158TIP3    H160889   6.066   1.952   0.327 -0.1578 -1.6983  0.8687
13158TIP3    H260890   6.153   2.007   0.438 -0.5285  1.1062 -0.1886
13159TIP3   OH260891   1.338   2.244   2.987 -0.4001  0.0298  0.0823
13159TIP3    H160892   1.310   2.220   3.075 -0.9919 -0.5979 -0.2810
13159TIP3    H260893   1.274   2.308   2.958  0.6880  1.4430  0.7123
13160TIP3   OH260894   3.842   0.763  16.894 -0.4222  0.2490 -0.5152
13160TIP3    H160895   3.813   0.769  16.803 -0.9862 -0.4454 -0.3843
13160TIP3    H260896   3.859   0.669  16.908  0.3889  0.4463 -0.1303
13161TIP3   OH260897   5.735   2.391  16.329 -0.8934  0.2842 -0.4098
13161TIP3    H160898   5.739   2.338  16.250  0.7661  0.9535 -0.8057
13161TIP3    H260899   5.687   2.338  16.392 -2.3227 -0.2124 -1.8952
13162TIP3   OH260900   3.830   0.269   4.106 -0.2847  0.1741  0.0412
13162TIP3    H160901   3.868   0.190   4.068 -0.3567  0.6140 -0.9596
13162TIP3    H260902   3.900   0.334   4.102 -0.5484  0.4530 -0.0944
13163TIP3   OH260903   4.220   3.266  16.885 -0.3238 -0.2522  0.0819
13163TIP3    H160904   4.261   3.328  16.946  0.3761 -1.0995  0.4940
13163TIP3    H260905   4.136   3.245  16.925  0.0794 -0.7065  0.7000
13164TIP3   OH260906   1.106   6.198   0.677 -0.1203 -0.0670 -0.3338
13164TIP3    H160907   1.091   6.129   0.614 -1.3623 -0.5415  0.4698
13164TIP3    H260908   1.201   6.200   0.688 -0.1212 -2.1956  0.2494
13165TIP3   OH260909   2.833   2.573   3.533 -0.6689 -0.0476  0.1918
13165TIP3    H160910   2.757   2.538   3.486 -0.1020 -1.0374  0.0013
13165TIP3    H260911   2.812   2.561   3.625 -0.7516 -0.2990  0.1403
13166TIP3   OH260912   6.154   4.483   5.040 -0.5385 -0.5420  0.5349
13166TIP3    H160913   6.239   4.455   5.075 -1.3341 -0.1004  2.9131
13166TIP3    H260914   6.100   4.498   5.118 -1.9722  1.7532 -0.8472
13167TIP3   OH260915   2.156   5.773   3.423 -0.4696 -0.4109  0.1784
13167TIP3    H160916   2.176   5.821   3.504 -1.2937  3.4312 -1.7812
13167TIP3    H260917   2.110   5.694   3.453  0.4957  0.1998  3.5199
13168TIP3   OH260918   3.188   1.463   0.958 -0.0866  0.0500  0.4632
13168TIP3    H160919   3.218   1.428   1.042 -0.0865 -0.1061  0.3987
13168TIP3    H260920   3.123   1.529   0.981 -1.4808 -1.3196  0.5372
13169TIP3   OH260921   4.973   0.759   4.225 -0.0539  0.0913  0.2789
13169TIP3    H160922   4.947   0.700   4.295  1.8441 -1.7267 -0.5012
13169TIP3    H260923   4.891   0.802   4.198 -1.8949 -3.7290 -0.5803
13170TIP3   OH260924   4.704   6.217  12.157  0.0318  0.4757 -0.0376
13170TIP3    H160925   4.777   6.270  12.189 -1.2623  0.3977  3.2017
13170TIP3    H260926   4.730   6.127  12.175 -0.4904  0.4038  0.3753
13171TIP3   OH260927   6.100   6.508   3.489  0.4885  0.1555  0.3657
13171TIP3    H160928   6.184   6.494   3.531 -0.0457 -1.5204  0.9142
13171TIP3    H260929   6.121   6.546   3.404  1.8682 -1.2308  0.0718
13172TIP3   OH260930   2.978   4.948  15.845  0.3294  0.2865 -0.3536
13172TIP3    H160931   2.940   4.902  15.921  0.4163  2.2772  0.9246
13172TIP3    H260932   3.072   4.936  15.856  0.5152  2.9458  1.4654
13173TIP3   OH260933   3.099   4.127   3.532  0.6140  0.0588  0.2133
13173TIP3    H160934   3.105   4.203   3.475  0.3198  0.0724  0.1982
13173TIP3    H260935   3.188   4.113   3.564  0.9226 -0.3794 -0.8100
13174TIP3   OH260936   3.350   0.833   2.517  0.0594 -0.1685 -0.8769
13174TIP3    H160937   3.339   0.763   2.581 -1.7161  1.8708  1.1794
13174TIP3    H260938   3.276   0.823   2.457  0.2258 -0.4862 -1.0296
13175TIP3   OH260939   6.136   0.218  12.247  0.2443 -0.3164  0.1032
13175TIP3    H160940   6.104   0.289  12.192  1.7606  0.7699  0.5907
13175TIP3    H260941   6.199   0.171  12.193 -0.8111 -1.3720 -0.2460
13176TIP3   OH260942   6.205   6.641  12.147 -0.2197  0.2048 -0.4559
13176TIP3    H160943   6.174   6.590  12.221  0.0291  1.0004  0.2116
13176TIP3    H260944   6.126   6.680  12.110 -0.2965  0.1799 -0.3200
13177TIP3   OH260945   5.971   1.460  13.869 -0.3018  0.6183  0.0623
13177TIP3    H160946   5.976   1.371  13.834  0.5678  1.0367 -0.8951
13177TIP3    H260947   5.995   1.451  13.961 -2.0171 -0.4041  0.4336
13178TIP3   OH260948   2.955   0.115  15.725 -0.0590 -0.0033 -0.1664
13178TIP3    H160949   2.932   0.145  15.636  1.7499  1.3565 -0.2002
13178TIP3    H260950   3.013   0.183  15.758 -1.1489 -0.2340  2.2838
13179TIP3   OH260951   5.040   4.365   3.840 -0.3001  0.4184 -0.0449
13179TIP3    H160952   4.984   4.402   3.908  1.4923  0.6974  1.3243
13179TIP3    H260953   5.016   4.413   3.761 -1.4747  1.0311  0.6647
13180TIP3   OH260954   3.989   3.932  11.880  1.0964  0.3974  0.4268
13180TIP3    H160955   3.938   4.013  11.891 -0.6758 -0.5901 -0.3123
13180TIP3    H260956   3.978   3.886  11.963 -2.2106 -1.4312 -0.9056
13181TIP3   OH260957   3.975   0.356   5.510 -0.6692  0.5855 -0.1872
13181TIP3    H160958   4.024   0.438   5.512  0.0241  0.2537 -2.0235
13181TIP3    H260959   3.908   0.366   5.577  0.7968  1.7615  1.1471
13182TIP3   OH260960   2.746   3.468   0.055  0.3961  0.6945  0.4788
13182TIP3    H160961   2.812   3.522   0.011 -0.6049 -0.1492 -2.1175
13182TIP3    H260962   2.675   3.529   0.075 -0.0880  0.6651 -1.0852
13183TIP3   OH260963   6.192   4.833  12.619 -0.6509  0.5495 -0.2988
13183TIP3    H160964   6.167   4.926  12.622  1.6156  1.1793  0.1347
13183TIP3    H260965   6.169   4.799  12.705  0.1306  1.1814  0.1762
13184TIP3   OH260966   4.179   2.793   0.606  0.2469  0.4663  0.0249
13184TIP3    H160967   4.125   2.725   0.564 -1.4557  1.1578  1.0544
13184TIP3    H260968   4.247   2.744   0.652 -0.3437 -0.4974 -0.1080
13185TIP3   OH260969   0.174   0.910  13.034  0.3010 -0.7359 -0.1201
13185TIP3    H160970   0.153   0.955  12.952  0.9287  0.4015  0.3332
13185TIP3    H260971   0.258   0.947  13.061 -0.3759 -0.3733  1.5554
13186TIP3   OH260972   0.223   6.565  14.354  0.6111 -0.7268 -0.0155
13186TIP3    H160973   0.250   6.575  14.262 -1.4745 -1.6077 -0.7719
13186TIP3    H260974   0.135   6.603  14.357  1.9138  2.2646  2.3992
13187TIP3   OH260975   5.134   2.427  11.124  0.1876 -0.6195 -0.4091
13187TIP3    H160976   5.186   2.494  11.079  0.6257 -0.4775  0.2945
13187TIP3    H260977   5.063   2.407  11.064 -0.3328  0.9801 -0.3354
13188TIP3   OH260978   0.770   1.288  12.208  0.5138 -0.3170 -0.0253
13188TIP3    H160979   0.859   1.315  12.183 -0.0418  1.3942 -0.2194
13188TIP3    H260980   0.749   1.342  12.284 -0.8755  0.2788 -0.8104
13189TIP3   OH260981   1.586   0.363   2.264  0.2090  0.4076 -0.3906
13189TIP3    H160982   1.627   0.364   2.350  1.5578 -0.4546 -1.0026
13189TIP3    H260983   1.617   0.444   2.222 -0.7982  1.0476  0.0807
13190TIP3   OH260984   2.024   4.669   1.903  0.4540  0.6482 -0.2133
13190TIP3    H160985   2.062   4.661   1.990 -0.5939 -1.1684  0.0936
13190TIP3    H260986   1.932   4.691   1.918  0.1729 -0.0603 -0.8478
13191TIP3   OH260987   2.535   0.290   1.428  0.3284 -0.1959 -0.3453
13191TIP3    H160988   2.596   0.345   1.380 -0.9873  1.1877 -0.4865
13191TIP3    H260989   2.496   0.348   1.494  0.4028 -1.4765  0.8569
13192TIP3   OH260990   0.170   0.278   2.456 -0.1471  0.5022  0.1312
13192TIP3    H160991   0.181   0.245   2.545 -0.3286 -1.2759 -0.4676
13192TIP3    H260992   0.250   0.252   2.411  0.3586  2.2319 -0.0014
13193TIP3   OH260993   0.617   5.609   3.309 -0.0249  0.5513  0.6184
13193TIP3    H160994   0.526   5.586   3.289  0.7763 -1.0524 -1.4284
13193TIP3    H260995   0.665   5.527   3.301  1.6892  1.4672  1.1955
13194TIP3   OH260996   2.793   0.307  11.863  0.0110 -0.3553  0.2998
13194TIP3    H160997   2.754   0.328  11.948  0.6485  0.3658  0.4237
13194TIP3    H260998   2.834   0.389  11.835 -1.5928 -0.1185 -1.4687
13195TIP3   OH260999   0.516   2.672  15.906  0.1157  0.6500 -0.5663
13195TIP3    H161000   0.609   2.667  15.882  0.3175 -1.1726  0.4672
13195TIP3    H261001   0.474   2.607  15.850 -0.4008  0.8087 -0.3633
13196TIP3   OH261002   0.817   1.523   0.653 -0.0640 -0.1282 -0.5760
13196TIP3    H161003   0.832   1.458   0.584  2.1273  0.5589 -0.7955
13196TIP3    H261004   0.752   1.583   0.616 -0.5381 -1.0189 -1.1885
13197TIP3   OH261005   4.730   1.184   5.332  0.4897 -0.4732  0.6486
13197TIP3    H161006   4.683   1.223   5.259  0.7029  0.5262  1.0371
13197TIP3    H261007   4.690   1.097   5.343 -1.4188  0.4384  1.1266
13198TIP3   OH261008   3.213   0.307  11.927 -0.7684  0.0110 -0.3217
13198TIP3    H161009   3.160   0.359  11.866 -0.0637  1.8572  0.5959
13198TIP3    H261010   3.303   0.329  11.904 -0.4866  0.1078  0.8325
13199TIP3   OH261011   6.786   3.078  12.766  0.3350  0.0912  0.3576
13199TIP3    H161012   6.763   3.119  12.683  0.0909 -1.2403 -0.2419
13199TIP3    H261013   6.706   3.032  12.792  0.1338  1.2004  1.7627
13200TIP3   OH261014   0.593   2.875  13.795  0.1715 -0.4590 -0.1709
13200TIP3    H161015   0.583   2.878  13.700 -0.9863 -2.5052 -0.1547
13200TIP3    H261016   0.639   2.955  13.818  1.4537 -0.4828 -2.5842
13201TIP3   OH261017   1.507   2.568  11.042 -0.4275  0.3378 -0.0395
13201TIP3    H161018   1.576   2.620  11.002  0.1335 -0.4095 -0.0492
13201TIP3    H261019   1.552   2.509  11.102 -0.9393 -0.9276 -0.8716
13202TIP3   OH261020   2.352   5.500  16.709  0.0874 -0.1743  0.4327
13202TIP3    H161021   2.367   5.467  16.620  0.3370 -0.9228  0.7411
13202TIP3    H261022   2.404   5.442  16.764 -0.0679  0.2894  1.0682
13203TIP3   OH261023   5.287   1.460  13.387 -0.4555 -0.2217 -0.2253
13203TIP3    H161024   5.209   1.513  13.371  0.1137  0.1610 -1.8513
13203TIP3    H261025   5.358   1.523  13.397  0.1938 -0.6224 -1.9964
13204TIP3   OH261026   5.809   1.672  13.965  0.3302 -0.2590  0.3425
13204TIP3    H161027   5.803   1.633  14.051 -3.3267 -1.2515 -0.2622
13204TIP3    H261028   5.866   1.614  13.915  0.0609 -1.2901  1.2337
13205TIP3   OH261029   5.415   3.963  15.233 -0.2495 -0.3672 -0.0514
13205TIP3    H161030   5.493   3.919  15.198  0.0614  0.7977 -0.8292
13205TIP3    H261031   5.414   3.940  15.326  1.2290 -0.0871  0.0414
13206TIP3   OH261032   5.913   3.842  15.288  0.0620  0.0865 -0.3939
13206TIP3    H161033   5.953   3.861  15.204 -0.5922 -3.7938 -1.7247
13206TIP3    H261034   5.986   3.819  15.345  0.2435 -0.7648 -0.9623
13207TIP3   OH261035   4.820   0.990   1.034 -0.5282  0.6399 -0.4272
13207TIP3    H161036   4.857   0.973   0.947 -0.7085  1.3472 -0.6465
13207TIP3    H261037   4.816   0.904   1.075  1.5842  0.5654 -0.3136
13208TIP3   OH261038   0.671   0.538   3.276  0.2503  0.7184  0.0293
13208TIP3    H161039   0.731   0.555   3.203 -0.4395 -0.3998 -0.8249
13208TIP3    H261040   0.719   0.478   3.333  0.9105  1.8379  0.6695
13209TIP3   OH261041   6.648   4.001   1.841 -0.1137 -0.2524 -0.4804
13209TIP3    H161042   6.710   3.932   1.819  0.4469 -0.3554  1.3771
13209TIP3    H261043   6.568   3.954   1.868 -0.1762 -0.1521 -0.4898
13210TIP3   OH261044   6.214   5.784  15.836 -0.2892  0.2226 -0.2363
13210TIP3    H161045   6.244   5.752  15.751  2.5492 -0.9708  1.1492
13210TIP3    H261046   6.176   5.870  15.817  3.2233  1.4398 -2.2893
13211TIP3   OH261047   4.877   4.111   0.499 -0.1444  0.2717 -0.9205
13211TIP3    H161048   4.811   4.180   0.510 -1.3461 -0.7857 -1.4327
13211TIP3    H261049   4.879   4.095   0.404 -0.4232 -0.9184 -0.7353
13212TIP3   OH261050   4.730   3.590   1.453  0.1297 -0.0831  0.2304
13212TIP3    H161051   4.698   3.500   1.441  1.6009 -0.6352  0.3697
13212TIP3    H261052   4.781   3.608   1.375  2.1275 -0.3877  1.4232
13213TIP3   OH261053   0.669   6.660  15.148  0.1365 -0.2614  0.7032
13213TIP3    H161054   0.724   6.615  15.211 -0.7190 -1.0213  0.9250
13213TIP3    H261055   0.646   6.592  15.084  1.8478  0.7404 -1.0057
13214TIP3   OH261056   4.609   6.047  14.536 -0.2934 -0.5711 -0.5220
13214TIP3    H161057   4.687   6.015  14.581 -0.5887 -0.9161 -0.2544
13214TIP3    H261058   4.598   6.136  14.567 -1.3356 -1.2844  1.2090
13215TIP3   OH261059   2.379   0.777   4.743 -0.3169 -0.7521 -0.3093
13215TIP3    H161060   2.395   0.810   4.655  0.4337 -1.5891 -0.5007
13215TIP3    H261061   2.308   0.714   4.733  0.3405 -1.4827 -0.4735
13216TIP3   OH261062   3.345   3.876  12.950  0.0674 -1.0306 -0.6102
13216TIP3    H161063   3.405   3.801  12.950  0.3371 -0.8148 -0.3833
13216TIP3    H261064   3.273   3.849  12.894 -0.2368 -1.7888  0.1377
13217TIP3   OH261065   6.670   6.617  11.753  0.2860  0.4509  0.1335
13217TIP3    H161066   6.762   6.635  11.772  0.6700  0.7282 -1.8777
13217TIP3    H261067   6.672   6.559  11.677 -1.1983  1.1132 -0.4381
13218TIP3   OH261068   0.988   2.587   0.402 -0.0662  0.0262 -0.2244
13218TIP3    H161069   1.000   2.574   0.308  3.1084  0.8860 -0.0233
13218TIP3    H261070   1.034   2.669   0.420 -0.4851 -0.2225  2.1142
13219TIP3   OH261071   4.717   0.948  11.757  0.0795  0.8602 -0.5859
13219TIP3    H161072   4.638   0.925  11.708 -0.1563  1.4919 -0.5121
13219TIP3    H261073   4.778   0.877  11.739 -0.7940 -0.0796  0.0285
13220TIP3   OH261074   3.014   4.787   6.439 -0.2930  0.0523  0.2599
13220TIP3    H161075   2.943   4.812   6.498 -1.1619  0.1134 -0.7957
13220TIP3    H261076   3.056   4.869   6.415 -2.8667  0.5674 -2.8533
13221TIP3   OH261077   4.309   4.540   5.109 -0.0970  0.0524  0.3656
13221TIP3    H161078   4.264   4.608   5.159  0.6795  0.1873  0.8896
13221TIP3    H261079   4.249   4.465   5.111 -0.4874  0.3710  0.6793
13222TIP3   OH261080   0.311   0.638   4.161  0.8606 -0.3295  0.9536
13222TIP3    H161081   0.294   0.590   4.242  0.5884 -0.8183  0.6087
13222TIP3    H261082   0.377   0.702   4.185 -1.3307  1.5085  2.2757
13223TIP3   OH261083   5.075   4.460  15.520 -0.1453 -0.0974 -0.2486
13223TIP3    H161084   5.168   4.449  15.500 -0.0684 -1.2968  0.7108
13223TIP3    H261085   5.037   4.498  15.440  0.8109 -1.3829 -1.3368
13224TIP3   OH261086   1.270   6.686  12.051 -0.1374  0.2529 -0.2730
13224TIP3    H161087   1.292   6.670  11.959 -2.2194  1.6992 -1.0674
13224TIP3    H261088   1.241   6.601  12.084 -0.7694  0.0346 -1.3686
13225TIP3   OH261089   0.964   6.407  15.325 -0.0395  0.0955 -0.0712
13225TIP3    H161090   0.877   6.390  15.289 -0.9040  0.7570  1.6287
13225TIP3    H261091   0.971   6.502  15.328  0.6491  0.0444 -0.0071
13226TIP3   OH261092   4.079   1.056  11.566  0.3492 -0.3580 -0.4866
13226TIP3    H161093   4.097   1.130  11.507  1.0835 -2.0027 -2.3978
13226TIP3    H261094   4.161   1.007  11.568  0.8565  0.5028  3.2494
13227TIP3   OH261095   1.352   4.600   2.986  0.3973  0.0282  0.6260
13227TIP3    H161096   1.442   4.605   3.018  0.5122 -0.8794  0.4780
13227TIP3    H261097   1.350   4.521   2.931 -0.2559  0.5531 -0.1234
13228TIP3   OH261098   4.851   4.323  13.262 -0.2205 -0.3627  0.1609
13228TIP3    H161099   4.881   4.359  13.179  0.4762 -0.4984  0.3477
13228TIP3    H261100   4.812   4.239  13.240  1.4774 -1.1628  0.1696
13229TIP3   OH261101   4.845   5.816   0.894 -0.0672 -0.7193 -0.2257
13229TIP3    H161102   4.772   5.875   0.913  0.2650 -0.0139 -1.1181
13229TIP3    H261103   4.864   5.774   0.977 -0.7600 -0.0795  0.2625
13230TIP3   OH261104   0.144   6.591  11.846 -0.1557  0.1894 -0.1315
13230TIP3    H161105   0.238   6.608  11.847  0.0866 -0.9142 -2.2586
13230TIP3    H261106   0.118   6.597  11.938  2.3193 -1.2571  0.7133
13231TIP3   OH261107   2.261   5.001   1.442 -0.3944 -0.4196  0.1057
13231TIP3    H161108   2.299   5.081   1.405 -0.9712 -1.1844 -2.2260
13231TIP3    H261109   2.170   5.024   1.459  0.0772  0.1964  1.9514
13232TIP3   OH261110   5.140   0.296  13.567 -0.0859  0.5208  0.3036
13232TIP3    H161111   5.059   0.323  13.525  0.2422 -0.9973 -1.3956
13232TIP3    H261112   5.183   0.377  13.593 -1.0730  1.4303 -0.8678
13233TIP3   OH261113   3.013   6.219   4.903 -0.2834  0.1949  0.4689
13233TIP3    H161114   3.044   6.299   4.945  0.6233 -1.1186  2.3616
13233TIP3    H261115   2.924   6.240   4.876  0.4178  2.2937 -0.3292
13234TIP3   OH261116   3.032   2.724  12.855  0.4741  0.3951 -0.2927
13234TIP3    H161117   3.005   2.656  12.917  0.6358 -0.1345 -0.7941
13234TIP3    H261118   2.985   2.703  12.775 -0.5632  1.7132 -0.0365
13235TIP3   OH261119   5.936   3.329  11.825  0.7615 -0.1945 -0.1572
13235TIP3    H161120   5.899   3.368  11.746  3.1278  0.5323 -0.9304
13235TIP3    H261121   5.930   3.398  11.891  0.8296 -0.0379 -0.3127
13236TIP3   OH261122   1.673   4.243   6.273  0.0309 -0.0773 -0.3831
13236TIP3    H161123   1.644   4.321   6.224  0.6952  1.9489  2.3100
13236TIP3    H261124   1.592   4.205   6.306 -0.3345 -0.8096 -2.0849
13237TIP3   OH261125   3.537   5.874  15.769  0.4092  0.1184 -0.1802
13237TIP3    H161126   3.466   5.929  15.803 -0.5074 -1.5545  0.6375
13237TIP3    H261127   3.590   5.935  15.717  0.0952  2.0555  1.6732
13238TIP3   OH261128   4.670   0.895  13.441  0.5402  0.0358 -0.2231
13238TIP3    H161129   4.605   0.960  13.413  1.3022 -0.1020 -2.4164
13238TIP3    H261130   4.668   0.828  13.373  0.6190 -1.6578  1.4025
13239TIP3   OH261131   4.889   0.084  14.161  0.2242 -0.8141  0.6490
13239TIP3    H161132   4.863   0.082  14.069 -0.7814  0.9149  0.8947
13239TIP3    H261133   4.925  -0.004  14.176  0.7628 -1.0055 -1.4816
13240TIP3   OH261134   2.820   4.492  16.105 -0.4022 -0.3187  0.5622
13240TIP3    H161135   2.855   4.489  16.194 -0.6187 -2.2002  0.6084
13240TIP3    H261136   2.888   4.454  16.050 -1.3670 -1.7763  0.3304
13241TIP3   OH261137   6.656   2.191   4.450 -0.2869  0.2114 -0.5890
13241TIP3    H161138   6.603   2.260   4.410 -0.7665 -0.3935 -1.0119
13241TIP3    H261139   6.678   2.224   4.537 -1.0711  0.6173 -0.5459
13242TIP3   OH261140   1.883   1.194  14.245 -0.5109  0.1534 -0.1340
13242TIP3    H161141   1.911   1.286  14.241  1.2994 -0.3331  1.0146
13242TIP3    H261142   1.870   1.177  14.338  0.7857 -1.2427 -0.2098
13243TIP3   OH261143   1.371   3.896  11.552 -0.0356 -0.0311  0.8821
13243TIP3    H161144   1.374   3.990  11.571 -0.6393 -0.6442  4.3413
13243TIP3    H261145   1.284   3.869  11.580  0.5022 -1.8255  0.8508
13244TIP3   OH261146   4.366   4.968   6.431  0.2932 -0.0884  0.2094
13244TIP3    H161147   4.362   4.934   6.341  0.2264 -0.1347  0.2304
13244TIP3    H261148   4.433   4.915   6.473  0.6949  0.2866  0.0353
13245TIP3   OH261149   5.239   2.199   5.065  0.3529  0.3826  0.4577
13245TIP3    H161150   5.326   2.214   5.028  0.6831 -1.2681  0.5292
13245TIP3    H261151   5.211   2.285   5.095  1.6051  1.0861 -0.3367
13246TIP3   OH261152   0.908   1.230   1.745 -0.6056 -0.2087 -0.3221
13246TIP3    H161153   0.963   1.271   1.678  0.0832  2.2987  1.7066
13246TIP3    H261154   0.872   1.152   1.702  2.7461 -0.7011 -2.4127
13247TIP3   OH261155   3.284   5.987   0.075 -0.4382 -0.7438  0.0810
13247TIP3    H161156   3.224   5.914   0.060 -1.3989  0.2335 -0.9148
13247TIP3    H261157   3.238   6.064   0.042  1.3897  0.0274 -0.7720
13248TIP3   OH261158   6.536   5.343   4.966  0.3749  0.2461 -0.8850
13248TIP3    H161159   6.540   5.410   5.035  0.4293  0.9237 -1.5306
13248TIP3    H261160   6.626   5.337   4.934  0.3048  0.1227 -1.0608
13249TIP3   OH261161   0.325   5.958   0.484 -0.6810  0.1453 -0.3099
13249TIP3    H161162   0.372   5.923   0.408  0.9035  2.5932 -0.4975
13249TIP3    H261163   0.233   5.939   0.466 -0.1805 -0.7915 -2.0360
13250TIP3   OH261164   2.957   4.448  15.004  0.2664  0.2062 -0.0695
13250TIP3    H161165   2.933   4.381  15.068  1.1394 -1.0894 -1.0676
13250TIP3    H261166   2.994   4.399  14.931  0.6047  1.7666 -0.9690
13251TIP3   OH261167   2.007   6.397   1.621  0.2230  0.0559 -0.5969
13251TIP3    H161168   2.026   6.304   1.631 -0.8039 -0.1641 -0.6286
13251TIP3    H261169   1.946   6.401   1.547 -0.2879  0.6802 -0.1436
13252TIP3   OH261170   2.920   0.852  13.128 -0.4429  0.7448 -0.3469
13252TIP3    H161171   2.834   0.834  13.167 -0.6719 -0.4239 -1.3615
13252TIP3    H261172   2.902   0.861  13.034  0.8616 -1.8231 -0.8807
13253TIP3   OH261173   2.112   5.565   5.961  0.0407 -0.3639 -0.2336
13253TIP3    H161174   2.057   5.552   5.884 -0.8451  0.2859  0.2745
13253TIP3    H261175   2.080   5.646   6.000 -0.3844 -1.3289  1.5071
13254TIP3   OH261176   4.992   5.295  10.383  0.0434  0.1667  0.7074
13254TIP3    H161177   5.073   5.244  10.389 -0.2877 -0.5681 -0.7640
13254TIP3    H261178   5.011   5.377  10.428  1.6689  0.0749  0.2061
13255TIP3   OH261179   5.314   3.911   4.348 -0.1918  0.3920  0.0472
13255TIP3    H161180   5.384   3.972   4.323  0.0098  1.1818  2.4509
13255TIP3    H261181   5.245   3.967   4.382 -0.4343 -0.6446  1.3058
13256TIP3   OH261182   0.686   1.772   0.534  0.3779 -0.2105  0.2017
13256TIP3    H161183   0.632   1.805   0.606 -0.1975  0.4499 -0.5184
13256TIP3    H261184   0.705   1.850   0.481 -1.6199 -1.1089 -1.9221
13257TIP3   OH261185   3.271   6.459   4.618  0.3994 -0.5275 -0.1204
13257TIP3    H161186   3.185   6.432   4.584  0.6631 -0.6202 -0.7176
13257TIP3    H261187   3.258   6.550   4.646 -0.8922 -1.6674  3.2851
13258TIP3   OH261188   0.950   1.925   3.251  0.3594 -0.0306 -0.4912
13258TIP3    H161189   1.045   1.933   3.262  0.2915 -0.9617  0.7598
13258TIP3    H261190   0.917   2.014   3.265  0.7719 -0.2310  1.9025
13259TIP3   OH261191   5.644   0.943   1.564  0.3073 -0.4563  0.5538
13259TIP3    H161192   5.641   1.028   1.608  1.1795 -0.9355  1.5951
13259TIP3    H261193   5.651   0.964   1.471  1.7911  0.6385  0.8816
13260TIP3   OH261194   1.719   5.922  12.762 -0.2998 -0.1283 -0.1761
13260TIP3    H161195   1.639   5.901  12.810  0.5848 -1.8712  0.6097
13260TIP3    H261196   1.739   5.843  12.712  0.5309  0.5421 -0.9377
13261TIP3   OH261197   5.619   2.279   2.006  0.2865  0.2094  0.0434
13261TIP3    H161198   5.698   2.330   2.022  0.5927 -0.1329 -0.3621
13261TIP3    H261199   5.551   2.344   1.991  0.5099  0.5045  0.3130
13262TIP3   OH261200   5.490   3.333   5.740 -0.2930 -0.0603  0.6042
13262TIP3    H161201   5.474   3.263   5.677 -0.3145 -0.1469  0.7060
13262TIP3    H261202   5.579   3.318   5.770  0.2973  0.9337 -0.6047
13263TIP3   OH261203   2.692   3.601   4.639  0.6121  0.0392 -0.0937
13263TIP3    H161204   2.641   3.662   4.692 -0.8036 -1.8483  0.8060
13263TIP3    H261205   2.783   3.628   4.651  0.2436  0.2087  2.6064
13264TIP3   OH261206   2.079   3.509   2.518  0.4316  0.4647 -0.3957
13264TIP3    H161207   2.037   3.425   2.498 -1.5424  1.2690  0.1985
13264TIP3    H261208   2.172   3.494   2.503  0.1423 -1.9122 -0.0223
13265TIP3   OH261209   3.212   0.402   5.314  0.0134 -0.6294  0.4054
13265TIP3    H161210   3.272   0.330   5.332 -0.4845 -0.8753  1.1251
13265TIP3    H261211   3.268   0.480   5.308  0.1833 -0.3912  3.8288
13266TIP3   OH261212   5.296   1.801   2.002  0.1265 -0.4829 -0.4589
13266TIP3    H161213   5.267   1.873   1.947  0.0490 -0.4107 -0.3228
13266TIP3    H261214   5.337   1.843   2.078 -0.7777 -0.5708  0.0845
13267TIP3   OH261215   2.504   0.265  16.060 -1.2407 -0.4664 -0.3679
13267TIP3    H161216   2.470   0.211  15.988 -1.7225  1.4755 -1.6229
13267TIP3    H261217   2.586   0.301  16.026 -0.2537 -1.4198  0.9498
13268TIP3   OH261218   4.310   0.164   3.685 -0.0090  0.6694 -0.6589
13268TIP3    H161219   4.348   0.207   3.608 -0.6164 -1.5889 -2.2995
13268TIP3    H261220   4.239   0.111   3.650  0.0341 -0.8120  1.3911
13269TIP3   OH261221   5.005   4.027   3.172  0.1743 -0.6071 -0.0251
13269TIP3    H161222   5.083   4.081   3.157 -0.2553  0.1118  0.3035
13269TIP3    H261223   4.954   4.076   3.237  1.0750 -2.7144  2.3542
13270TIP3   OH261224   1.729   1.136  12.181  0.1207 -0.6073 -0.1242
13270TIP3    H161225   1.735   1.227  12.151 -2.2020 -0.2795  0.3107
13270TIP3    H261226   1.755   1.140  12.273  0.7247 -0.5086 -0.2967
13271TIP3   OH261227   3.486   2.243  14.829  0.0908  0.4679 -0.2967
13271TIP3    H161228   3.547   2.283  14.767  1.4183 -0.3373  0.4625
13271TIP3    H261229   3.442   2.316  14.871 -0.6595  1.0311 -2.0259
13272TIP3   OH261230   3.597   2.252   0.897 -0.3290  0.3596  0.4287
13272TIP3    H161231   3.576   2.160   0.909  2.1340  0.0500  2.6737
13272TIP3    H261232   3.654   2.254   0.820 -0.1694 -0.0251  0.5385
13273TIP3   OH261233   0.356   4.379   0.307 -0.3463  0.5167  0.1340
13273TIP3    H161234   0.369   4.426   0.225  0.5329 -0.0821 -0.0758
13273TIP3    H261235   0.325   4.446   0.368 -0.6137  1.0462 -0.5777
13274TIP3   OH261236   3.236   2.101  16.218 -0.2892 -0.2710  0.0347
13274TIP3    H161237   3.286   2.069  16.142  0.2592 -2.0061  1.0977
13274TIP3    H261238   3.163   2.149  16.180 -1.2686 -2.9969 -1.6717
13275TIP3   OH261239   4.164   3.875   4.811  0.1304  0.2485  0.2874
13275TIP3    H161240   4.164   3.793   4.762 -1.4024 -2.3416  4.3031
13275TIP3    H261241   4.071   3.891   4.829  0.6162  1.3099  1.9388
13276TIP3   OH261242   3.004   1.722   1.770  0.2381 -0.0164 -1.0699
13276TIP3    H161243   2.920   1.768   1.761  0.0553 -0.2650 -0.6528
13276TIP3    H261244   3.053   1.748   1.692 -0.5768 -0.5969 -1.7972
13277TIP3   OH261245   4.652   3.447  15.886 -0.0736 -0.4935 -0.3765
13277TIP3    H161246   4.654   3.424  15.979  1.4401 -1.8990 -0.7277
13277TIP3    H261247   4.566   3.418  15.855 -0.8700  0.6317  0.7158
13278TIP3   OH261248   4.489   4.687  15.776  0.1520  0.2338  0.0323
13278TIP3    H161249   4.437   4.616  15.812  0.0230  1.1265  1.6289
13278TIP3    H261250   4.426   4.758  15.761 -0.0305 -0.5062 -3.1103
13279TIP3   OH261251   5.304   3.768   5.571 -0.1000 -0.5097  0.1811
13279TIP3    H161252   5.237   3.823   5.611 -0.5620 -2.1849  1.7691
13279TIP3    H261253   5.264   3.681   5.567  0.8969 -0.9159 -1.5878
13280TIP3   OH261254   4.872   1.478  16.171 -0.8803  0.0453  0.2780
13280TIP3    H161255   4.956   1.482  16.125 -0.5148  0.3420  0.9634
13280TIP3    H261256   4.820   1.548  16.132 -0.6459  0.1588  0.1661
13281TIP3   OH261257   6.334   1.462  15.016 -0.4143 -0.0257  0.1593
13281TIP3    H161258   6.276   1.425  14.949 -0.3300 -0.8243  0.5247
13281TIP3    H261259   6.408   1.495  14.966 -0.4192 -0.4825 -0.1627
13282TIP3   OH261260   5.179   4.622   2.840  1.1999 -0.6493  0.2768
13282TIP3    H161261   5.197   4.551   2.779  0.6758  0.6613 -1.4149
13282TIP3    H261262   5.235   4.693   2.812 -0.0498  0.4348  0.4739
13283TIP3   OH261263   4.302   3.051  12.592 -0.3073 -0.1150 -0.3105
13283TIP3    H161264   4.311   3.133  12.640  0.4615 -1.0539  1.1728
13283TIP3    H261265   4.215   3.018  12.618  0.0554 -0.5590  0.3645
13284TIP3   OH261266   0.417   2.958  11.570  0.7705 -0.2201  0.3408
13284TIP3    H161267   0.412   3.031  11.508 -1.1282 -1.4237 -0.9860
13284TIP3    H261268   0.483   2.899  11.534 -0.2269 -0.8469 -0.4963
13285TIP3   OH261269   6.384   2.473   4.273 -0.5555  0.2462  0.0458
13285TIP3    H161270   6.309   2.414   4.280  0.0819 -0.7168 -0.9790
13285TIP3    H261271   6.432   2.460   4.355  0.1473 -1.4815 -0.6087
13286TIP3   OH261272   3.673   1.372   4.474  0.2187 -0.2978 -0.5219
13286TIP3    H161273   3.634   1.287   4.494 -3.8000  1.1616 -1.7183
13286TIP3    H261274   3.757   1.371   4.519 -0.9339 -3.8170  1.7383
13287TIP3   OH261275   2.844   5.087   4.785 -0.6830  0.4316 -0.2382
13287TIP3    H161276   2.876   5.119   4.700 -0.8179  0.6164 -0.2199
13287TIP3    H261277   2.813   4.998   4.766 -0.4168  0.3528 -0.3139
13288TIP3   OH261278   6.027   3.292  16.597  0.0846  0.8267  0.1269
13288TIP3    H161279   6.122   3.281  16.600  0.5331  4.2403  1.4742
13288TIP3    H261280   6.004   3.330  16.682 -2.6674 -0.9409  0.2492
13289TIP3   OH261281   3.772   1.911  17.126  0.1847  0.5623  0.2597
13289TIP3    H161282   3.723   1.932  17.206  1.1891  1.0536  0.7506
13289TIP3    H261283   3.782   1.996  17.081 -1.3104  0.1359 -0.9345
13290TIP3   OH261284   4.030   3.828  12.393 -0.2615 -0.2784  0.8394
13290TIP3    H161285   4.079   3.799  12.470 -1.0836  1.8646  2.2243
13290TIP3    H261286   3.947   3.861  12.428 -1.8221 -1.8070 -1.2549
13291TIP3   OH261287   6.345   6.094  12.125 -0.3736  0.3948  0.4092
13291TIP3    H161288   6.325   6.171  12.072  0.7307  1.6690  1.8149
13291TIP3    H261289   6.267   6.081  12.179  0.5486  2.2872  2.2395
13292TIP3   OH261290   6.206   4.124   6.336 -0.1288 -0.3156 -0.1369
13292TIP3    H161291   6.213   4.219   6.345 -1.1546 -0.1673 -0.7303
13292TIP3    H261292   6.296   4.093   6.333  0.2123  0.6793 -0.3153
13293TIP3   OH261293   0.467   1.175  14.254 -0.5758  0.0809  0.3018
13293TIP3    H161294   0.538   1.127  14.210 -0.5815  0.0930  0.2796
13293TIP3    H261295   0.466   1.261  14.212 -1.5465 -0.4049 -0.6996
13294TIP3   OH261296   4.281   5.954  12.762 -0.4738 -0.2953 -0.1665
13294TIP3    H161297   4.358   5.898  12.766 -0.1784  0.0449 -1.0056
13294TIP3    H261298   4.308   6.029  12.709 -1.1031  0.2628  0.2888
13295TIP3   OH261299   6.026   0.185   3.119  0.2810 -0.0145 -0.3137
13295TIP3    H161300   5.993   0.250   3.057 -0.5248 -1.6657 -1.6568
13295TIP3    H261301   6.122   0.190   3.110  0.2983  2.2954  0.9960
13296TIP3   OH261302   5.066   0.242  13.128  0.1242  0.9478  0.4266
13296TIP3    H161303   5.134   0.308  13.136  1.6654 -0.4157 -0.9187
13296TIP3    H261304   5.105   0.163  13.167 -0.6927  0.1817 -0.2740
13297TIP3   OH261305   5.860   4.978  17.206 -0.0356 -0.0680  0.0935
13297TIP3    H161306   5.848   5.073  17.207  0.0658 -0.0392 -1.0233
13297TIP3    H261307   5.884   4.958  17.115 -0.5160 -1.2148  0.2200
13298TIP3   OH261308   2.923   5.501   4.493 -0.5872 -0.3522  0.0651
13298TIP3    H161309   2.869   5.459   4.560 -1.9256 -0.0603 -0.8268
13298TIP3    H261310   2.892   5.464   4.410  1.0966 -0.7509 -0.4028
13299TIP3   OH261311   1.906   4.427  11.753  0.5234 -0.3408 -0.7903
13299TIP3    H161312   1.849   4.433  11.676  0.9610 -0.3972 -1.1193
13299TIP3    H261313   1.944   4.339  11.748 -2.6966 -2.0192  1.7911
13300TIP3   OH261314   6.034   0.629  11.769  0.1679  0.1413  0.6414
13300TIP3    H161315   6.001   0.719  11.779  0.8373  0.3482  1.0133
13300TIP3    H261316   5.955   0.575  11.767 -0.1629  0.5175  2.6287
13301TIP3   OH261317   5.071   3.396  17.001 -0.2090 -0.1504 -0.0806
13301TIP3    H161318   5.059   3.318  17.055 -0.9952 -0.5284 -0.7869
13301TIP3    H261319   5.108   3.462  17.060 -0.4294 -0.7672  0.7404
13302TIP3   OH261320   3.167   4.037  16.866  0.5163 -0.0113  0.1862
13302TIP3    H161321   3.114   4.065  16.941  1.7141  1.9643  0.3381
13302TIP3    H261322   3.134   4.089  16.792 -0.8597 -2.1629 -0.7490
13303TIP3   OH261323   1.427   4.058  17.026  0.0810 -0.0210  0.1437
13303TIP3    H161324   1.343   4.103  17.018  0.0718 -0.1501 -0.5640
13303TIP3    H261325   1.419   4.006  17.106  0.1199  1.2768  1.0079
13304TIP3   OH261326   3.839   6.779   2.317 -0.1041  0.2080 -0.0621
13304TIP3    H161327   3.893   6.764   2.394  1.6351  1.7643 -0.9317
13304TIP3    H261328   3.815   6.692   2.286  2.2954 -0.5463  0.1005
13305TIP3   OH261329   4.859   4.106   2.910 -0.2370  0.1258 -0.2181
13305TIP3    H161330   4.782   4.060   2.945 -0.7049  0.5011 -0.7508
13305TIP3    H261331   4.934   4.058   2.947 -0.7159 -1.5000 -1.3166
13306TIP3   OH261332   1.080   5.028  12.667  0.3260  0.5459  0.0832
13306TIP3    H161333   1.104   4.999  12.579  0.1666 -0.5939  0.4185
13306TIP3    H261334   1.122   4.966  12.726 -0.2064  0.8453  0.7919
13307TIP3   OH261335   4.289   2.669   4.880 -0.0035  0.2393 -0.6541
13307TIP3    H161336   4.265   2.695   4.968 -0.5476 -2.4809  0.0447
13307TIP3    H261337   4.209   2.679   4.829 -0.3781 -0.6242 -0.2472
13308TIP3   OH261338   4.114   0.281   5.767 -0.0566  0.0433 -0.2192
13308TIP3    H161339   4.069   0.307   5.847  0.0984  0.2559 -0.1987
13308TIP3    H261340   4.059   0.316   5.696 -1.1896 -1.7779 -0.2541
13309TIP3   OH261341   1.478   6.670  12.841 -0.1607 -0.4504  0.0033
13309TIP3    H161342   1.439   6.722  12.771  1.8591  1.4633  0.2739
13309TIP3    H261343   1.403   6.645  12.896 -1.2978  1.3094 -0.6970
13310TIP3   OH261344   3.092   3.903  13.202 -0.0051 -0.5155  0.0357
13310TIP3    H161345   3.129   3.817  13.218  0.0226 -0.5181 -0.0412
13310TIP3    H261346   3.055   3.897  13.114  0.1475 -0.3990 -0.0377
13311TIP3   OH261347   1.815   4.870  17.183  0.5003 -0.0821  0.2018
13311TIP3    H161348   1.738   4.882  17.126  0.4893  0.3389  0.2999
13311TIP3    H261349   1.783   4.893  17.270  0.6094 -0.3927  0.3243
13312TIP3   OH261350   5.024   0.215  11.500  0.0439 -0.1630  0.2769
13312TIP3    H161351   4.987   0.188  11.584  1.5167 -0.5434  0.8191
13312TIP3    H261352   5.113   0.242  11.520 -0.0672  1.1808 -0.9342
13313TIP3   OH261353   4.350   4.534  11.733 -0.0628 -0.2657  0.3434
13313TIP3    H161354   4.387   4.618  11.759  1.7369 -1.5456  2.0643
13313TIP3    H261355   4.265   4.530  11.778  0.5980 -0.0916  1.6248
13314TIP3   OH261356   0.489   4.072  11.500  0.2761 -0.0538 -0.6424
13314TIP3    H161357   0.458   4.006  11.438 -0.7850  0.5572 -0.7743
13314TIP3    H261358   0.489   4.028  11.584  1.4405 -0.8012 -1.0239
13315TIP3   OH261359   6.665   5.028  14.454  0.7352 -0.0823  0.4296
13315TIP3    H161360   6.613   5.060  14.380  0.0161 -0.2692  0.8464
13315TIP3    H261361   6.746   5.080  14.450  0.7548 -0.1731 -0.5486
13316TIP3   OH261362   4.971   1.222  11.027 -0.5114 -0.0422  0.2166
13316TIP3    H161363   4.984   1.183  11.113  2.6652  1.9987  0.7609
13316TIP3    H261364   4.934   1.309  11.045 -1.0600 -0.1139 -0.5529
13317TIP3   OH261365   3.984   2.449   6.077  0.4936  0.1158  0.2849
13317TIP3    H161366   3.937   2.519   6.124  0.3074  0.3088 -0.1897
13317TIP3    H261367   4.030   2.495   6.007  3.3492  0.2674  2.1985
13318TIP3   OH261368   2.320   6.073  16.047  0.1952 -0.6623 -0.1176
13318TIP3    H161369   2.229   6.056  16.022 -0.1443 -0.0047  0.6575
13318TIP3    H261370   2.323   6.167  16.063  0.5572 -0.9582  1.6749
13319TIP3   OH261371   4.890   1.325  14.020 -0.1572 -0.0908 -0.1467
13319TIP3    H161372   4.926   1.293  14.102 -0.3052 -3.0925 -1.2005
13319TIP3    H261373   4.966   1.340  13.964 -0.2856 -3.3555 -1.2854
13320TIP3   OH261374   1.069   1.972  13.244 -0.4449 -0.3881  0.1442
13320TIP3    H161375   1.045   1.964  13.152  0.9160 -1.2705 -0.1551
13320TIP3    H261376   0.986   1.958  13.292 -1.3080  0.9068 -0.9453
13321TIP3   OH261377   4.776   0.548  10.147 -0.4315 -0.1917  0.7972
13321TIP3    H161378   4.685   0.520  10.159 -0.5063 -0.8025 -1.0703
13321TIP3    H261379   4.822   0.469  10.118  0.5483  0.2804  1.0486
13322TIP3   OH261380   6.529   4.402  10.453  0.3030 -0.0261 -0.1204
13322TIP3    H161381   6.515   4.381  10.360 -3.6021  0.2832  0.3136
13322TIP3    H261382   6.541   4.496  10.454  1.0163 -0.1128 -0.3811
13323TIP3   OH261383   1.253   3.388  12.153 -0.0915 -0.5822 -0.2192
13323TIP3    H161384   1.177   3.333  12.169 -0.1084 -1.0116 -1.7065
13323TIP3    H261385   1.327   3.328  12.152 -0.0866 -0.5646 -1.6432
13324TIP3   OH261386   4.055   6.066   2.359  0.4384 -0.0691 -0.4879
13324TIP3    H161387   3.983   6.007   2.379  0.4236 -0.0769 -0.5616
13324TIP3    H261388   4.038   6.144   2.411  1.3252 -0.7581  0.8789
13325TIP3   OH261389   5.950   5.983  13.804  0.4381 -0.0765  0.0578
13325TIP3    H161390   5.915   6.031  13.879  1.4069  0.6922  0.0227
13325TIP3    H261391   5.989   5.904  13.842  0.9324  0.3134  0.3600
13326TIP3   OH261392   6.109   1.284   5.617  0.0824 -0.1028  0.0177
13326TIP3    H161393   6.180   1.228   5.585  2.6256  2.5605  0.7988
13326TIP3    H261394   6.119   1.284   5.712 -0.2770  1.1611  0.0636
13327TIP3   OH261395   2.512   0.765   5.365 -1.5255 -0.2850  0.2231
13327TIP3    H161396   2.431   0.815   5.359 -0.7002  1.1817  1.0204
13327TIP3    H261397   2.498   0.704   5.438 -1.3197  1.0847  1.4192
13328TIP3   OH261398   4.991   4.576  11.141 -0.4611 -0.1855 -0.6659
13328TIP3    H161399   5.068   4.569  11.199 -0.6462 -0.5743 -0.4695
13328TIP3    H261400   5.001   4.505  11.079 -0.4357  0.0339 -0.9151
13329TIP3   OH261401   4.968   0.759   2.982 -0.2595  0.3552 -0.0696
13329TIP3    H161402   4.880   0.778   2.950 -0.5016 -1.0843 -0.2629
13329TIP3    H261403   4.954   0.709   3.063  0.3761  0.9339  0.4091
13330TIP3   OH261404   3.668   4.906  15.899  0.3587  0.1832  0.3189
13330TIP3    H161405   3.646   4.956  15.820  0.5399 -1.3001 -0.6885
13330TIP3    H261406   3.763   4.915  15.907  0.1442  1.7976  1.4024
13331TIP3   OH261407   5.276   4.375   1.155 -0.5917 -0.2582  0.6982
13331TIP3    H161408   5.232   4.305   1.203  0.5995  0.3005  2.6657
13331TIP3    H261409   5.369   4.351   1.159 -0.2372  1.1333  0.8935
13332TIP3   OH261410   1.077   3.320   0.466  0.1471  0.8953 -0.2134
13332TIP3    H161411   0.987   3.353   0.458 -0.6504 -0.7288  1.7429
13332TIP3    H261412   1.099   3.333   0.558  0.8620 -1.4208 -0.0427
13333TIP3   OH261413   1.518   2.633   2.672  0.2306 -0.0968 -0.1815
13333TIP3    H161414   1.499   2.711   2.725  2.5172  1.2275 -1.2200
13333TIP3    H261415   1.559   2.667   2.593 -0.7263 -2.2459 -1.6357
13334TIP3   OH261416   0.948   6.674  15.309  0.4715  0.1522 -0.1272
13334TIP3    H161417   0.914   6.728  15.237  0.8660  0.2679 -0.2260
13334TIP3    H261418   1.042   6.690  15.309  0.7972 -1.7290 -1.1401
13335TIP3   OH261419   4.954   6.073   4.754  0.0605 -0.0361 -0.6489
13335TIP3    H161420   4.972   6.141   4.818  1.7035  1.1391 -2.3179
13335TIP3    H261421   5.005   5.998   4.785  0.9255  0.5533 -0.6383
13336TIP3   OH261422   3.938   1.306   2.549 -0.1322 -0.4582 -0.0367
13336TIP3    H161423   3.850   1.284   2.580  0.1585  0.0406  1.1658
13336TIP3    H261424   3.994   1.293   2.626  0.1369  4.0271  0.6497
13337TIP3   OH261425   3.045   4.464  15.323  0.0176 -0.1019 -0.1639
13337TIP3    H161426   3.110   4.404  15.360  0.1081 -0.0542 -0.2438
13337TIP3    H261427   3.065   4.466  15.229 -0.5699 -0.6647 -0.2989
13338TIP3   OH261428   5.982   0.805  15.675 -0.4975 -0.1663 -0.1976
13338TIP3    H161429   5.986   0.720  15.719 -1.3574  1.1863  2.6775
13338TIP3    H261430   6.037   0.862  15.729  0.4471  1.0060 -2.3531
13339TIP3   OH261431   3.937   2.734  11.932  0.6257 -0.3236 -0.5079
13339TIP3    H161432   3.950   2.640  11.937  1.4226 -0.1481  1.1421
13339TIP3    H261433   4.002   2.764  11.868 -2.1877 -1.3044 -3.9874
13340TIP3   OH261434   1.350   6.137  15.821 -0.4288  0.0811 -0.2380
13340TIP3    H161435   1.381   6.200  15.756  0.1981  0.1485  0.1261
13340TIP3    H261436   1.429   6.090  15.849 -0.6993  0.0513  0.4759
13341TIP3   OH261437   3.729   0.317  13.139  0.4610 -0.4992 -0.3500
13341TIP3    H161438   3.728   0.260  13.215  1.3435 -1.3304 -0.9595
13341TIP3    H261439   3.637   0.344  13.128 -0.0224 -2.0442 -0.2364
13342TIP3   OH261440   5.841   0.858  15.108  0.0479  0.2624  0.3962
13342TIP3    H161441   5.765   0.816  15.067  0.6941 -1.0163  0.4863
13342TIP3    H261442   5.804   0.919  15.172 -0.9195  0.6348 -0.5078
13343TIP3   OH261443   4.312   2.246   5.270 -0.2359 -0.2237 -0.0799
13343TIP3    H161444   4.367   2.318   5.242  0.1776 -0.6997 -0.4903
13343TIP3    H261445   4.324   2.242   5.365 -1.3690  1.1624  0.1345
13344TIP3   OH261446   2.399   2.134   2.947 -0.3083 -0.1912  0.0031
13344TIP3    H161447   2.383   2.047   2.983  1.5814 -0.4486  0.2649
13344TIP3    H261448   2.399   2.122   2.853 -0.6609 -0.3624  0.0259
13345TIP3   OH261449   2.042   5.734  11.351  0.8569 -0.0256 -0.6307
13345TIP3    H161450   1.998   5.804  11.303  0.3989  0.7736  0.9407
13345TIP3    H261451   2.135   5.754  11.344  0.9473 -1.0564 -2.9320
13346TIP3   OH261452   4.458   5.656   3.255 -0.6773 -0.0017  0.3041
13346TIP3    H161453   4.469   5.749   3.273  0.6985 -0.0678 -0.1862
13346TIP3    H261454   4.436   5.652   3.162 -0.0912 -0.2193  0.1776
13347TIP3   OH261455   3.539   0.967  16.668  0.0671  0.0417 -0.3667
13347TIP3    H161456   3.454   0.926  16.681 -0.0105  0.6336  1.1228
13347TIP3    H261457   3.559   1.008  16.753  1.1217  1.2162 -1.1627
13348TIP3   OH261458   0.205   2.035   5.932 -0.4727  0.5869 -0.5923
13348TIP3    H161459   0.292   2.000   5.913 -0.3603 -0.1813  1.1462
13348TIP3    H261460   0.159   2.034   5.848 -0.1286 -2.8334 -0.8117
13349TIP3   OH261461   2.945   4.147  16.629 -0.6295  0.5649 -0.3619
13349TIP3    H161462   2.903   4.074  16.675 -0.1222 -0.6325 -1.7751
13349TIP3    H261463   2.887   4.221  16.644 -0.2712  0.3140  2.5494
13350TIP3   OH261464   3.381   4.797  15.020  0.4977  0.0770 -0.2975
13350TIP3    H161465   3.317   4.754  14.963  0.1949  0.6590 -0.4001
13350TIP3    H261466   3.341   4.798  15.107  0.8665 -0.6148 -0.1188
13351TIP3   OH261467   5.608   5.623  11.946  0.3338 -0.0969  0.3529
13351TIP3    H161468   5.566   5.703  11.914 -0.4725 -0.4681  0.4659
13351TIP3    H261469   5.644   5.582  11.868 -1.8794 -1.1447 -0.1670
13352TIP3   OH261470   1.662   1.959  13.193  0.3065 -0.1900 -0.5622
13352TIP3    H161471   1.649   1.896  13.264 -1.0073  0.1230 -0.5285
13352TIP3    H261472   1.727   2.020  13.228 -1.3548  0.7674  0.8967
13353TIP3   OH261473   5.142   3.886  15.771  0.5543  0.3265 -0.2696
13353TIP3    H161474   5.178   3.935  15.697 -1.1258  0.9683 -0.6922
13353TIP3    H261475   5.055   3.924  15.785 -0.0240 -1.2588  0.6213
13354TIP3   OH261476   1.168   4.572   2.581 -0.2749 -0.1917  0.5026
13354TIP3    H161477   1.173   4.523   2.663 -3.2049 -2.5016 -0.5545
13354TIP3    H261478   1.189   4.507   2.514 -1.4891  0.7127 -0.7766
13355TIP3   OH261479   4.206   4.069   4.590 -0.0371 -0.1826 -1.0573
13355TIP3    H161480   4.222   4.001   4.655 -1.7733  0.8229  0.4622
13355TIP3    H261481   4.254   4.145   4.622 -0.5670  0.1979 -1.1645
13356TIP3   OH261482   0.746   4.607  15.243  0.4787  0.0495 -0.0676
13356TIP3    H161483   0.795   4.555  15.179  1.0636  0.7916 -0.2229
13356TIP3    H261484   0.771   4.571  15.328  0.3629 -0.3645 -0.2047
13357TIP3   OH261485   0.657   0.934  13.369 -0.1291 -0.0756  0.1229
13357TIP3    H161486   0.686   0.877  13.440  1.3552 -0.7774 -1.0104
13357TIP3    H261487   0.624   1.012  13.412 -0.5943 -1.0859  1.6304
13358TIP3   OH261488   5.298   3.462  16.550  0.9503 -0.3117  0.3954
13358TIP3    H161489   5.329   3.551  16.569  1.4364 -0.7743  1.8176
13358TIP3    H261490   5.240   3.440  16.622  0.8610 -1.1695  0.0673
13359TIP3   OH261491   0.754   5.013   3.433 -0.3433  0.1193 -0.6984
13359TIP3    H161492   0.737   4.924   3.404 -1.4052 -0.3456  1.2418
13359TIP3    H261493   0.821   5.004   3.502 -1.9110  0.5629  0.9342
13360TIP3   OH261494   4.293   4.610  13.065 -0.1436  0.4549  0.2053
13360TIP3    H161495   4.208   4.652  13.074 -0.3251  0.1786 -0.2175
13360TIP3    H261496   4.301   4.555  13.143  1.2145  3.2214  2.1016
13361TIP3   OH261497   2.703   1.975   4.348 -0.3255 -0.1309  0.6645
13361TIP3    H161498   2.618   2.017   4.358 -0.0594  0.3877  0.8218
13361TIP3    H261499   2.705   1.945   4.258 -0.2200  0.8993  0.3166
13362TIP3   OH261500   4.336   1.344   4.058  0.3931 -0.4337  0.0814
13362TIP3    H161501   4.317   1.284   4.130 -1.1851 -0.7155 -0.5340
13362TIP3    H261502   4.421   1.315   4.024  0.4231 -1.2771  0.8454
13363TIP3   OH261503   5.412   1.673  16.732  0.1738 -0.1984 -0.1121
13363TIP3    H161504   5.475   1.653  16.662  1.2160 -0.5084  0.9017
13363TIP3    H261505   5.459   1.731  16.791 -1.2628  1.4198 -0.5228
13364TIP3   OH261506   6.295   0.839   2.560  0.1917  0.5086 -0.1484
13364TIP3    H161507   6.264   0.769   2.502 -1.6066  2.7403 -1.9666
13364TIP3    H261508   6.363   0.798   2.613 -0.2604 -2.4015 -1.7337
13365TIP3   OH261509   1.473   2.889   2.585 -0.4641 -0.0772 -0.3080
13365TIP3    H161510   1.538   2.950   2.551 -0.9707  0.9986  0.6216
13365TIP3    H261511   1.412   2.943   2.634 -0.1637 -1.4798  1.6887
13366TIP3   OH261512   6.419   5.712  13.239  0.0120  0.4200  0.3321
13366TIP3    H161513   6.357   5.670  13.179  0.6698 -1.8429  1.1681
13366TIP3    H261514   6.365   5.766  13.295 -1.1916 -1.1688  0.7493
13367TIP3   OH261515   6.462   6.257   6.195  0.2855 -0.0625  0.1759
13367TIP3    H161516   6.392   6.274   6.258  1.6431  0.8419  1.4724
13367TIP3    H261517   6.434   6.303   6.115  0.2013  1.7290  1.2101
13368TIP3   OH261518   4.862   6.086  12.781  0.1438  0.3026  0.0460
13368TIP3    H161519   4.812   6.146  12.725  1.1949  2.3846  1.3029
13368TIP3    H261520   4.828   6.101  12.869  1.9756  0.6688  0.6919
13369TIP3   OH261521   5.548   0.724  17.225 -0.5004 -0.6738 -0.1952
13369TIP3    H161522   5.479   0.750  17.286 -0.4115 -2.3818  0.6638
13369TIP3    H261523   5.550   0.794  17.160 -1.5444  0.4875  0.9820
13370TIP3   OH261524   4.402   1.429  15.817  0.4720  0.3845 -0.4658
13370TIP3    H161525   4.400   1.349  15.764 -2.2550  0.3510 -0.3855
13370TIP3    H261526   4.393   1.398  15.907 -0.1723  0.7556 -0.4020
13371TIP3   OH261527   5.176   4.930  14.925  0.2579 -0.1085 -0.2690
13371TIP3    H161528   5.204   4.848  14.885 -0.7879 -1.7175  2.1195
13371TIP3    H261529   5.089   4.946  14.888 -1.2677 -2.2806  2.1828
13372TIP3   OH261530   0.745   3.497   3.109 -0.2049  0.2845  0.0353
13372TIP3    H161531   0.835   3.470   3.130  0.0748  0.6899 -0.6303
13372TIP3    H261532   0.692   3.419   3.128  0.2559  0.1177  0.6550
13373TIP3   OH261533   4.355   0.208   5.423  0.5687 -0.2922  0.2223
13373TIP3    H161534   4.354   0.284   5.481  0.6623 -0.1637  0.0554
13373TIP3    H261535   4.369   0.244   5.336  1.8098 -0.6069  0.2875
13374TIP3   OH261536   4.369   5.930   1.987 -0.2924 -0.3909 -0.0067
13374TIP3    H161537   4.284   5.951   2.028  0.1653  0.8613  0.3382
13374TIP3    H261538   4.430   5.993   2.026  0.4453 -0.1297 -1.5519
13375TIP3   OH261539   1.393   5.898  15.498 -0.0535  0.5166  0.4332
13375TIP3    H161540   1.449   5.838  15.448 -0.5459 -0.2532  0.8006
13375TIP3    H261541   1.454   5.951  15.549  0.3265 -0.8021  1.3857
13376TIP3   OH261542   0.444   2.587   1.986  0.2399 -0.1206 -0.0559
13376TIP3    H161543   0.370   2.646   1.997  0.7187  0.1930  1.5668
13376TIP3    H261544   0.414   2.522   1.922 -0.9471  0.7847 -0.4287
13377TIP3   OH261545   4.849   4.871   2.559  0.7968 -0.4159 -0.1735
13377TIP3    H161546   4.824   4.782   2.533 -1.6897  0.1161  0.3440
13377TIP3    H261547   4.809   4.882   2.645  1.8541  0.9077  0.1589
13378TIP3   OH261548   0.363   1.141  13.094 -0.3136  0.1523 -0.4032
13378TIP3    H161549   0.447   1.154  13.137 -0.5466  0.2086  0.0394
13378TIP3    H261550   0.308   1.212  13.127 -0.1687  0.8608 -1.6356
13379TIP3   OH261551   0.632   1.387   5.527  0.2401  0.5953  0.1507
13379TIP3    H161552   0.616   1.375   5.434 -1.0752  0.1144  0.4194
13379TIP3    H261553   0.647   1.298   5.561 -1.9880  0.4615  0.8510
13380TIP3   OH261554   3.566   5.757   0.450  0.0953 -0.1872  0.1500
13380TIP3    H161555   3.563   5.852   0.465 -0.5403 -0.4820  2.0272
13380TIP3    H261556   3.545   5.746   0.357  0.5533  1.5338 -0.1670
13381TIP3   OH261557   1.387   5.379  15.565 -0.3585  0.1921 -0.0454
13381TIP3    H161558   1.404   5.470  15.589  0.6425 -0.0560  0.2106
13381TIP3    H261559   1.459   5.356  15.506  0.5312 -1.0369  1.4838
13382TIP3   OH261560   6.474   0.725  17.115 -0.4831 -0.2127  0.0024
13382TIP3    H161561   6.463   0.639  17.155 -0.9286  0.4199  1.2716
13382TIP3    H261562   6.533   0.710  17.041  0.7860 -1.3244  1.2198
13383TIP3   OH261563   6.784   2.359  13.981 -0.1656  0.3086 -0.6837
13383TIP3    H161564   6.689   2.350  13.979 -0.0944 -1.0118  0.7395
13383TIP3    H261565   6.816   2.269  13.974  0.9373  0.6000  0.6355
13384TIP3   OH261566   3.659   4.526  14.047  0.5821 -0.2891  0.5858
13384TIP3    H161567   3.712   4.601  14.075 -1.5685  1.4993  0.0712
13384TIP3    H261568   3.585   4.525  14.108  0.2299 -1.5602  0.1555
13385TIP3   OH261569   2.814   1.106  12.005  0.0226 -0.1934  0.5296
13385TIP3    H161570   2.769   1.048  12.066  1.7412 -0.0334  1.9652
13385TIP3    H261571   2.810   1.193  12.045 -0.5389  0.2800 -0.5182
13386TIP3   OH261572   3.425   6.113   4.504  0.1849 -0.0064 -0.1526
13386TIP3    H161573   3.465   6.199   4.494 -1.6343  0.9490  0.6416
13386TIP3    H261574   3.345   6.129   4.554  0.0653 -2.2248  0.4043
13387TIP3   OH261575   3.241   6.312   0.873  0.0443  0.5404  0.2442
13387TIP3    H161576   3.254   6.332   0.781 -1.6626  1.5033  0.1972
13387TIP3    H261577   3.158   6.353   0.895  0.9604  1.2554  2.4984
13388TIP3   OH261578   4.124   3.173   2.610 -0.0936  0.0297  0.1838
13388TIP3    H161579   4.059   3.208   2.549 -0.1056  1.8591  1.1919
13388TIP3    H261580   4.086   3.092   2.643  0.2801 -1.4031 -2.8196
13389TIP3   OH261581   2.627   3.377   1.658  0.1195 -0.2551  0.4868
13389TIP3    H161582   2.558   3.396   1.595 -0.5647  0.0925  1.3334
13389TIP3    H261583   2.691   3.325   1.609 -0.0205  0.6734 -0.7124
13390TIP3   OH261584   0.057   5.463   6.431  0.3266 -0.9405 -0.1406
13390TIP3    H161585  -0.025   5.418   6.414 -1.0179  1.5877 -0.6116
13390TIP3    H261586   0.033   5.539   6.484  2.4121 -0.4333  0.1294
13391TIP3   OH261587   4.003   3.212  12.442  0.4430 -0.7401 -0.2919
13391TIP3    H161588   4.003   3.193  12.536 -1.7064 -2.1244 -0.5199
13391TIP3    H261589   3.938   3.281  12.432  1.8771  0.5871 -0.5802
13392TIP3   OH261590   3.914   3.153  16.328 -0.2031  0.3447  0.4047
13392TIP3    H161591   3.891   3.073  16.281 -0.5631  0.2888  0.6719
13392TIP3    H261592   3.988   3.127  16.384  0.1470  0.3810 -0.0374
13393TIP3   OH261593   5.847   5.815   0.403 -0.8770 -0.2563  0.0965
13393TIP3    H161594   5.884   5.754   0.467  0.1547 -2.2863 -2.3964
13393TIP3    H261595   5.755   5.791   0.397 -0.6504 -1.0362 -0.2697
13394TIP3   OH261596   3.812   2.493  13.059 -0.5719  0.0949 -0.0892
13394TIP3    H161597   3.836   2.492  12.967  3.2781 -0.5481  0.8435
13394TIP3    H261598   3.792   2.585  13.078 -0.6977  0.3365 -1.3936
13395TIP3   OH261599   6.311   5.500   0.046  0.0113  0.1104  0.3846
13395TIP3    H161600   6.343   5.528  -0.040  0.8346 -2.2299 -0.0969
13395TIP3    H261601   6.349   5.563   0.107  1.6218  0.2232 -0.6919
13396TIP3   OH261602   3.845   5.440  10.227 -0.1779  1.0292  0.2302
13396TIP3    H161603   3.920   5.393  10.262  1.1628  1.1949 -2.2972
13396TIP3    H261604   3.852   5.528  10.265  1.3928  1.2922 -0.6209
13397TIP3   OH261605   4.526   1.636   4.350 -0.1888 -0.5189  0.3244
13397TIP3    H161606   4.502   1.644   4.442  0.5159 -0.0064  0.4747
13397TIP3    H261607   4.613   1.594   4.351  0.6781  1.2219 -0.0019
13398TIP3   OH261608   2.696   4.035   2.282  0.3632  0.1566  0.2172
13398TIP3    H161609   2.725   4.065   2.195  0.9252  1.4723  0.8489
13398TIP3    H261610   2.632   3.967   2.263 -0.0114  0.8877 -1.2528
13399TIP3   OH261611   4.274   5.685  14.464 -0.1382 -0.1177 -0.2790
13399TIP3    H161612   4.319   5.653  14.386 -1.5327  0.6085 -1.3978
13399TIP3    H261613   4.281   5.780  14.460 -0.0898 -0.0779  0.5653
13400TIP3   OH261614   2.341   1.661  12.024 -0.5438 -0.0830  0.5127
13400TIP3    H161615   2.249   1.670  12.051  0.2219  3.1459  2.3153
13400TIP3    H261616   2.359   1.742  11.976  1.5955 -0.3445  0.8530
13401TIP3   OH261617   5.418   6.153  15.416 -0.1140  0.1202 -0.1035
13401TIP3    H161618   5.380   6.121  15.334 -1.2182  1.8809 -0.2999
13401TIP3    H261619   5.347   6.147  15.480 -0.2278  1.7737 -0.0507
13402TIP3   OH261620   4.126   1.324   2.119 -0.2312  0.1996  0.1190
13402TIP3    H161621   4.126   1.290   2.208  1.8468  0.0130  0.0753
13402TIP3    H261622   4.136   1.247   2.064 -1.3724  0.3279 -0.2698
13403TIP3   OH261623   3.021   0.152  10.722 -0.1580 -0.0420 -0.5998
13403TIP3    H161624   2.954   0.150  10.789  2.1731 -2.0552  1.7728
13403TIP3    H261625   3.031   0.061  10.694  3.4801 -0.2903  1.1472
13404TIP3   OH261626   0.381   2.887  12.551 -0.4661  0.3475 -0.2692
13404TIP3    H161627   0.451   2.848  12.603  0.6871  3.4134  0.5826
13404TIP3    H261628   0.415   2.887  12.462 -0.9323 -1.5163 -0.4757
13405TIP3   OH261629   3.624   3.255  12.213 -0.0755  0.1466 -0.0681
13405TIP3    H161630   3.612   3.205  12.132  1.2865  0.2178 -0.3296
13405TIP3    H261631   3.575   3.206  12.279  0.4756 -1.0263 -0.5144
13406TIP3   OH261632   6.461   2.688   1.254 -0.2349 -0.0277 -0.5528
13406TIP3    H161633   6.408   2.713   1.178 -0.2697  0.7964 -0.2704
13406TIP3    H261634   6.460   2.766   1.310 -0.8718 -0.8877  0.6653
13407TIP3   OH261635   4.274   5.625   4.852 -0.5709  0.7137  0.0553
13407TIP3    H161636   4.269   5.604   4.945  0.5079 -0.6817 -0.1829
13407TIP3    H261637   4.187   5.659   4.830 -0.7531  1.2777  1.6231
13408TIP3   OH261638   6.298   5.730  14.409 -0.2574  0.2729 -0.3363
13408TIP3    H161639   6.282   5.734  14.314  1.5019  1.4215 -0.6055
13408TIP3    H261640   6.362   5.660  14.419  0.3167  0.8388 -0.0966
13409TIP3   OH261641   5.396   2.416   0.875  0.1615 -0.4745 -0.0814
13409TIP3    H161642   5.456   2.401   0.803  0.3711 -1.3060  0.2625
13409TIP3    H261643   5.452   2.445   0.947 -0.1556  1.2841 -0.5295
13410TIP3   OH261644   0.058   3.336   4.507  0.3606 -0.3901 -0.1987
13410TIP3    H161645   0.052   3.361   4.599  0.3284 -2.2799  0.3266
13410TIP3    H261646   0.065   3.241   4.508  0.4381 -0.4281 -2.1521
13411TIP3   OH261647   1.586   2.009   4.582 -0.1162  0.0269 -0.3141
13411TIP3    H161648   1.513   1.992   4.641 -1.5154  0.0447 -1.9955
13411TIP3    H261649   1.586   1.935   4.522 -0.9797  1.7532 -2.5003
13412TIP3   OH261650   1.412   6.014   0.599 -0.0588  0.1879  0.1123
13412TIP3    H161651   1.481   6.007   0.533 -0.0685  0.0638  0.1145
13412TIP3    H261652   1.408   6.107   0.620 -1.8861  0.6470 -2.0478
13413TIP3   OH261653   4.759   5.645  13.434 -0.0089  0.3002  0.2652
13413TIP3    H161654   4.760   5.741  13.433  1.1273  0.3168  1.2469
13413TIP3    H261655   4.830   5.622  13.493 -0.6127 -1.1514  0.4298
13414TIP3   OH261656   1.624   4.410  14.316 -0.1937  0.1424 -0.1246
13414TIP3    H161657   1.709   4.444  14.286 -0.7472  0.3007 -1.5300
13414TIP3    H261658   1.594   4.474  14.380  1.0255 -0.2250  0.8428
13415TIP3   OH261659   5.776   3.601   4.750 -0.3478 -0.1537 -0.4078
13415TIP3    H161660   5.784   3.601   4.655 -1.2472  0.2097 -0.4903
13415TIP3    H261661   5.853   3.649   4.781 -0.4561  0.3979 -0.9936
13416TIP3   OH261662   6.677   1.650  12.966  0.1319  0.0775  0.0079
13416TIP3    H161663   6.609   1.717  12.962  0.9754  1.0540  1.5675
13416TIP3    H261664   6.649   1.592  13.036  0.0729 -0.4563 -0.4553
13417TIP3   OH261665   3.430   3.341   3.747 -0.1915 -0.2567 -0.2142
13417TIP3    H161666   3.457   3.257   3.783 -0.2669 -0.4469 -0.5946
13417TIP3    H261667   3.400   3.321   3.658 -1.7741 -0.0718  0.2612
13418TIP3   OH261668   3.681   4.416  15.044 -0.1350 -0.2142 -0.7468
13418TIP3    H161669   3.766   4.457  15.061  0.2503 -1.2655 -0.0954
13418TIP3    H261670   3.639   4.474  14.980 -0.2293  2.0185  1.2735
13419TIP3   OH261671   1.801   1.998  10.427  0.1702 -0.7641  0.0449
13419TIP3    H161672   1.836   2.038  10.507 -0.8412  0.9623 -0.3353
13419TIP3    H261673   1.748   1.924  10.458  1.7435 -1.5842  0.7999
13420TIP3   OH261674   3.350   6.088   3.819  0.5842  0.1981  0.3650
13420TIP3    H161675   3.368   6.175   3.853 -0.6066 -0.0155  1.5872
13420TIP3    H261676   3.311   6.041   3.893 -2.4989 -0.1255 -1.3701
13421TIP3   OH261677   5.479   3.391  15.030 -0.0811  0.7138 -0.4903
13421TIP3    H161678   5.506   3.313  14.982  1.7939  1.6586 -1.0053
13421TIP3    H261679   5.512   3.378  15.119 -0.7632  0.4208 -0.2734
13422TIP3   OH261680   4.570   3.309  13.865 -0.7234  0.4629 -0.1235
13422TIP3    H161681   4.606   3.375  13.925 -0.1263  2.3038 -2.4321
13422TIP3    H261682   4.646   3.264  13.829 -1.0982 -0.9639  0.8150
13423TIP3   OH261683   6.039   1.888  13.295  0.1144  0.1042 -0.0389
13423TIP3    H161684   5.956   1.936  13.289 -0.0876 -0.3985 -1.3901
13423TIP3    H261685   6.075   1.890  13.207  0.6564 -1.2511  0.1321
13424TIP3   OH261686   0.828   3.425   0.394  0.4787  0.5675 -0.3765
13424TIP3    H161687   0.836   3.478   0.315  0.2675  0.4892 -0.4497
13424TIP3    H261688   0.740   3.442   0.426 -0.4054 -1.4535 -1.6361
13425TIP3   OH261689   3.788   1.288   5.581 -0.2243  0.4668  0.5906
13425TIP3    H161690   3.769   1.282   5.674 -0.4779  0.8928  0.5641
13425TIP3    H261691   3.709   1.325   5.542 -0.1906  0.1104  0.1791
13426TIP3   OH261692   5.876   4.005  16.348  0.0205  0.6949 -0.2469
13426TIP3    H161693   5.960   3.969  16.320  0.4802 -0.7985  2.7911
13426TIP3    H261694   5.888   4.100  16.346  1.3055  0.5238 -1.1754
13427TIP3   OH261695   3.021   2.513  13.683 -0.0530  0.3798  0.1470
13427TIP3    H161696   3.089   2.555  13.736  0.0770 -2.2879  2.2034
13427TIP3    H261697   2.996   2.436  13.733 -0.7208 -1.6764 -3.2092
13428TIP3   OH261698   4.032   6.714   2.555  0.7401  0.5039  0.3572
13428TIP3    H161699   4.013   6.670   2.638  0.7626  0.2351  0.2185
13428TIP3    H261700   4.091   6.785   2.580 -0.8365  1.6664  0.8692
13429TIP3   OH261701   2.759   1.488  14.207  0.3251  0.2062  0.2352
13429TIP3    H161702   2.805   1.502  14.290  0.7618 -1.1750  0.2364
13429TIP3    H261703   2.680   1.542  14.214  0.8720  0.9008  1.1243
13430TIP3   OH261704   0.130   3.867   2.654 -0.1661  0.2488 -0.4626
13430TIP3    H161705   0.119   3.951   2.699 -2.5113  0.5598 -1.5530
13430TIP3    H261706   0.134   3.802   2.725 -0.5875  1.0536  0.3049
13431TIP3   OH261707   1.987   4.576  15.217  0.4093 -0.6115 -0.1507
13431TIP3    H161708   2.028   4.599  15.134  0.8727  1.1749  0.5674
13431TIP3    H261709   1.983   4.480  15.216 -1.9662 -0.5442 -3.3762
13432TIP3   OH261710   3.275   2.521   4.471 -0.6821  0.1762 -0.2378
13432TIP3    H161711   3.296   2.427   4.466 -2.0675 -0.2630  1.6929
13432TIP3    H261712   3.209   2.534   4.403  0.4309  0.0157 -1.3568
13433TIP3   OH261713   2.910   2.252  16.966 -0.1117  0.4608  0.2691
13433TIP3    H161714   2.896   2.183  17.031 -1.0433  1.1264  0.7912
13433TIP3    H261715   2.940   2.206  16.888 -2.3688 -0.7416  0.0738
13434TIP3   OH261716   3.599   2.061  16.258  0.3044  0.2938  0.0359
13434TIP3    H161717   3.622   2.152  16.238  0.3315  0.5884  1.3356
13434TIP3    H261718   3.681   2.021  16.285 -0.2363  0.6977  2.3543
13435TIP3   OH261719   3.976   3.621  11.482  0.6343  0.4371  0.6401
13435TIP3    H161720   3.927   3.593  11.405  1.1521  2.2866 -0.3819
13435TIP3    H261721   3.923   3.690  11.521  0.0119 -0.9757  2.3959
13436TIP3   OH261722   1.726   0.344   0.070  0.2554 -0.6495 -0.1308
13436TIP3    H161723   1.647   0.290   0.076  1.9514 -3.2259 -0.0798
13436TIP3    H261724   1.748   0.345  -0.023 -0.4081  0.9504 -0.2835
13437TIP3   OH261725   2.675   0.749   1.885  0.8048 -0.1143 -0.4616
13437TIP3    H161726   2.700   0.699   1.963 -0.0687  0.9588  0.5253
13437TIP3    H261727   2.696   0.840   1.906 -0.2927  0.3035 -1.1038
13438TIP3   OH261728   4.910   5.310  16.674 -0.1919 -0.0365  0.1362
13438TIP3    H161729   4.987   5.358  16.702 -1.8952  2.9686 -0.0952
13438TIP3    H261730   4.873   5.274  16.755  1.0334 -0.8664  0.3276
13439TIP3   OH261731   3.053   5.261  14.049 -0.6305 -0.6230 -0.1689
13439TIP3    H161732   2.964   5.236  14.073  0.3042 -2.1948  1.8031
13439TIP3    H261733   3.097   5.178  14.029  0.6128  0.0621 -0.3591
13440TIP3   OH261734   0.068   3.199   4.112 -0.5465  0.4817  0.4687
13440TIP3    H161735  -0.009   3.151   4.083  0.8958 -0.7749 -1.4560
13440TIP3    H261736   0.060   3.203   4.207 -2.3699 -0.6723  0.3840
13441TIP3   OH261737   0.294   4.074  10.783 -0.3849 -0.2470 -0.0517
13441TIP3    H161738   0.261   4.002  10.836  1.2682 -2.2375 -1.6573
13441TIP3    H261739   0.389   4.072  10.796 -0.3416  1.8352  0.1148
13442TIP3   OH261740   2.965   6.707   5.448 -0.3621 -0.3101  0.6021
13442TIP3    H161741   3.045   6.673   5.488  0.6040  0.3723 -0.7183
13442TIP3    H261742   2.985   6.798   5.428 -1.8061  0.1362  1.1015
13443TIP3   OH261743   5.538   1.909   1.765  0.2499  0.3266 -0.7705
13443TIP3    H161744   5.464   1.851   1.749  0.6899 -0.0655 -1.4226
13443TIP3    H261745   5.520   1.986   1.711  0.3983  0.1583 -1.0623
13444TIP3   OH261746   4.857   5.658  16.037 -0.3442  0.3759 -0.2427
13444TIP3    H161747   4.779   5.607  16.017  0.5458 -0.6222 -1.1989
13444TIP3    H261748   4.839   5.697  16.123 -1.3886 -0.7986  0.0803
13445TIP3   OH261749   3.670   4.378   0.255 -0.4098 -0.6407 -0.0705
13445TIP3    H161750   3.610   4.411   0.188 -1.0415 -1.1042  0.2664
13445TIP3    H261751   3.704   4.457   0.297  2.1674 -0.2171 -2.7832
13446TIP3   OH261752   0.504   1.134  12.038  0.1138  0.6552 -0.5712
13446TIP3    H161753   0.469   1.176  12.117  2.1893  1.7849 -0.2037
13446TIP3    H261754   0.513   1.042  12.062  1.9782  1.2144  1.0131
13447TIP3   OH261755   0.736   4.045  14.359 -0.3285 -0.6358  0.0291
13447TIP3    H161756   0.686   3.987  14.417  0.7203  0.9751  2.6312
13447TIP3    H261757   0.783   3.986  14.300 -1.2034 -2.3369  1.0007
13448TIP3   OH261758   1.021   0.711  11.907  0.5647  0.5447 -0.5605
13448TIP3    H161759   1.111   0.725  11.878  1.0673 -2.2011 -0.4600
13448TIP3    H261760   1.014   0.760  11.989  0.7626  3.9058 -2.4423
13449TIP3   OH261761   5.020   1.782  14.162  0.4916  0.0627  0.2655
13449TIP3    H161762   5.076   1.786  14.085 -0.4153  1.6010 -0.3402
13449TIP3    H261763   4.938   1.742  14.131  0.3917  0.0054  0.5964
13450TIP3   OH261764   3.653   6.643  14.307 -0.4618  0.4129 -0.3367
13450TIP3    H161765   3.593   6.638  14.381  0.3708 -0.4833  0.2969
13450TIP3    H261766   3.612   6.704  14.246 -2.4367 -0.8467 -0.2906
13451TIP3   OH261767   2.391   6.368   5.849 -0.2933  0.1167  0.4572
13451TIP3    H161768   2.374   6.281   5.813  0.2181  0.4986 -0.7108
13451TIP3    H261769   2.466   6.356   5.907 -0.6291 -0.3425  0.8005
13452TIP3   OH261770   3.224   1.123  12.734  0.3078  0.0947 -0.2897
13452TIP3    H161771   3.265   1.065  12.670 -1.5734 -0.8791 -0.6552
13452TIP3    H261772   3.227   1.210  12.693 -1.0119 -0.5442 -1.8195
13453TIP3   OH261773   1.747   4.278  12.959  0.0570  0.1256 -0.4752
13453TIP3    H161774   1.816   4.271  13.025  0.4946  1.0775 -0.8209
13453TIP3    H261775   1.788   4.323  12.886 -1.2214  1.7061 -0.2574
13454TIP3   OH261776   6.110   2.197  13.614  0.2560  0.1237 -0.0463
13454TIP3    H161777   6.160   2.187  13.533  1.4117 -0.1060  0.6802
13454TIP3    H261778   6.039   2.257  13.591  0.7834  0.3450 -1.1344
13455TIP3   OH261779   0.577   5.444  15.017 -0.2062  0.5168  0.0815
13455TIP3    H161780   0.628   5.431  15.096  0.0355 -1.9068 -0.4056
13455TIP3    H261781   0.640   5.434  14.945 -0.6484  1.4324 -0.4449
13456TIP3   OH261782   0.396   2.256  14.988 -0.2219  0.5255  0.0712
13456TIP3    H161783   0.436   2.313  14.923 -0.8284  1.2553  0.3269
13456TIP3    H261784   0.303   2.279  14.986 -0.6794 -1.2773 -0.6576
13457TIP3   OH261785   1.968   2.257  15.067  0.5268  0.7438 -0.3974
13457TIP3    H161786   1.976   2.296  15.155  3.1929  0.2791 -0.3986
13457TIP3    H261787   1.976   2.163  15.083 -1.0178  0.5232 -0.9293
13458TIP3   OH261788   0.554   5.895  17.096 -0.4336 -0.0966  0.4202
13458TIP3    H161789   0.516   5.939  17.019 -0.6985 -0.6221  0.2469
13458TIP3    H261790   0.564   5.964  17.161  0.7555  0.5633 -0.4483
13459TIP3   OH261791   0.879   5.833   1.480  0.1917 -0.2196  0.2695
13459TIP3    H161792   0.928   5.761   1.519  1.0685 -1.1662 -2.4624
13459TIP3    H261793   0.813   5.791   1.425 -0.4394  1.0589  0.0236
13460TIP3   OH261794   2.566   0.512  14.101  0.5752 -0.1371 -0.8122
13460TIP3    H161795   2.504   0.559  14.157 -0.4903  0.4990 -2.4739
13460TIP3    H261796   2.615   0.582  14.056 -0.0950 -0.6054 -2.2959
13461TIP3   OH261797   0.267   4.082  14.085 -0.2632 -0.1210  0.0474
13461TIP3    H161798   0.251   4.170  14.049 -0.3986 -0.4021 -0.5959
13461TIP3    H261799   0.357   4.086  14.116 -0.1350  0.1315 -0.3411
13462TIP3   OH261800   4.764   2.650   5.849  0.4006 -0.3138  0.2820
13462TIP3    H161801   4.797   2.569   5.809  1.2911  0.2122 -0.0822
13462TIP3    H261802   4.844   2.698   5.874 -0.0467  1.2296 -1.0807
13463TIP3   OH261803   2.112   3.521  17.161  0.1696  0.3152  0.0409
13463TIP3    H161804   2.043   3.496  17.100  0.5644  1.8150 -1.0520
13463TIP3    H261805   2.186   3.545  17.105  0.0308  3.2799  1.0248
13464TIP3   OH261806   4.821   1.120  11.953  0.2412 -0.5426 -0.2305
13464TIP3    H161807   4.767   1.192  11.921  1.2223 -0.3334 -1.4742
13464TIP3    H261808   4.791   1.043  11.904  0.4288 -0.6219 -0.2219
13465TIP3   OH261809   1.918   3.750  14.129  0.6632  0.3493  0.4964
13465TIP3    H161810   2.008   3.726  14.105  0.4866 -2.0963  2.0775
13465TIP3    H261811   1.920   3.760  14.224 -0.8389 -0.3082  0.6132
13466TIP3   OH261812   3.700   1.012   5.132 -0.1617  0.0464 -0.2166
13466TIP3    H161813   3.796   1.011   5.128 -0.1652 -1.1464  0.0046
13466TIP3    H261814   3.672   0.939   5.077 -0.9411  0.2469 -0.0934
13467TIP3   OH261815   5.898   2.364  17.207 -0.5563  0.7930 -0.4959
13467TIP3    H161816   5.946   2.381  17.126  0.7311  0.2976  0.1416
13467TIP3    H261817   5.845   2.286  17.188 -1.7495  1.8142 -1.4547
13468TIP3   OH261818   5.734   6.291   2.551 -0.9721 -0.5315 -0.3725
13468TIP3    H161819   5.820   6.313   2.513 -1.0724  0.8203  0.1337
13468TIP3    H261820   5.733   6.338   2.635 -2.6436  0.3800 -0.8728
13469TIP3   OH261821   0.506   3.620  11.260  0.1650 -0.3120  0.2348
13469TIP3    H161822   0.514   3.529  11.231  3.4894  0.0598 -0.1276
13469TIP3    H261823   0.526   3.618  11.353  0.7890  0.1132  0.1124
13470TIP3   OH261824   3.470   0.593  14.102  0.2811  0.3105  0.0500
13470TIP3    H161825   3.544   0.547  14.141  0.2139  0.9651  0.9834
13470TIP3    H261826   3.474   0.681  14.140 -1.9697 -0.1521  1.4614
13471TIP3   OH261827   6.682   1.790   4.245  0.2316 -0.2369 -0.1576
13471TIP3    H161828   6.656   1.794   4.153  0.1251 -0.5128 -0.1400
13471TIP3    H261829   6.717   1.701   4.256  0.5646 -0.0866 -0.0192
13472TIP3   OH261830   3.690   3.041  13.702  0.0860  0.3161  0.1471
13472TIP3    H161831   3.717   2.950  13.708 -0.2778  0.2979  1.7892
13472TIP3    H261832   3.770   3.091  13.721 -0.6723  0.2680  3.9615
13473TIP3   OH261833   2.325   2.216  15.987  0.1252  0.3263 -0.3531
13473TIP3    H161834   2.329   2.255  16.074  1.1634  0.7981 -0.5973
13473TIP3    H261835   2.392   2.148  15.988  0.7568  0.9220 -1.0487
13474TIP3   OH261836   2.499   4.662   2.302 -0.1464  0.3526 -0.7135
13474TIP3    H161837   2.586   4.634   2.273 -0.3358 -0.9933 -0.0517
13474TIP3    H261838   2.490   4.624   2.390 -0.6881  2.0003 -0.0431
13475TIP3   OH261839   5.850   2.071   4.850 -0.5025  0.0858 -1.0745
13475TIP3    H161840   5.762   2.045   4.878 -0.0532 -0.2387  0.0351
13475TIP3    H261841   5.836   2.110   4.763 -1.4980 -1.5652 -1.6804
13476TIP3   OH261842   5.421   2.360   4.910  0.5336  0.3278 -0.4693
13476TIP3    H161843   5.456   2.448   4.927  0.6355  0.0398  0.8728
13476TIP3    H261844   5.386   2.365   4.821 -0.1944  1.9728 -0.1218
13477TIP3   OH261845   3.002   3.070   4.938 -0.4370 -0.0356 -0.3374
13477TIP3    H161846   2.926   3.029   4.980 -2.0286  1.7475 -1.4029
13477TIP3    H261847   3.032   3.135   5.001 -2.1396  1.8693 -1.4648
13478TIP3   OH261848   5.412   3.467  16.891  0.2914 -0.2279 -0.2159
13478TIP3    H161849   5.369   3.550  16.873 -1.8506 -1.2642 -0.0133
13478TIP3    H261850   5.495   3.472  16.844 -0.4982  1.3912 -1.4804
13479TIP3   OH261851   1.084   5.360  12.027  0.4437  0.0172  0.0645
13479TIP3    H161852   0.999   5.384  12.062  1.6362  1.3440  2.1296
13479TIP3    H261853   1.064   5.310  11.947 -2.2288  0.3933  0.4634
13480TIP3   OH261854   6.216   6.126  15.904 -0.8617  0.2213  0.5631
13480TIP3    H161855   6.235   6.087  15.989 -0.6031 -0.5830  0.1387
13480TIP3    H261856   6.121   6.141  15.905 -1.2478 -2.0354  0.0638
13481TIP3   OH261857   1.174   4.878   3.520  0.7778  0.2388  0.2332
13481TIP3    H161858   1.220   4.805   3.560  1.1028  0.5552  0.4390
13481TIP3    H261859   1.141   4.843   3.437  0.0476 -0.4302  0.8043
13482TIP3   OH261860   1.883   0.617   2.305 -0.8041 -0.6314  0.3168
13482TIP3    H161861   1.964   0.668   2.311 -1.2847  0.0734  0.8279
13482TIP3    H261862   1.903   0.550   2.239  0.4093 -0.8688  0.9045
13483TIP3   OH261863   4.802   6.002  13.681 -0.0127  0.0276 -0.4473
13483TIP3    H161864   4.892   6.025  13.702  0.1510 -1.0980  0.1357
13483TIP3    H261865   4.753   6.023  13.760 -0.0048 -0.7629 -0.2242
13484TIP3   OH261866   1.543   4.635   1.960  0.1542  0.2096  0.1328
13484TIP3    H161867   1.608   4.684   1.910 -0.5752  1.2768  0.1995
13484TIP3    H261868   1.567   4.543   1.948 -0.0244  0.4409 -2.1870
13485TIP3   OH261869   1.409   0.638  15.783  0.5761 -0.2753  0.1525
13485TIP3    H161870   1.340   0.626  15.718 -0.2267 -1.3955  1.1908
13485TIP3    H261871   1.363   0.637  15.867  1.6672  0.5953  0.7762
13486TIP3   OH261872   3.605   4.762  13.251 -0.3839  0.1196  0.5001
13486TIP3    H161873   3.651   4.683  13.222  0.3059  0.6515  0.1369
13486TIP3    H261874   3.512   4.739  13.245 -0.1556 -1.9775  4.0886
13487TIP3   OH261875   2.987   4.512  12.947  0.2922  0.6702  0.0921
13487TIP3    H161876   3.035   4.506  12.865  2.4707  0.7950  1.3233
13487TIP3    H261877   2.941   4.428  12.955 -0.1513  0.7639 -1.3578
13488TIP3   OH261878   4.740   3.678  11.178  0.0271 -0.1529 -0.0903
13488TIP3    H161879   4.650   3.704  11.197 -0.0273 -0.3228 -0.1139
13488TIP3    H261880   4.737   3.582  11.171  0.2677 -0.1867  0.2158
13489TIP3   OH261881   6.467   0.034   2.840  0.3148  0.0930  0.1133
13489TIP3    H161882   6.556   0.044   2.808  0.0808  2.8541  0.2165
13489TIP3    H261883   6.473   0.048   2.935 -0.2268  0.4603  0.1010
13490TIP3   OH261884   5.470   4.764  13.609 -0.1000 -0.5744  0.4396
13490TIP3    H161885   5.553   4.786  13.652 -0.3856  0.0175  0.6998
13490TIP3    H261886   5.409   4.832  13.639  0.1136  0.8427 -2.2022
13491TIP3   OH261887   2.057   4.300   5.115 -0.2148 -0.4299 -0.2101
13491TIP3    H161888   2.057   4.249   5.196 -0.4000  3.0482  2.0965
13491TIP3    H261889   2.119   4.255   5.058  1.2570 -1.9580  2.5103
13492TIP3   OH261890   0.316   4.813   3.995  0.2453  0.5587 -0.4102
13492TIP3    H161891   0.368   4.734   3.981 -0.2702  0.2577 -0.6340
13492TIP3    H261892   0.250   4.786   4.059  1.5025  1.4359  1.3200
13493TIP3   OH261893   5.141   4.193   0.481 -0.4816  0.4491  0.1220
13493TIP3    H161894   5.062   4.152   0.447 -0.9223  2.5564 -1.5509
13493TIP3    H261895   5.209   4.170   0.418 -0.7161  2.1613 -0.7818
13494TIP3   OH261896   0.753   0.325   1.358  0.0000  0.1291  0.1781
13494TIP3    H161897   0.816   0.377   1.308  1.5901 -1.1826  0.7716
13494TIP3    H261898   0.672   0.376   1.355  1.0379  1.7693 -0.7443
13495TIP3   OH261899   0.937   0.597  16.682  0.1867 -0.4548  0.4927
13495TIP3    H161900   0.912   0.633  16.767 -0.4941  1.2820 -0.4200
13495TIP3    H261901   1.016   0.644  16.658 -0.7015  0.4668 -0.7029
13496TIP3   OH261902   5.556   2.489   3.188  0.1159  0.1301 -0.3047
13496TIP3    H161903   5.569   2.428   3.260 -1.1123 -1.2116 -1.1903
13496TIP3    H261904   5.463   2.482   3.166  0.0616  1.9185 -0.7821
13497TIP3   OH261905   3.723   5.818   1.871  0.0648  0.1616  0.4663
13497TIP3    H161906   3.771   5.842   1.950  0.0883  0.4200  0.3752
13497TIP3    H261907   3.761   5.873   1.802 -0.1334  0.1273  0.3273
13498TIP3   OH261908   0.309   2.365  13.994 -0.4393 -0.5981 -0.6603
13498TIP3    H161909   0.399   2.364  13.961  0.3050  0.5905  1.2520
13498TIP3    H261910   0.266   2.436  13.946 -0.5155 -1.4801 -1.9209
13499TIP3   OH261911   4.783   0.924   2.199  0.2232  0.3365 -0.7383
13499TIP3    H161912   4.755   0.889   2.114  0.8160 -0.8978 -0.4332
13499TIP3    H261913   4.749   0.861   2.263  2.1125 -0.2045 -0.2506
13500TIP3   OH261914   6.574   3.416   2.194  0.6505 -0.2553  0.5705
13500TIP3    H161915   6.480   3.431   2.202  1.0164  3.0137 -0.5198
13500TIP3    H261916   6.585   3.323   2.211 -2.5822 -0.3779  2.3102
13501TIP3   OH261917   2.006   0.143  14.376 -0.0863 -0.2235  0.1116
13501TIP3    H161918   1.986   0.132  14.469  0.0703 -0.9205  0.0645
13501TIP3    H261919   2.017   0.054  14.343 -1.2719 -0.0354 -0.8275
13502TIP3   OH261920   2.451   4.018  11.140  0.4052 -0.4146 -0.5555
13502TIP3    H161921   2.362   4.008  11.107 -0.5307  0.8538  1.4504
13502TIP3    H261922   2.447   4.098  11.193  3.1392  0.5644 -1.7603
13503TIP3   OH261923   0.513   1.006  15.666  0.1569  0.0748  0.0855
13503TIP3    H161924   0.501   0.911  15.672 -0.5292  0.0384 -1.4812
13503TIP3    H261925   0.426   1.040  15.645  0.6115  0.9262 -0.4901
13504TIP3   OH261926   1.907   1.491   2.679 -0.5701 -0.1078  0.1010
13504TIP3    H161927   1.861   1.524   2.602 -1.1998 -0.5007  0.3069
13504TIP3    H261928   1.966   1.423   2.644 -0.0771  0.4519 -0.1711
13505TIP3   OH261929   1.875   5.553   4.194 -0.0917 -0.2489  0.0483
13505TIP3    H161930   1.847   5.592   4.111  0.7637  0.4126  0.0645
13505TIP3    H261931   1.891   5.628   4.251  1.4530 -0.6199  0.1150
13506TIP3   OH261932   1.416   3.490  11.909 -0.4014  0.0445 -0.4774
13506TIP3    H161933   1.470   3.425  11.954 -2.5178 -1.0895  0.4872
13506TIP3    H261934   1.334   3.493  11.959 -1.3711  1.5090 -2.0732
13507TIP3   OH261935   1.526   3.061   3.492  0.3310 -0.0396  0.2914
13507TIP3    H161936   1.431   3.070   3.502  0.4759  1.6783  0.1875
13507TIP3    H261937   1.551   2.993   3.555 -0.7900  0.3827  1.1929
13508TIP3   OH261938   5.395   3.372  11.033 -0.3536 -0.0228  0.5193
13508TIP3    H161939   5.483   3.366  11.070  0.0912  0.7121 -0.3919
13508TIP3    H261940   5.344   3.419  11.099 -0.2299 -0.9987  1.3214
13509TIP3   OH261941   4.230   1.861   4.905  0.4038 -0.6058  0.0624
13509TIP3    H161942   4.145   1.831   4.871  0.4529  0.3808 -0.9786
13509TIP3    H261943   4.208   1.919   4.977  0.1858 -0.3394 -0.2154
13510TIP3   OH261944   6.196   0.257  13.081 -0.1704  0.4801  0.0215
13510TIP3    H161945   6.213   0.321  13.150 -1.5286  0.5431  0.3171
13510TIP3    H261946   6.208   0.172  13.123  0.3235  0.5217 -0.0268
13511TIP3   OH261947   5.185   1.610  14.840  0.0930 -0.4069 -0.2199
13511TIP3    H161948   5.135   1.676  14.793  1.3287 -0.0724 -1.1031
13511TIP3    H261949   5.215   1.550  14.772 -0.5837 -1.5936  0.5108
13512TIP3   OH261950   2.057   4.485   4.865 -0.4823 -0.0472 -0.0235
13512TIP3    H161951   2.087   4.440   4.944  0.8726  1.9743  0.6501
13512TIP3    H261952   1.977   4.530   4.893 -0.4665 -0.0155 -0.0304
13513TIP3   OH261953   1.104   2.187  11.664 -0.3677 -0.0856  0.1146
13513TIP3    H161954   1.123   2.266  11.716  4.6443  0.1609 -1.7761
13513TIP3    H261955   1.068   2.221  11.582  0.9248  0.2459 -0.3362
13514TIP3   OH261956   3.598   1.052   1.329 -0.5445 -0.0618  0.1307
13514TIP3    H161957   3.640   1.133   1.358 -1.1064  0.1179  0.4563
13514TIP3    H261958   3.669   0.987   1.328  0.0776  0.6083 -0.9078
13515TIP3   OH261959   1.939   6.196  15.116  0.1841  0.0531  0.1703
13515TIP3    H161960   1.998   6.144  15.170 -0.1363 -0.4134  0.0758
13515TIP3    H261961   1.895   6.254  15.178  1.2598  0.9185  0.1485
13516TIP3   OH261962   4.506   4.299  11.749 -0.4841 -0.0534 -0.4837
13516TIP3    H161963   4.422   4.294  11.702 -0.7311 -0.5691  0.0085
13516TIP3    H261964   4.527   4.392  11.750 -1.1819  0.1073 -0.3897
13517TIP3   OH261965   1.829   4.161   1.301  0.7003 -0.2309 -0.0505
13517TIP3    H161966   1.766   4.202   1.360 -0.2856 -1.4250 -0.2570
13517TIP3    H261967   1.865   4.234   1.250 -1.5064  0.3326 -0.8817
13518TIP3   OH261968   3.061   3.543   4.235 -0.0860 -0.2847 -0.2687
13518TIP3    H161969   3.143   3.589   4.218  0.1945  0.1572  2.1432
13518TIP3    H261970   3.027   3.583   4.315 -0.4924 -3.3979  1.1890
13519TIP3   OH261971   6.178   2.767  15.940  0.1798 -0.3183 -0.0859
13519TIP3    H161972   6.143   2.843  15.893  1.3265  0.4503  0.2825
13519TIP3    H261973   6.266   2.793  15.964 -0.4860 -0.5696  2.7855
13520TIP3   OH261974   3.414   1.123  12.111  0.1258 -0.3170  1.0304
13520TIP3    H161975   3.335   1.112  12.057 -0.5439  0.9943  1.7176
13520TIP3    H261976   3.382   1.162  12.193  1.7464  2.2711  0.4951
13521TIP3   OH261977   3.782   4.591  13.763 -0.3352  0.6787 -0.3456
13521TIP3    H161978   3.828   4.674  13.752  1.6945 -0.1981  1.1857
13521TIP3    H261979   3.760   4.587  13.856  0.6193 -0.9945 -0.1681
13522TIP3   OH261980   6.005   5.313  10.361 -0.3035  0.1624  0.1965
13522TIP3    H161981   5.929   5.313  10.303  1.1630 -1.1164 -1.7628
13522TIP3    H261982   5.971   5.278  10.444 -1.9742  0.2220 -0.4370
13523TIP3   OH261983   3.003   3.558   3.653  0.0492  0.1333  0.1563
13523TIP3    H161984   3.010   3.521   3.742 -1.0824  0.3583  0.3545
13523TIP3    H261985   2.946   3.634   3.664  0.7017  0.7332 -0.6071
13524TIP3   OH261986   2.480   2.931  15.048  0.0556  0.4534 -0.1516
13524TIP3    H161987   2.393   2.922  15.088 -0.1900 -1.1135 -1.0283
13524TIP3    H261988   2.476   3.014  15.001 -0.8898  0.4964 -0.0048
13525TIP3   OH261989   3.026   0.370   2.376 -0.4014 -0.4185 -0.0787
13525TIP3    H161990   3.018   0.306   2.447 -1.3441 -0.7745 -0.5004
13525TIP3    H261991   3.008   0.320   2.296 -1.6428  0.4767 -0.3622
13526TIP3   OH261992   0.587   4.916  10.969  0.1490 -0.2556  0.6040
13526TIP3    H161993   0.556   4.852  11.033  0.6968 -1.7300 -0.5861
13526TIP3    H261994   0.520   4.916  10.901  0.9106 -0.7007 -0.1485
13527TIP3   OH261995   0.828   4.754  13.645  0.3396 -0.4903  0.2819
13527TIP3    H161996   0.735   4.731  13.645 -0.0366  0.9369  1.3369
13527TIP3    H261997   0.861   4.719  13.729  0.9224 -1.5924 -0.3928
13528TIP3   OH261998   6.390   5.724   2.586  0.5658  0.1119 -0.6829
13528TIP3    H161999   6.450   5.649   2.583  0.2837 -0.0924 -1.2027
13528TIP3    H262000   6.414   5.777   2.511  0.2604  0.1589 -0.7486
13529TIP3   OH262001   2.163   5.824   3.691  0.5306 -0.1016  0.4812
13529TIP3    H162002   2.076   5.815   3.730  0.6370  0.5794  0.8833
13529TIP3    H262003   2.210   5.745   3.720 -0.3769 -1.1515 -0.8813
13530TIP3   OH262004   6.245   3.586  15.103 -0.0704  0.3884 -0.1480
13530TIP3    H162005   6.181   3.571  15.172  0.7987  0.4459  0.6730
13530TIP3    H262006   6.204   3.652  15.046 -0.8986  0.1311  0.1492
13531TIP3   OH262007   1.495   0.788  14.591  0.2278 -0.1774  0.2256
13531TIP3    H162008   1.584   0.802  14.559  0.0628 -0.8111 -0.5129
13531TIP3    H262009   1.441   0.847  14.538  0.0588 -0.6383 -0.1154
13532TIP3   OH262010   5.481   4.141   4.837 -0.3155  0.3746  0.3387
13532TIP3    H162011   5.465   4.212   4.775 -1.9167 -0.3736 -0.1514
13532TIP3    H262012   5.445   4.173   4.920 -3.7579 -0.9444 -0.5526
13533TIP3   OH262013   5.173   1.644   1.029 -0.4580 -0.1126 -0.0591
13533TIP3    H162014   5.211   1.638   0.942  0.0383  3.2516 -0.1546
13533TIP3    H262015   5.092   1.594   1.023  0.0418 -0.7267 -2.1820
13534TIP3   OH262016   3.370   6.588   6.350 -0.0266 -0.0927  0.1680
13534TIP3    H162017   3.358   6.572   6.443  0.1120 -0.6186  0.1007
13534TIP3    H262018   3.439   6.654   6.345  1.5225 -1.6590  0.3928
13535TIP3   OH262019   6.568   6.064  16.105 -0.0162 -0.2264  0.3798
13535TIP3    H162020   6.480   6.063  16.144 -0.3499 -0.6772 -0.3772
13535TIP3    H262021   6.600   5.975  16.114 -0.9776 -0.9132 -2.3146
13536TIP3   OH262022   1.199   6.223  13.174  0.6179  0.7368  0.0300
13536TIP3    H162023   1.250   6.213  13.254 -2.0592  1.1326  1.8654
13536TIP3    H262024   1.159   6.310  13.182  3.0776  2.3178 -3.4499
13537TIP3   OH262025   2.799   5.421   1.398  0.6220 -0.1646 -0.4660
13537TIP3    H162026   2.789   5.334   1.435 -0.3480  0.7899  1.6101
13537TIP3    H262027   2.853   5.468   1.461 -0.0725  1.1629 -0.8305
13538TIP3   OH262028   3.583   2.374   4.525 -0.2857 -0.1300 -0.3589
13538TIP3    H162029   3.506   2.323   4.500 -0.6655  0.8554 -1.2531
13538TIP3    H262030   3.656   2.332   4.480 -0.5109 -0.2276 -0.6345
13539TIP3   OH262031   6.351   4.553  17.090 -0.2465  0.4611  0.3653
13539TIP3    H162032   6.271   4.600  17.067 -1.1837 -0.9368  0.6701
13539TIP3    H262033   6.379   4.512  17.008 -1.0873 -0.8553  0.7242
13540TIP3   OH262034   2.048   1.111   5.344 -0.2003  0.0859  0.2728
13540TIP3    H162035   2.000   1.157   5.276 -0.5267 -0.0489  0.4133
13540TIP3    H262036   1.981   1.075   5.401  0.0811  1.6893  1.6659
13541TIP3   OH262037   2.669   1.228  16.514  0.0784  0.3318  0.3361
13541TIP3    H162038   2.676   1.271  16.599  0.0846  1.1650 -0.0790
13541TIP3    H262039   2.584   1.256  16.481  0.3393  0.4984 -0.1965
13542TIP3   OH262040   3.000   2.636  16.504  0.1043 -0.3586 -0.0469
13542TIP3    H162041   3.026   2.661  16.592 -0.3981  0.6458 -0.1852
13542TIP3    H262042   3.027   2.710  16.449 -1.0127 -0.2882 -0.5108
13543TIP3   OH262043   2.048   4.563   5.184  0.0151 -0.3165  0.3514
13543TIP3    H162044   2.062   4.469   5.176  0.3182 -0.2605  0.2091
13543TIP3    H262045   2.024   4.577   5.275  0.2899 -0.4914  0.4492
13544TIP3   OH262046   3.385   1.602  16.473 -0.4126  0.0734  0.2522
13544TIP3    H162047   3.413   1.519  16.513  3.2954  0.2211 -1.7972
13544TIP3    H262048   3.371   1.581  16.381 -2.9639  1.0011  0.4170
13545TIP3   OH262049   5.993   6.747  10.532 -0.5988 -0.0327  0.1001
13545TIP3    H162050   5.913   6.775  10.577 -0.3478  0.0250  0.5192
13545TIP3    H262051   6.058   6.738  10.602 -0.8659 -2.4476  0.0840
13546TIP3   OH262052   5.817   1.162   2.512  0.2386  0.3892 -0.1727
13546TIP3    H162053   5.722   1.150   2.514  0.3995 -1.1177 -0.6187
13546TIP3    H262054   5.830   1.256   2.523 -1.2919  0.5664  0.2417
13547TIP3   OH262055   4.737   4.567   1.020  0.1547 -0.0037  0.0718
13547TIP3    H162056   4.818   4.567   0.969  0.2488 -0.8621  0.1978
13547TIP3    H262057   4.687   4.641   0.986  1.9315  1.9332  1.5290
13548TIP3   OH262058   3.850   0.421  10.763 -0.0003 -0.4429 -0.2660
13548TIP3    H162059   3.866   0.367  10.686  2.1953 -0.0311 -0.1313
13548TIP3    H262060   3.934   0.424  10.809 -0.6649  1.2094  0.9324
13549TIP3   OH262061   0.893   4.985   1.491 -0.1601 -0.0806 -0.7063
13549TIP3    H162062   0.848   4.903   1.471 -0.8349 -0.0969  0.8043
13549TIP3    H262063   0.882   4.996   1.586  1.2192  0.9879 -0.6541
13550TIP3   OH262064   5.429   3.739   1.808  0.5671  0.1244  0.1425
13550TIP3    H162065   5.361   3.673   1.818  0.9793 -0.5541 -1.4582
13550TIP3    H262066   5.418   3.772   1.718  1.7101  0.7251  0.2143
13551TIP3   OH262067   0.414   0.271  11.582 -0.3576 -0.1029  0.2947
13551TIP3    H162068   0.327   0.294  11.613 -0.2144 -0.5765  1.0651
13551TIP3    H262069   0.460   0.238  11.660  0.4364 -0.0537 -0.1450
13552TIP3   OH262070   4.426   4.821  14.949  0.2907 -0.4137 -0.0982
13552TIP3    H162071   4.395   4.791  14.863  1.1777  0.5316 -0.7501
13552TIP3    H262072   4.376   4.768  15.011 -0.1833 -1.2834 -1.1937
13553TIP3   OH262073   0.898   1.519  13.903 -0.0193  0.4206  0.1307
13553TIP3    H162074   0.846   1.443  13.928  1.0655 -1.4205 -3.0301
13553TIP3    H262075   0.834   1.581  13.867 -0.4826 -0.4595 -0.5920
13554TIP3   OH262076   5.743   2.209   6.317  0.9269 -0.2032 -0.1435
13554TIP3    H162077   5.729   2.235   6.408 -0.8013 -0.9302 -0.1827
13554TIP3    H262078   5.764   2.290   6.271  0.6470  0.3422  0.6833
13555TIP3   OH262079   1.658   5.391   3.686  0.6353 -0.5625 -0.0229
13555TIP3    H162080   1.616   5.323   3.739  0.1427  1.5555  2.3908
13555TIP3    H262081   1.594   5.462   3.684  2.0999  0.7580 -0.4995
13556TIP3   OH262082   2.873   0.643  16.821  0.4256 -0.2291  0.1296
13556TIP3    H162083   2.962   0.677  16.815  0.4967 -0.3675  0.3730
13556TIP3    H262084   2.872   0.593  16.903  0.0017  0.1340  0.3460
13557TIP3   OH262085   6.242   2.010  14.868  0.1896  0.4223 -0.1512
13557TIP3    H162086   6.333   2.003  14.839  0.4608  3.3362 -0.2359
13557TIP3    H262087   6.198   2.060  14.799 -1.3864 -0.6508  0.0605
13558TIP3   OH262088   3.990   3.619   0.315  0.5945  0.4289  0.1652
13558TIP3    H162089   3.998   3.714   0.314 -0.4435  0.5223 -1.7662
13558TIP3    H262090   4.063   3.588   0.260  2.1229 -0.0401  2.3581
13559TIP3   OH262091   3.354   4.742   1.264 -0.1788  0.3558 -0.1321
13559TIP3    H162092   3.276   4.794   1.280 -1.1786 -1.0522 -0.3322
13559TIP3    H262093   3.417   4.772   1.329 -0.3885  2.5035 -0.8951
13560TIP3   OH262094   1.971   2.441   1.766 -0.2178  0.3292 -0.0387
13560TIP3    H162095   2.045   2.386   1.743  0.1444 -0.1261  2.1258
13560TIP3    H262096   1.922   2.390   1.830 -1.6641  1.1786 -0.4428
13561TIP3   OH262097   2.168   4.590   4.426 -0.4185  0.2483 -0.9442
13561TIP3    H162098   2.196   4.664   4.480 -1.3526 -0.3574  0.4092
13561TIP3    H262099   2.088   4.621   4.383 -0.3475  0.3196 -1.0235
13562TIP3   OH262100   3.825   3.011  12.252  0.0857  0.4959 -0.2645
13562TIP3    H162101   3.849   3.102  12.234  2.4144  0.2551  1.3177
13562TIP3    H262102   3.767   3.015  12.327  1.3049  0.6117  0.6862
13563TIP3   OH262103   0.388   3.775   0.524 -0.2989  0.4099  0.7202
13563TIP3    H162104   0.314   3.766   0.584 -1.3110  1.4526 -0.3479
13563TIP3    H262105   0.360   3.729   0.444  0.8439 -0.5552  0.8484
13564TIP3   OH262106   3.745   3.525  13.686 -0.1634  0.6382 -0.2024
13564TIP3    H162107   3.825   3.492  13.645 -0.3023  0.8014 -0.6063
13564TIP3    H262108   3.775   3.592  13.746  0.0289  0.5185 -0.1633
13565TIP3   OH262109   2.050   1.709   3.708  0.2605 -0.0085 -0.1358
13565TIP3    H162110   2.101   1.641   3.753  1.6647  1.7618  1.0315
13565TIP3    H262111   2.109   1.785   3.705 -1.4480  1.3206 -0.9675
13566TIP3   OH262112   6.575   0.672  11.144  0.3718  0.4308 -0.5244
13566TIP3    H162113   6.667   0.661  11.167 -0.0998 -0.8041  0.8650
13566TIP3    H262114   6.546   0.746  11.197  0.4013  0.3986 -0.4623
13567TIP3   OH262115   4.728   4.136   4.092  0.0593  0.5960  0.1875
13567TIP3    H162116   4.688   4.222   4.109  0.1899  0.6669  0.1383
13567TIP3    H262117   4.654   4.078   4.074 -0.1959  0.2303  2.2338
13568TIP3   OH262118   3.528   5.056  14.847 -0.0600  0.3023  0.2006
13568TIP3    H162119   3.514   5.058  14.941 -1.5251  0.4067 -0.0143
13568TIP3    H262120   3.441   5.044  14.809  0.4230  0.9557 -1.1686
13569TIP3   OH262121   1.462   1.451   3.978 -0.0239  0.0620 -0.0280
13569TIP3    H162122   1.383   1.399   3.962 -0.4025  0.4372  0.6186
13569TIP3    H262123   1.433   1.542   3.972  0.2484  0.2001  0.7501
13570TIP3   OH262124   1.744   3.655  12.509  0.0350 -0.4437  0.3319
13570TIP3    H162125   1.672   3.648  12.571  2.4035 -0.5934  3.1423
13570TIP3    H262126   1.728   3.585  12.445 -2.2164 -0.5534  0.9922
13571TIP3   OH262127   0.383   6.001  11.541  0.2457  0.3676 -0.3097
13571TIP3    H162128   0.371   5.927  11.600 -0.4817 -0.3978 -1.4039
13571TIP3    H262129   0.363   5.966  11.454  2.9037  1.0316 -1.2481
13572TIP3   OH262130   2.731   4.385   5.257  0.4196  0.5939 -0.2773
13572TIP3    H162131   2.825   4.403   5.255  0.7727 -0.7525  2.2006
13572TIP3    H262132   2.715   4.328   5.182  1.7266  0.2287 -0.2853
13573TIP3   OH262133   4.451   2.023  14.916  0.1359 -0.1688  0.1348
13573TIP3    H162134   4.454   1.929  14.898 -1.5262  0.0860 -1.7489
13573TIP3    H262135   4.366   2.037  14.959  0.7030  0.3695  1.0937
13574TIP3   OH262136   4.713   1.902  15.536 -0.3284  0.2658 -0.2571
13574TIP3    H162137   4.805   1.923  15.550 -0.7495  1.6764  0.4995
13574TIP3    H262138   4.690   1.845  15.609  0.0396 -0.3898 -0.6518
13575TIP3   OH262139   0.356   6.221  15.747 -0.1836 -0.1805 -0.4439
13575TIP3    H162140   0.276   6.271  15.762 -0.4612 -0.0384 -2.3197
13575TIP3    H262141   0.426   6.280  15.774 -0.7144 -0.7325  2.3356
13576TIP3   OH262142   2.426   6.469  15.027  0.0734 -0.1126  0.1090
13576TIP3    H162143   2.408   6.546  15.082 -0.6807 -0.7460  0.7650
13576TIP3    H262144   2.356   6.469  14.962 -0.2425 -0.5524  0.4476
13577TIP3   OH262145   1.622   3.811   6.114 -0.5830  0.0980  0.7114
13577TIP3    H162146   1.610   3.734   6.170  0.1212 -0.9341 -0.5324
13577TIP3    H262147   1.612   3.885   6.173 -1.5021 -0.9394  1.8886
13578TIP3   OH262148   5.570   3.507  15.835 -0.0197 -0.3693  0.0913
13578TIP3    H162149   5.642   3.570  15.824 -0.4054 -0.0154 -0.4359
13578TIP3    H262150   5.494   3.561  15.857 -0.4983 -0.5780 -0.9981
13579TIP3   OH262151   2.723   5.964   2.327  0.7927 -0.6750 -0.0572
13579TIP3    H162152   2.660   5.897   2.354  0.9678 -0.9963 -0.4368
13579TIP3    H262153   2.785   5.968   2.399  1.2773 -1.5520 -0.4207
13580TIP3   OH262154   1.353   1.825   1.161 -0.4950  0.3466  0.2894
13580TIP3    H162155   1.437   1.841   1.203  0.3188  0.7509 -1.4507
13580TIP3    H262156   1.321   1.912   1.137 -0.0011  0.0289 -1.6730
13581TIP3   OH262157   2.250   4.820   4.719  0.3882  0.3310  0.2336
13581TIP3    H162158   2.304   4.743   4.738  1.7577  1.9121  2.9760
13581TIP3    H262159   2.198   4.834   4.798  0.9833  2.8606  0.2269
13582TIP3   OH262160   4.220   3.712  15.279 -0.2038  0.3391 -0.5298
13582TIP3    H162161   4.162   3.755  15.216 -0.8181  0.9602  0.4279
13582TIP3    H262162   4.308   3.731  15.248 -0.5156 -0.1792 -1.7306
13583TIP3   OH262163   2.785   4.127   2.019  0.4540  0.3025 -0.3218
13583TIP3    H162164   2.783   4.185   1.943  3.2060 -0.0565 -0.7162
13583TIP3    H262165   2.798   4.040   1.983 -1.7301 -0.3316  0.3847
13584TIP3   OH262166   6.582   0.911   0.030 -0.4019 -0.2406  0.0003
13584TIP3    H162167   6.632   0.968  -0.028 -0.8949 -0.0136 -0.2048
13584TIP3    H262168   6.540   0.848  -0.029  0.4807 -1.0852  0.2583
13585TIP3   OH262169   2.055   5.265   3.110 -0.1037 -0.0910  0.2661
13585TIP3    H162170   2.030   5.357   3.109  0.3489  0.0329  0.5860
13585TIP3    H262171   2.021   5.232   3.193 -1.8770 -0.6628 -0.6331
13586TIP3   OH262172   2.312   5.154   3.540 -0.2624 -0.8242 -0.3337
13586TIP3    H162173   2.243   5.169   3.475 -0.7931 -1.9502 -0.0484
13586TIP3    H262174   2.288   5.210   3.614 -0.9164 -1.2639 -0.2070
13587TIP3   OH262175   3.138   4.247  16.067  0.0101  0.4847 -0.2367
13587TIP3    H162176   3.130   4.163  16.022  1.2298  0.0626  0.2931
13587TIP3    H262177   3.055   4.259  16.113  0.5968 -1.4649  1.3940
13588TIP3   OH262178   4.356   1.850  15.196 -0.0007  0.3404 -0.3317
13588TIP3    H162179   4.412   1.809  15.131  1.3838  2.1719 -0.3349
13588TIP3    H262180   4.273   1.803  15.190  1.9711 -3.4844  0.7518
13589TIP3   OH262181   2.019   4.983  14.720  0.5022 -0.3462 -0.8611
13589TIP3    H162182   2.104   4.974  14.764  0.2159 -0.9901 -0.4326
13589TIP3    H262183   2.035   4.951  14.631  0.8308 -0.0139 -0.9201
13590TIP3   OH262184   2.138   6.455  13.154  0.6564 -0.1669  0.5578
13590TIP3    H162185   2.168   6.426  13.068  1.4907 -1.3015  1.2290
13590TIP3    H262186   2.068   6.518  13.135  0.7585 -0.5027 -0.9427
13591TIP3   OH262187   2.392   1.113   2.207  0.2965  0.8558 -0.1750
13591TIP3    H162188   2.410   1.068   2.290  0.0655  1.5679  0.2746
13591TIP3    H262189   2.417   1.051   2.139 -0.4697 -0.1259  0.4306
13592TIP3   OH262190   2.830   6.396  12.105  0.1456  0.1967  0.2902
13592TIP3    H162191   2.775   6.393  12.183  1.3246 -0.4018  1.1109
13592TIP3    H262192   2.919   6.381  12.137  0.4366 -1.9581 -1.3635
13593TIP3   OH262193   6.191   0.580  11.065  0.0639  0.1682 -0.3310
13593TIP3    H162194   6.130   0.591  10.992  0.3455 -0.1694 -0.6152
13593TIP3    H262195   6.269   0.630  11.039 -0.2430  0.9616  0.2200
13594TIP3   OH262196   1.987   1.101  14.961 -0.7501 -0.0207  0.2019
13594TIP3    H162197   2.015   1.033  15.023  1.1148  0.2761 -0.2640
13594TIP3    H262198   1.927   1.056  14.902  0.4549 -1.3079 -0.0926
13595TIP3   OH262199   5.957   3.128   3.978 -0.2246 -0.0740 -0.1582
13595TIP3    H162200   5.923   3.045   4.014  1.0735 -0.4764  0.1932
13595TIP3    H262201   5.880   3.174   3.946 -0.8716 -1.8462 -1.2287
13596TIP3   OH262202   1.489   0.124  10.601 -0.2448 -0.3272  0.6290
13596TIP3    H162203   1.502   0.206  10.554  3.2534 -0.5665  1.0415
13596TIP3    H262204   1.440   0.068  10.541 -2.1232  1.8410  0.1154
13597TIP3   OH262205   1.427   3.311  13.959  0.5726  0.1987 -0.5483
13597TIP3    H162206   1.504   3.354  13.922  0.2520 -1.4077 -3.1847
13597TIP3    H262207   1.381   3.381  14.006  2.3268  1.7124 -1.0438
13598TIP3   OH262208   4.695   4.221   0.057 -0.3275 -0.0794 -0.7134
13598TIP3    H162209   4.750   4.185   0.126  0.1047 -0.8146 -1.4311
13598TIP3    H262210   4.615   4.248   0.102 -0.0538 -0.5605  0.0695
13599TIP3   OH262211   3.715   0.438  11.061 -0.2997  0.3484 -0.0001
13599TIP3    H162212   3.807   0.421  11.081 -0.1558  0.3100 -0.6700
13599TIP3    H262213   3.702   0.400  10.974 -0.6394  1.3641 -0.4079
13600TIP3   OH262214   0.515   2.083  16.005 -0.3357 -0.8538 -0.7550
13600TIP3    H162215   0.543   1.997  16.038  1.4744 -0.0223 -0.0244
13600TIP3    H262216   0.504   2.136  16.083  1.8982  0.5316 -1.3422
13601TIP3   OH262217   3.502   3.658   0.864  0.4766 -0.0842 -0.0001
13601TIP3    H162218   3.571   3.722   0.881 -0.1725  0.1143  2.0422
13601TIP3    H262219   3.547   3.585   0.822  1.7476  0.5089  0.3038
13602TIP3   OH262220   6.473   0.880   2.085 -0.4340 -0.2136  0.4443
13602TIP3    H162221   6.426   0.946   2.136  0.2543  0.2734  0.4405
13602TIP3    H262222   6.459   0.906   1.994  0.2551  0.2166  0.4567
13603TIP3   OH262223   2.363   4.177   1.397  0.5085 -0.3492  0.3344
13603TIP3    H162224   2.323   4.120   1.330  1.3873  0.4106 -0.8671
13603TIP3    H262225   2.457   4.172   1.379  0.6589  0.8263  0.7417
13604TIP3   OH262226   5.189   0.090  14.628  0.1297  0.0689  0.0294
13604TIP3    H162227   5.170   0.140  14.707 -0.7374 -0.3348  0.0892
13604TIP3    H262228   5.230   0.010  14.660  0.4073  0.2095  0.0231
13605TIP3   OH262229   3.866   1.508  11.199 -0.0448  0.1779  0.6010
13605TIP3    H162230   3.885   1.599  11.175 -0.1064  0.1875  0.5896
13605TIP3    H262231   3.771   1.506  11.211  0.0942  0.3973  1.7671
13606TIP3   OH262232   3.426   3.517   3.157  0.5647  0.2879  0.2392
13606TIP3    H162233   3.476   3.448   3.112 -0.2991  0.8209 -1.5863
13606TIP3    H262234   3.491   3.582   3.181  1.2167 -0.5890  0.8483
13607TIP3   OH262235   1.411   5.319  11.986 -0.6719  0.4110 -0.0015
13607TIP3    H162236   1.440   5.408  12.003  0.1003 -0.2817  2.5426
13607TIP3    H262237   1.316   5.324  11.982 -0.6106  1.3886 -0.1587
13608TIP3   OH262238   0.214   1.925  16.191  0.4274 -0.0171 -0.4645
13608TIP3    H162239   0.278   1.993  16.172 -1.6261  2.6841  1.7181
13608TIP3    H262240   0.265   1.856  16.233  2.2809  1.0091 -0.9445
13609TIP3   OH262241   6.221   1.459  16.812 -0.3134  0.4463 -0.0970
13609TIP3    H162242   6.260   1.408  16.740  2.0309  0.2872  1.2373
13609TIP3    H262243   6.217   1.549  16.777  2.4161  0.7041  0.1214
13610TIP3   OH262244   2.974   0.718  15.216  0.5355 -0.7932  0.1204
13610TIP3    H162245   2.885   0.692  15.240  0.1665  0.7621  0.4869
13610TIP3    H262246   3.016   0.736  15.300  0.5066  0.6361 -0.1626
13611TIP3   OH262247   4.624   2.490   3.732  0.8752 -0.2615 -0.5874
13611TIP3    H162248   4.706   2.458   3.695  0.7012  1.2397 -2.3235
13611TIP3    H262249   4.574   2.522   3.657 -1.0485 -0.5614  0.5220
13612TIP3   OH262250   5.680   3.673   1.204  0.0846 -0.1964 -0.4242
13612TIP3    H162251   5.625   3.601   1.233  1.2678 -1.3822 -1.0731
13612TIP3    H262252   5.703   3.719   1.285 -0.7275 -0.4975 -0.0154
13613TIP3   OH262253   1.520   5.211  16.468  0.8278  0.0214  0.2676
13613TIP3    H162254   1.451   5.167  16.417 -0.3147  0.6936  1.2070
13613TIP3    H262255   1.525   5.161  16.549  0.7968  0.5322  0.5846
13614TIP3   OH262256   0.794   6.134   3.719  0.5815  0.5417  0.0766
13614TIP3    H162257   0.781   6.060   3.779  3.1867 -0.8568 -1.0124
13614TIP3    H262258   0.883   6.123   3.686  1.1565  4.3928  0.1462
13615TIP3   OH262259   1.314   6.045  14.929  0.7030  0.5118  0.0010
13615TIP3    H162260   1.278   6.133  14.939  1.3914  0.9438 -1.2508
13615TIP3    H262261   1.274   5.995  15.001 -0.1985  1.6700  0.3318
13616TIP3   OH262262   5.407   1.066   4.906  0.4268 -0.0621 -0.4038
13616TIP3    H162263   5.420   1.107   4.992 -0.9595 -2.1792  0.8671
13616TIP3    H262264   5.477   1.001   4.900  0.8242  0.4217 -1.1220
13617TIP3   OH262265   1.134   2.969   2.995 -0.6345 -0.6139 -0.1634
13617TIP3    H162266   1.187   3.048   2.979 -0.3395 -0.8538 -0.3694
13617TIP3    H262267   1.196   2.905   3.030 -0.5881 -1.2022 -1.2908
13618TIP3   OH262268   6.727   5.657  16.619 -0.2723 -0.0089 -0.1248
13618TIP3    H162269   6.805   5.675  16.566 -0.6990  0.4659 -0.6053
13618TIP3    H262270   6.673   5.601  16.563 -0.4211 -0.0626  0.0734
13619TIP3   OH262271   1.369   0.970  11.437  0.1428  0.0972 -0.0709
13619TIP3    H162272   1.362   1.032  11.365  1.0305 -0.8665 -1.0069
13619TIP3    H262273   1.426   0.900  11.404  0.1307 -0.6285  1.3691
13620TIP3   OH262274   0.972   2.896  15.740  0.2481 -0.5699 -0.9130
13620TIP3    H162275   0.961   2.976  15.791  0.5184 -1.0916 -0.0366
13620TIP3    H262276   1.066   2.882  15.736  0.1918 -0.9369 -0.9382
13621TIP3   OH262277   4.794   6.691   4.467  0.2464 -0.0980 -0.6242
13621TIP3    H162278   4.846   6.627   4.515 -0.6635 -0.0893  0.3942
13621TIP3    H262279   4.715   6.644   4.441  1.3683 -0.5226 -3.4404
13622TIP3   OH262280   0.818   6.585   5.845 -0.2087  0.2527 -1.1546
13622TIP3    H162281   0.881   6.513   5.845  0.0759  0.4985 -1.3659
13622TIP3    H262282   0.832   6.629   5.929 -0.2660  0.1594 -1.0964
13623TIP3   OH262283   2.290   4.857  16.182 -0.1118  0.8138  0.0876
13623TIP3    H162284   2.241   4.792  16.132 -0.4412  1.7766 -0.8594
13623TIP3    H262285   2.242   4.864  16.265 -0.7359  0.6800 -0.2589
13624TIP3   OH262286   2.783   1.957  14.451 -0.0498  0.5652  0.1297
13624TIP3    H162287   2.703   1.919  14.486 -0.2909  0.6794 -0.2854
13624TIP3    H262288   2.830   1.883  14.412  0.2171  0.4393  0.6868
13625TIP3   OH262289   3.697   5.007   4.690  0.3202  0.1538  0.1426
13625TIP3    H162290   3.669   4.964   4.610  0.3185 -0.1266  0.2929
13625TIP3    H262291   3.758   5.075   4.662 -1.2202  1.4024 -0.2822
13626TIP3   OH262292   2.113   6.067  15.300  0.0866  0.5519 -0.2638
13626TIP3    H162293   2.189   6.090  15.353  0.4358  1.3368 -1.0722
13626TIP3    H262294   2.052   6.026  15.361  1.1842 -0.1604  0.3778
13627TIP3   OH262295   1.000   5.177  16.899 -0.4404  0.4438  0.4406
13627TIP3    H162296   0.964   5.143  16.981 -0.9384 -0.6943 -0.2568
13627TIP3    H262297   0.949   5.135  16.830 -0.5064  1.9511 -0.4546
13628TIP3   OH262298   5.348   5.827  12.719  0.4881  0.1277 -0.0074
13628TIP3    H162299   5.428   5.835  12.771  0.5164 -1.2972  0.1904
13628TIP3    H262300   5.282   5.875  12.769  1.1620  1.1504 -0.0734
13629TIP3   OH262301   6.062   2.770  16.179 -0.0050 -0.0505 -0.2106
13629TIP3    H162302   6.146   2.736  16.209 -0.7130 -2.6113 -1.0573
13629TIP3    H262303   6.065   2.764  16.084 -0.2197  2.1566 -0.3925
13630TIP3   OH262304   3.971   4.337  12.461  0.1578  0.0674 -0.3611
13630TIP3    H162305   4.053   4.384  12.478 -0.4436  0.2324  2.2397
13630TIP3    H262306   3.928   4.387  12.392  1.1037  1.4058  0.0054
13631TIP3   OH262307   4.540   5.928   4.822  0.5372 -0.5759 -0.3668
13631TIP3    H162308   4.613   5.901   4.878  0.3996 -2.7084 -1.1503
13631TIP3    H262309   4.581   5.950   4.738  0.4810  0.1449 -0.2066
13632TIP3   OH262310   2.819   1.197  17.234  0.1793  0.1582 -0.0517
13632TIP3    H162311   2.883   1.202  17.163  1.6506 -0.7310  1.1919
13632TIP3    H262312   2.862   1.146  17.302 -1.5257  0.3067  1.1735
13633TIP3   OH262313   3.047   3.153   3.284  0.2670  0.0916  0.4107
13633TIP3    H162314   3.111   3.211   3.325  3.5833 -2.9851 -0.2653
13633TIP3    H262315   2.971   3.157   3.343  1.2622  3.2378  1.6022
13634TIP3   OH262316   6.778   4.665  11.830  0.2327  0.0152 -0.5409
13634TIP3    H162317   6.732   4.744  11.857  0.8963  0.0780  0.3963
13634TIP3    H262318   6.709   4.598  11.826 -0.3413  0.6379 -1.4032
13635TIP3   OH262319   3.412   2.412   5.135 -0.7370 -0.9096  0.0971
13635TIP3    H162320   3.337   2.434   5.079 -0.6258 -0.4048  0.1503
13635TIP3    H262321   3.419   2.485   5.196 -1.1836 -1.6986  1.1084
13636TIP3   OH262322   2.206   6.598   3.435 -0.2218  0.1156  0.0820
13636TIP3    H162323   2.126   6.563   3.472 -0.1108 -2.6575 -2.1082
13636TIP3    H262324   2.276   6.562   3.489 -0.1864 -2.1486 -1.3960
13637TIP3   OH262325   5.857   2.100  16.969 -0.9083 -0.8669  0.3359
13637TIP3    H162326   5.793   2.168  16.950 -0.3503 -0.7218 -1.0522
13637TIP3    H262327   5.942   2.142  16.953 -0.5236 -1.5482  0.5716
13638TIP3   OH262328   2.394   2.714   1.725 -0.4236  0.0024 -0.4031
13638TIP3    H162329   2.478   2.709   1.679 -0.7908 -0.7046 -1.0102
13638TIP3    H262330   2.415   2.754   1.810  0.6176 -0.7144 -0.3189
13639TIP3   OH262331   1.075   2.888  13.848 -0.5083  0.1244  0.0020
13639TIP3    H162332   1.090   2.922  13.936  1.4482  2.5403 -1.1903
13639TIP3    H262333   1.054   2.796  13.861  0.3961  0.2857  2.9571
13640TIP3   OH262334   6.271   4.191   5.495 -0.5222  0.0018 -0.2773
13640TIP3    H162335   6.238   4.225   5.578 -0.2445 -0.4180  0.0073
13640TIP3    H262336   6.222   4.109   5.482 -0.2442 -0.1581 -0.3089
13641TIP3   OH262337   3.544   1.517  13.723  0.4692 -0.4010  0.3958
13641TIP3    H162338   3.560   1.590  13.663  0.6598  0.4926  1.5194
13641TIP3    H262339   3.448   1.515  13.733  0.5420  0.5517  1.3928
13642TIP3   OH262340   2.965   5.486   5.160 -0.0252  0.0818 -0.1290
13642TIP3    H162341   2.944   5.539   5.237  2.0926 -0.5621  0.9290
13642TIP3    H262342   2.997   5.550   5.096 -0.2039  0.4241  0.1182
13643TIP3   OH262343   0.887   1.805   0.799 -0.6170 -0.0416  0.5221
13643TIP3    H162344   0.861   1.741   0.733  0.4252  0.3474 -0.2736
13643TIP3    H262345   0.978   1.784   0.819  0.0187  1.7238 -0.3917
13644TIP3   OH262346   1.117   0.488  17.021  0.6363 -0.6199  0.2386
13644TIP3    H162347   1.078   0.435  17.091  2.2303 -0.1257  1.5179
13644TIP3    H262348   1.135   0.425  16.951 -1.3199 -1.0511  0.1033
13645TIP3   OH262349   6.754   5.567  15.609 -0.2675 -0.2774  0.0990
13645TIP3    H162350   6.802   5.484  15.601  2.1679  1.2402 -2.0611
13645TIP3    H262351   6.802   5.616  15.675  0.0831  0.5407 -0.7505
13646TIP3   OH262352   2.191   1.651  15.200  0.5410  0.0896  0.4207
13646TIP3    H162353   2.146   1.725  15.240  0.3304 -1.2235  2.7138
13646TIP3    H262354   2.188   1.583  15.267  1.8458 -1.5662 -1.1693
13647TIP3   OH262355   5.802   0.696   5.298  0.4918 -0.3419 -0.1769
13647TIP3    H162356   5.752   0.616   5.315  0.7019 -0.6286 -0.8888
13647TIP3    H262357   5.752   0.765   5.341 -0.6653 -0.5794 -1.1190
13648TIP3   OH262358   1.373   4.790   5.063  0.4196 -0.3400 -0.2835
13648TIP3    H162359   1.404   4.827   5.146  0.3293  0.0477 -0.4217
13648TIP3    H262360   1.446   4.803   5.003 -0.7372  2.4515 -1.1594
13649TIP3   OH262361   1.706   3.826   3.453 -0.7955 -0.0747 -0.0760
13649TIP3    H162362   1.772   3.815   3.385  0.4950 -0.6158  1.2422
13649TIP3    H262363   1.744   3.889   3.514 -1.2223 -0.8472  1.0090
13650TIP3   OH262364   2.833   5.270  11.519 -0.2323  0.3298  0.1486
13650TIP3    H162365   2.913   5.306  11.558  0.3545 -1.0057  0.2339
13650TIP3    H262366   2.857   5.252  11.429 -0.5175  0.1647  0.1058
13651TIP3   OH262367   4.578   5.049  16.954  0.2130 -0.4697 -0.0922
13651TIP3    H162368   4.501   5.096  16.988 -0.4436 -2.0237  0.6331
13651TIP3    H262369   4.555   5.029  16.863  0.2189  0.0417 -0.2061
13652TIP3   OH262370   1.890   1.772   4.540 -0.3329  0.2273  0.2048
13652TIP3    H162371   1.803   1.803   4.514 -0.6474  0.4973  1.5186
13652TIP3    H262372   1.873   1.716   4.616  0.5666 -0.3740 -0.0390
13653TIP3   OH262373   1.492   3.762   3.634  0.5327  0.0918 -0.7436
13653TIP3    H162374   1.522   3.819   3.706 -0.0786 -0.9768  0.3753
13653TIP3    H262375   1.515   3.810   3.555  1.5383  1.1447  0.1612
13654TIP3   OH262376   1.593   4.387   3.394 -0.4023  0.3597 -0.5035
13654TIP3    H162377   1.593   4.451   3.323 -0.0078  0.6894 -0.2065
13654TIP3    H262378   1.658   4.419   3.456 -0.4291 -0.1592 -0.1995
13655TIP3   OH262379   5.531   5.796   2.572 -0.3179 -0.3215  0.0983
13655TIP3    H162380   5.578   5.715   2.552  0.3391  0.2260 -0.6140
13655TIP3    H262381   5.599   5.857   2.601 -1.0377 -0.5490  2.3281
13656TIP3   OH262382   0.935   6.244   1.437 -0.0152  0.0826 -0.7337
13656TIP3    H162383   0.969   6.288   1.359 -1.0236 -0.8476 -1.7307
13656TIP3    H262384   0.878   6.309   1.478  0.7075  0.6610 -0.6296
13657TIP3   OH262385   1.220   1.527  11.931 -0.0454 -0.1539  0.4885
13657TIP3    H162386   1.253   1.548  11.844 -0.8585 -3.4843 -0.6802
13657TIP3    H262387   1.288   1.474  11.971 -1.3216 -1.9034  0.3877
13658TIP3   OH262388   5.596   1.802   4.133 -0.3885  0.1632  0.2522
13658TIP3    H162389   5.581   1.792   4.228 -0.1281  1.3316  0.4186
13658TIP3    H262390   5.691   1.804   4.124 -0.4105 -0.0868 -0.0612
13659TIP3   OH262391   4.135   4.031   6.704 -0.7235  0.0779 -0.2398
13659TIP3    H162392   4.159   4.026   6.796 -1.0923  0.2127 -0.1359
13659TIP3    H262393   4.146   4.124   6.682 -0.3603 -0.0023 -0.4088
13660TIP3   OH262394   4.699   4.437  16.501 -0.2121  0.5796 -1.0770
13660TIP3    H162395   4.646   4.424  16.423  1.4487 -1.4217 -1.9402
13660TIP3    H262396   4.709   4.532  16.509 -2.7680  0.9219 -1.6332
13661TIP3   OH262397   4.667   5.010  11.176 -0.3425  0.0356 -0.1513
13661TIP3    H162398   4.706   5.050  11.253  1.4031  1.9819 -1.9592
13661TIP3    H262399   4.735   4.952  11.142 -1.3432 -1.3218  0.1110
13662TIP3   OH262400   0.038   5.310   3.338 -0.0796  0.2636  0.0642
13662TIP3    H162401   0.035   5.219   3.369 -0.7087  0.1581 -0.2876
13662TIP3    H262402   0.131   5.329   3.329  0.0573 -0.3672  0.0903
13663TIP3   OH262403   4.183   3.200   3.806  0.0043 -0.0913 -0.6456
13663TIP3    H162404   4.264   3.250   3.800  0.3848 -0.4310  1.2119
13663TIP3    H262405   4.119   3.261   3.844  0.5672 -1.0503  1.9661
13664TIP3   OH262406   2.946   2.133   1.166  0.0077  0.1631 -0.0242
13664TIP3    H162407   2.882   2.203   1.176  0.8688  1.1811 -1.4176
13664TIP3    H262408   2.968   2.107   1.255 -1.5521  0.5358  0.4790
13665TIP3   OH262409   6.461   0.575   5.622  0.2323  0.5171  0.4484
13665TIP3    H162410   6.497   0.495   5.583 -0.0050  0.6843 -0.1168
13665TIP3    H262411   6.408   0.545   5.696 -0.4032  0.1058 -0.1739
13666TIP3   OH262412   5.432   2.350  12.674 -0.8331 -0.5505 -0.0615
13666TIP3    H162413   5.465   2.269  12.637 -0.4596 -0.0102 -0.9311
13666TIP3    H262414   5.439   2.338  12.769  0.4837 -1.0172 -0.2113
13667TIP3   OH262415   2.224   4.984  12.806 -0.4541 -0.0889 -0.3424
13667TIP3    H162416   2.167   4.998  12.731 -0.7978 -0.0459 -0.0758
13667TIP3    H262417   2.180   4.917  12.859 -0.0639 -0.3454 -0.3325
13668TIP3   OH262418   6.226   3.324   2.499 -0.5973  0.0565 -0.0251
13668TIP3    H162419   6.205   3.409   2.462 -1.4749 -0.4726 -0.7778
13668TIP3    H262420   6.282   3.343   2.574 -2.6945  1.4405  1.2534
13669TIP3   OH262421   0.409   6.641   3.590  0.0142 -0.4109  0.0248
13669TIP3    H162422   0.352   6.632   3.514 -0.4495  1.8922  0.0712
13669TIP3    H262423   0.351   6.663   3.662  0.5996 -1.3448  0.8008
13670TIP3   OH262424   1.095   5.068   5.151  0.1352  0.0951 -0.6681
13670TIP3    H162425   1.001   5.064   5.165  0.2096 -1.7699 -0.5456
13670TIP3    H262426   1.114   4.995   5.092  1.5254  0.3008 -0.5074
13671TIP3   OH262427   4.352   3.244  14.743  0.7194 -0.2107 -0.4325
13671TIP3    H162428   4.340   3.160  14.699 -0.4126 -0.4779  0.3847
13671TIP3    H262429   4.367   3.222  14.835 -0.5077  0.5085 -0.0428
13672TIP3   OH262430   6.745   0.467   5.481 -0.0353 -0.5251  0.3243
13672TIP3    H162431   6.834   0.432   5.488  0.5131  0.6740 -0.5765
13672TIP3    H262432   6.722   0.491   5.571  1.1689  0.6612  0.3199
13673TIP3   OH262433   3.373   4.859   0.989 -0.4880  1.0126 -0.1422
13673TIP3    H162434   3.349   4.815   1.070  0.0284  0.8994 -0.0529
13673TIP3    H262435   3.291   4.861   0.938 -0.6612  0.5280  0.1158
13674TIP3   OH262436   0.413   3.324   4.225 -0.1060 -0.1306 -0.4116
13674TIP3    H162437   0.494   3.375   4.233  0.5941 -0.8668 -2.5078
13674TIP3    H262438   0.377   3.349   4.140 -0.1256 -2.5616 -1.1608
13675TIP3   OH262439   0.072   6.294   0.893  0.4097 -0.0507 -0.3074
13675TIP3    H162440  -0.001   6.296   0.831 -0.3960 -0.1254  0.6261
13675TIP3    H262441   0.104   6.384   0.894  1.8514 -0.5009 -2.4761
13676TIP3   OH262442   1.084   1.430   5.924  0.3039  0.2185  0.1836
13676TIP3    H162443   1.080   1.360   5.859 -0.3176 -0.6862  1.1762
13676TIP3    H262444   1.020   1.404   5.991  1.3914  0.7959  1.4695
13677TIP3   OH262445   3.485   1.252   2.034 -0.7114  0.2870 -0.4654
13677TIP3    H162446   3.396   1.279   2.011 -0.4830  1.4671  0.0089
13677TIP3    H262447   3.519   1.324   2.087  0.2344 -0.5342  0.0589
13678TIP3   OH262448   0.566   6.471   2.360 -0.2861  0.3943 -0.0810
13678TIP3    H162449   0.645   6.480   2.306  0.4364 -0.4877  0.8150
13678TIP3    H262450   0.535   6.560   2.371  0.9424  0.8145  0.0860
13679TIP3   OH262451   1.914   0.489   0.707  0.3266 -0.1468 -0.4775
13679TIP3    H162452   1.884   0.428   0.640  5.1826 -1.3934 -1.7399
13679TIP3    H262453   1.922   0.436   0.786 -2.2829  0.5981  0.3508
13680TIP3   OH262454   2.428   3.567  15.151 -0.0723  0.0952  0.1757
13680TIP3    H162455   2.396   3.567  15.060 -2.2443  1.4173  0.9094
13680TIP3    H262456   2.442   3.475  15.171  0.8526 -0.1954 -1.6285
13681TIP3   OH262457   0.247   6.583   3.361  0.2616 -0.3155  0.2310
13681TIP3    H162458   0.240   6.613   3.270 -0.3784  0.1986  0.4469
13681TIP3    H262459   0.168   6.532   3.376  0.5020 -0.6310  0.4122
13682TIP3   OH262460   4.417   4.535  13.988 -0.0129  0.2761 -0.2080
13682TIP3    H162461   4.479   4.576  14.048  1.0769 -1.4580 -0.1057
13682TIP3    H262462   4.472   4.495  13.920 -1.2660  3.0745 -2.9758
13683TIP3   OH262463   4.145   5.617  15.243 -0.1467  0.0143 -0.1886
13683TIP3    H162464   4.214   5.655  15.297 -0.2871 -0.1621  0.1210
13683TIP3    H262465   4.083   5.580  15.306 -1.1355  1.2303 -0.4391
13684TIP3   OH262466   2.015   6.705  14.076  0.4350  0.0735  0.3475
13684TIP3    H162467   1.922   6.723  14.086  0.3003 -0.4334  0.0049
13684TIP3    H262468   2.043   6.675  14.163  0.0467 -0.8224  0.1658
13685TIP3   OH262469   3.117   0.384  12.410 -0.1531  0.0640 -0.1565
13685TIP3    H162470   3.148   0.308  12.360 -0.0916  0.8122 -1.2606
13685TIP3    H262471   3.148   0.460  12.361 -1.4201  0.8123  0.1866
13686TIP3   OH262472   5.215   2.152   3.814  0.1317 -0.1608  0.0643
13686TIP3    H162473   5.259   2.159   3.729 -1.1622  0.1939 -0.5858
13686TIP3    H262474   5.185   2.241   3.832  1.4341  0.0234  1.4712
13687TIP3   OH262475   3.793   4.572  13.223 -0.0787  0.0064 -0.2810
13687TIP3    H162476   3.810   4.482  13.195  0.6146  0.2984 -0.8016
13687TIP3    H262477   3.800   4.570  13.318 -5.5594 -1.6896  0.2707
13688TIP3   OH262478   2.994   6.266  16.780 -0.2394  0.4091  0.3258
13688TIP3    H162479   2.931   6.194  16.770  0.1727 -0.0028  0.6601
13688TIP3    H262480   3.018   6.264  16.872 -0.2816  1.0297  0.3488
13689TIP3   OH262481   1.201   2.019   1.045  0.3286 -0.8364 -0.1133
13689TIP3    H162482   1.240   2.092   1.091  1.7538 -1.2015 -0.7349
13689TIP3    H262483   1.107   2.041   1.040  0.4210 -0.0506  1.5164
13690TIP3   OH262484   2.631   4.460   6.490  0.2025  0.7763  0.5142
13690TIP3    H162485   2.569   4.483   6.560  0.4004  0.9501  0.6307
13690TIP3    H262486   2.641   4.540   6.439 -0.5645  0.4321 -0.1938
13691TIP3   OH262487   6.287   1.756  12.052 -0.0819  0.7620 -0.3551
13691TIP3    H162488   6.380   1.766  12.072 -0.0913  0.5963 -0.2289
13691TIP3    H262489   6.248   1.841  12.071  0.4770  1.6063 -2.7906
13692TIP3   OH262490   4.497   0.266   1.345  0.2020  0.0294  0.0640
13692TIP3    H162491   4.465   0.311   1.266  1.5042 -0.4969 -0.7801
13692TIP3    H262492   4.517   0.337   1.406 -0.5338  0.4599 -0.1933
13693TIP3   OH262493   5.516   5.862   6.479 -0.3239  0.5309 -0.3598
13693TIP3    H162494   5.486   5.782   6.435 -2.7423  0.7386  0.7895
13693TIP3    H262495   5.587   5.834   6.536 -2.1116 -1.1227  1.1244
13694TIP3   OH262496   4.948   2.921   2.494 -0.3339 -0.1885 -0.2496
13694TIP3    H162497   5.031   2.968   2.491 -1.3753  1.8314  0.8179
13694TIP3    H262498   4.931   2.908   2.587 -2.3560  1.6549 -0.2952
13695TIP3   OH262499   3.090   2.185   0.828  0.1898 -0.2454 -0.4725
13695TIP3    H162500   3.125   2.241   0.759 -0.9475  0.8450 -0.1781
13695TIP3    H262501   3.157   2.117   0.840  0.7798  0.0477 -2.0350
13696TIP3   OH262502   0.185   0.942   6.255  0.1295 -0.8581 -0.1281
13696TIP3    H162503   0.137   0.978   6.329  0.1463 -1.8992  0.3971
13696TIP3    H262504   0.208   0.854   6.282  1.6877 -0.6356 -0.6656
13697TIP3   OH262505   6.737   6.015  15.557 -0.3118 -0.5573  0.4289
13697TIP3    H162506   6.754   6.019  15.651 -0.6613 -0.2061  0.4812
13697TIP3    H262507   6.781   5.936  15.527 -1.2035 -1.3150  1.0964
13698TIP3   OH262508   1.330   3.210   2.214 -0.3412  0.6328 -0.1808
13698TIP3    H162509   1.329   3.142   2.147 -0.1555 -0.5407  0.9874
13698TIP3    H262510   1.404   3.266   2.191 -0.3081  0.2603 -0.9811
13699TIP3   OH262511   3.639   1.123  16.906  0.1399 -0.1480 -0.0749
13699TIP3    H162512   3.659   1.054  16.969  1.6143  0.5772  0.2642
13699TIP3    H262513   3.591   1.189  16.956  1.2330  0.3872  0.2833
13700TIP3   OH262514   6.068   5.541  14.384 -0.2493 -0.4117 -0.9443
13700TIP3    H162515   5.983   5.538  14.429 -0.7962 -0.5125 -1.9784
13700TIP3    H262516   6.101   5.629  14.404  0.3527 -1.1011  1.1682
13701TIP3   OH262517   3.232   6.439   5.129 -0.2290 -0.5849 -0.4438
13701TIP3    H162518   3.140   6.466   5.132  0.4633  1.6155  2.3925
13701TIP3    H262519   3.230   6.345   5.144 -2.1394 -0.9513 -2.6933
13702TIP3   OH262520   5.979   2.880   4.948 -0.5920 -0.2433 -0.4439
13702TIP3    H162521   5.981   2.848   5.038  0.5370  0.9727 -0.0205
13702TIP3    H262522   5.994   2.802   4.894  2.0669 -0.4998  0.5624
13703TIP3   OH262523   2.518   3.168   5.888 -0.0218 -0.0409 -0.3554
13703TIP3    H162524   2.604   3.206   5.869  0.2346 -1.1995 -1.5967
13703TIP3    H262525   2.510   3.173   5.983  1.6252 -0.3529 -0.1814
13704TIP3   OH262526   4.172   0.694   2.399  0.0110  0.0220  0.1140
13704TIP3    H162527   4.154   0.667   2.489  1.7120 -0.3180  0.3736
13704TIP3    H262528   4.264   0.672   2.386  0.4774  2.3884 -0.8700
13705TIP3   OH262529   5.533   0.512  13.946 -0.1226 -0.0421  0.5257
13705TIP3    H162530   5.594   0.526  14.018  1.9968 -2.6114 -0.6375
13705TIP3    H262531   5.541   0.590  13.892  0.6373  0.5338  1.4644
13706TIP3   OH262532   5.706   3.043  15.637 -0.6189  0.4948 -0.3597
13706TIP3    H162533   5.789   3.057  15.591 -0.4771 -0.8726 -0.5164
13706TIP3    H262534   5.670   3.132  15.648  1.4188  1.2089  0.7932
13707TIP3   OH262535   4.100   3.999  13.141 -0.3142  0.4165 -0.0029
13707TIP3    H162536   4.172   4.049  13.102 -0.8409  0.6157 -0.7245
13707TIP3    H262537   4.128   3.983  13.231  0.4787  0.7978 -0.1800
13708TIP3   OH262538   1.470   1.398   2.747  0.1005  0.2963  0.2513
13708TIP3    H162539   1.468   1.404   2.651  2.2136 -0.4455  0.1298
13708TIP3    H262540   1.452   1.306   2.766  3.2774 -0.3667  0.3467
13709TIP3   OH262541   1.513   3.087  16.743 -0.3380 -0.4375  0.0292
13709TIP3    H162542   1.518   3.059  16.835 -0.2706 -0.3296  0.0561
13709TIP3    H262543   1.436   3.145  16.740  1.0077  1.4033  0.4981
13710TIP3   OH262544   2.757   4.417  14.643  0.4179  0.1230  0.0710
13710TIP3    H162545   2.838   4.451  14.605  0.5031  0.8347  0.8612
13710TIP3    H262546   2.744   4.470  14.721 -1.3832  0.7512 -0.6230
13711TIP3   OH262547   5.839   3.497  14.680 -0.6971 -0.0265  0.1971
13711TIP3    H162548   5.925   3.532  14.658  0.5254 -1.7742  1.9739
13711TIP3    H262549   5.812   3.449  14.602 -0.3747  1.0830 -0.6113
13712TIP3   OH262550   2.674   5.291  13.533 -0.4591 -0.2311 -0.0067
13712TIP3    H162551   2.630   5.373  13.509  0.7505 -0.3196 -2.6998
13712TIP3    H262552   2.735   5.316  13.602 -1.4433  0.7679  0.5142
13713TIP3   OH262553   3.737   0.935  15.783  0.0500  0.7150 -0.0180
13713TIP3    H162554   3.781   1.004  15.733  0.2183  1.8206  1.6322
13713TIP3    H262555   3.794   0.920  15.859  0.3557 -1.7156 -0.6671
13714TIP3   OH262556   2.626   4.022   5.923  0.1712  0.0826  0.8032
13714TIP3    H162557   2.544   3.990   5.962  1.6555 -0.7148  3.4271
13714TIP3    H262558   2.632   4.113   5.951 -0.9023  0.8201 -1.2915
13715TIP3   OH262559   5.118   5.793  16.555 -0.1369 -0.1527  0.1497
13715TIP3    H162560   5.214   5.789  16.566 -0.0276  1.3217 -0.2075
13715TIP3    H262561   5.085   5.730  16.619  1.0230  0.2226  1.1455
13716TIP3   OH262562   1.918   5.679  16.490 -0.0336 -0.0823  0.2840
13716TIP3    H162563   1.990   5.648  16.435  0.9733  1.2001  0.8804
13716TIP3    H262564   1.924   5.627  16.570  0.0794 -0.1400  0.2361
13717TIP3   OH262565   2.203   0.948   5.730  0.3312  0.5000  0.1836
13717TIP3    H162566   2.275   0.888   5.750 -0.0150 -0.2106 -0.6735
13717TIP3    H262567   2.243   1.035   5.732  0.9049  0.2166  1.1177
13718TIP3   OH262568   4.241   2.734  15.710  0.0448 -0.0773  0.3610
13718TIP3    H162569   4.187   2.688  15.774 -1.8848 -0.2882 -1.3499
13718TIP3    H262570   4.266   2.667  15.647  1.9849  0.1124  0.9154
13719TIP3   OH262571   5.193   1.042  14.662  0.3033 -0.0733  0.1552
13719TIP3    H162572   5.121   1.070  14.606 -0.3702 -1.6325  0.2211
13719TIP3    H262573   5.270   1.045  14.605 -0.0838  0.0489 -0.3671
13720TIP3   OH262574   1.081   1.518   0.782 -0.0622  0.2155  0.0625
13720TIP3    H162575   1.133   1.472   0.715 -1.4734 -0.0645 -0.8632
13720TIP3    H262576   0.990   1.501   0.757 -0.6048  0.3141  1.9240
13721TIP3   OH262577   1.260   1.270  11.438 -0.2469 -0.3893  0.2107
13721TIP3    H162578   1.225   1.187  11.408 -0.0257 -1.1351  1.9454
13721TIP3    H262579   1.193   1.306  11.496 -1.6911  2.1490 -2.9056
13722TIP3   OH262580   0.544   5.943   4.256  0.0526 -0.4029 -0.6108
13722TIP3    H162581   0.585   5.909   4.336 -0.0180 -0.2120 -0.4947
13722TIP3    H262582   0.455   5.907   4.258  0.3152 -1.0891 -1.0305
13723TIP3   OH262583   0.873   3.844   2.315 -0.1644 -0.0555  0.5717
13723TIP3    H162584   0.902   3.829   2.405  0.0074  1.6962  0.8197
13723TIP3    H262585   0.778   3.850   2.321 -0.0473  1.5902  0.8727
13724TIP3   OH262586   6.088   2.749  14.290  0.0351  0.7053 -0.0535
13724TIP3    H162587   6.094   2.747  14.194 -0.1740 -0.8082 -0.0581
13724TIP3    H262588   6.151   2.682  14.318  1.1474  2.1261  0.9399
13725TIP3   OH262589   1.168   4.498  14.910  0.8099  0.0494 -0.3736
13725TIP3    H162590   1.174   4.592  14.922  0.7450 -0.0403  0.3783
13725TIP3    H262591   1.098   4.487  14.845 -0.2013  0.4565  0.6313
13726TIP3   OH262592   4.522   1.208  12.078 -0.0533  0.2034 -0.0111
13726TIP3    H162593   4.491   1.120  12.060 -0.7972  0.8958 -2.2749
13726TIP3    H262594   4.554   1.240  11.993 -1.0272  2.5708  0.4713
13727TIP3   OH262595   6.222   4.419  10.377  1.2108  0.2417 -0.3787
13727TIP3    H162596   6.303   4.442  10.422  1.8376 -1.9857 -0.2994
13727TIP3    H262597   6.155   4.474  10.418  2.3384  0.5973  1.0080
13728TIP3   OH262598   6.066   6.532  13.194 -0.1551 -0.0902  0.5229
13728TIP3    H162599   5.997   6.587  13.233  0.7027  1.2481  0.1679
13728TIP3    H262600   6.025   6.495  13.116 -1.0453 -0.7382  1.2691
13729TIP3   OH262601   3.819   1.807  12.836 -0.1106 -0.5953  0.1127
13729TIP3    H162602   3.748   1.844  12.783 -0.5326 -2.4962 -0.6869
13729TIP3    H262603   3.835   1.873  12.904 -0.6360  1.1610 -1.4388
13730TIP3   OH262604   1.892   3.841  15.741  0.2418  0.4979  0.0787
13730TIP3    H162605   1.874   3.931  15.714  0.6243  0.5987  0.1484
13730TIP3    H262606   1.820   3.790  15.705 -0.2805  0.9148  0.5306
13731TIP3   OH262607   0.726   4.105  12.315  0.6987 -0.0384 -0.2394
13731TIP3    H162608   0.668   4.130  12.388  1.5470  0.3119  0.3217
13731TIP3    H262609   0.811   4.142  12.339  0.5087  1.9729 -2.4419
13732TIP3   OH262610   4.094   3.938   4.369 -0.3906 -0.1228 -0.4933
13732TIP3    H162611   4.037   4.007   4.334 -1.1308 -0.3677  0.2024
13732TIP3    H262612   4.144   3.982   4.438  0.4101  0.1385 -1.2317
13733TIP3   OH262613   3.021   5.530   0.674  0.7353 -0.1021  0.1906
13733TIP3    H162614   3.020   5.515   0.580 -0.1942  0.7251  0.0647
13733TIP3    H262615   3.046   5.622   0.684  2.9716 -0.7586  0.8339
13734TIP3   OH262616   6.122   5.064  12.330 -0.0885  0.8308  0.4012
13734TIP3    H162617   6.147   4.977  12.299 -0.2663  0.7780  0.4079
13734TIP3    H262618   6.161   5.071  12.417  1.6393  1.5252 -0.3993
13735TIP3   OH262619   2.525   5.085  17.145  0.1246 -0.3375 -0.1438
13735TIP3    H162620   2.513   5.144  17.220  1.0912 -0.4196  0.0808
13735TIP3    H262621   2.459   5.017  17.158 -0.4392  0.2450  0.0480
13736TIP3   OH262622   2.532   2.416  13.813  0.1491 -0.1104  0.0414
13736TIP3    H162623   2.481   2.383  13.887  0.3190  1.3222  0.8164
13736TIP3    H262624   2.623   2.398  13.837  0.2149  0.5222  0.2578
13737TIP3   OH262625   2.882   5.957  13.068  0.2985 -0.1130  0.6458
13737TIP3    H162626   2.829   6.036  13.057 -1.1517 -1.3682 -1.7952
13737TIP3    H262627   2.841   5.910  13.140 -1.9797 -1.0465 -1.1850
13738TIP3   OH262628   1.620   4.305  14.853  0.5577 -0.5328  0.2593
13738TIP3    H162629   1.691   4.331  14.913  0.5843  0.0051 -0.0013
13738TIP3    H262630   1.658   4.315  14.766 -0.3611  1.3867  0.0421
13739TIP3   OH262631   4.920   3.362   2.521  0.0821 -0.2292  0.9828
13739TIP3    H162632   4.911   3.327   2.610 -0.7199  0.9287  1.3822
13739TIP3    H262633   4.881   3.296   2.465 -0.7777 -0.3037  1.6502
13740TIP3   OH262634   5.124   1.489  16.081 -0.1484  0.6497  0.0370
13740TIP3    H162635   5.167   1.427  16.140  0.1459  1.3958  0.6243
13740TIP3    H262636   5.196   1.525  16.029 -0.0202  1.9827  1.0978
13741TIP3   OH262637   1.311   4.561   0.389 -0.3916  0.4236  0.1036
13741TIP3    H162638   1.351   4.560   0.303 -0.6137  0.3467  0.0000
13741TIP3    H262639   1.352   4.488   0.436 -0.6195  0.1614 -0.0989
13742TIP3   OH262640   5.364   0.307  14.505 -0.1601 -0.1436  0.7249
13742TIP3    H162641   5.312   0.317  14.425  2.7830  0.5686 -1.1928
13742TIP3    H262642   5.310   0.254  14.563 -4.6281  3.7635  0.3655
13743TIP3   OH262643   0.700   4.476  12.746 -0.6400  0.3944 -0.1344
13743TIP3    H162644   0.639   4.549  12.756 -0.9920  0.1841 -0.7057
13743TIP3    H262645   0.779   4.515  12.708 -1.2058  0.3212 -1.4425
13744TIP3   OH262646   1.785   2.797   2.199 -0.9000  0.2137 -0.4419
13744TIP3    H162647   1.855   2.732   2.195 -1.8030 -0.8388  0.5859
13744TIP3    H262648   1.816   2.863   2.260 -0.8606 -0.3222  0.1149
13745TIP3   OH262649   0.124   1.067  10.713 -0.2419 -0.3371  0.0026
13745TIP3    H162650   0.059   0.998  10.702 -1.7280  1.0406  0.0197
13745TIP3    H262651   0.189   1.050  10.644 -0.2232 -2.1247  0.4233
13746TIP3   OH262652   5.421   3.699   5.925  0.5456 -0.2772 -0.0970
13746TIP3    H162653   5.491   3.664   5.870  1.9915 -0.6368  1.8757
13746TIP3    H262654   5.340   3.676   5.880  1.7103  1.2023 -3.0501
13747TIP3   OH262655   6.162   4.472   4.240 -0.1198 -0.1885 -0.1763
13747TIP3    H162656   6.104   4.547   4.250  0.3063  0.3317 -1.4557
13747TIP3    H262657   6.151   4.421   4.320 -0.3053  1.3169  0.7539
13748TIP3   OH262658   4.722   4.184  13.757  0.2147  0.1411 -0.6620
13748TIP3    H162659   4.784   4.189  13.830 -0.6128  2.2461 -0.0355
13748TIP3    H262660   4.772   4.149  13.684  1.5981 -0.0998  0.3860
13749TIP3   OH262661   5.812   3.574   5.167 -0.8272 -0.3566 -0.4474
13749TIP3    H162662   5.901   3.564   5.200 -0.5698 -0.7053 -1.2401
13749TIP3    H262663   5.806   3.513   5.093 -2.1696 -1.3922  0.4746
13750TIP3   OH262664   4.922   4.803   5.920 -0.4254  0.3216 -0.1616
13750TIP3    H162665   4.954   4.880   5.967  0.2517 -0.2170  0.2752
13750TIP3    H262666   4.868   4.757   5.983  1.6482 -1.1596  0.5778
13751TIP3   OH262667   1.732   0.701  13.833 -0.1618 -0.0713 -0.1445
13751TIP3    H162668   1.740   0.797  13.837  3.1111 -0.2521 -0.6814
13751TIP3    H262669   1.809   0.669  13.880 -0.9934 -2.4640 -0.3435
13752TIP3   OH262670   1.028   2.189  12.228 -0.2597  0.2356 -0.2206
13752TIP3    H162671   1.071   2.213  12.146  2.4754 -1.4250  0.6354
13752TIP3    H262672   1.090   2.217  12.296 -0.4885 -2.2545  1.0660
13753TIP3   OH262673   3.062   1.786   5.095 -0.7122  0.1256  0.1328
13753TIP3    H162674   3.011   1.754   5.021  1.1990 -1.1681 -0.6643
13753TIP3    H262675   3.065   1.712   5.156  0.1861  0.1860  0.1727
13754TIP3   OH262676   6.675   3.553   1.795 -0.1803  0.0566  0.2863
13754TIP3    H162677   6.722   3.535   1.877  0.9446 -1.4047 -0.6528
13754TIP3    H262678   6.604   3.488   1.793 -1.5686  1.5151  1.1449
13755TIP3   OH262679   6.439   3.421  13.380  0.0714 -0.2146  0.3181
13755TIP3    H162680   6.407   3.337  13.347  1.1907  0.1701 -1.8343
13755TIP3    H262681   6.461   3.404  13.472  2.8475 -3.0351 -0.7641
13756TIP3   OH262682   5.799   6.651  16.453 -0.1713 -0.1743 -0.5556
13756TIP3    H162683   5.719   6.680  16.409 -0.3786 -0.8409 -0.6343
13756TIP3    H262684   5.838   6.731  16.488 -0.6414  0.2106 -0.8998
13757TIP3   OH262685   6.643   0.867  12.546 -0.0830  0.0286 -0.3029
13757TIP3    H162686   6.682   0.869  12.634  0.3658  1.1815 -0.5130
13757TIP3    H262687   6.655   0.777  12.516  0.4052 -0.1888  0.5261
13758TIP3   OH262688   0.558   0.535  13.446 -0.0121 -0.3164  0.2955
13758TIP3    H162689   0.497   0.501  13.511  1.4713 -1.0658  1.3093
13758TIP3    H262690   0.515   0.517  13.362 -1.6975  0.1893  1.0148
13759TIP3   OH262691   4.898   6.120   4.167 -0.1857  0.3846  0.0436
13759TIP3    H162692   4.950   6.050   4.206 -0.9142 -0.5692 -0.6962
13759TIP3    H262693   4.910   6.109   4.073 -0.5971  1.0355 -0.0869
13760TIP3   OH262694   1.424   5.708   1.367 -0.2310 -0.0634 -0.2623
13760TIP3    H162695   1.392   5.795   1.392  0.1106  0.2099 -0.7582
13760TIP3    H262696   1.398   5.699   1.276  1.1705  0.1984 -0.6981
13761TIP3   OH262697   5.792   0.662  17.089 -0.4383  0.4922 -0.0230
13761TIP3    H162698   5.863   0.713  17.128 -0.5440  0.7407 -0.1511
13761TIP3    H262699   5.720   0.670  17.151 -1.2543  2.5112 -1.1615
13762TIP3   OH262700   3.733   2.919  11.996 -0.1652 -0.2855 -0.8175
13762TIP3    H162701   3.752   2.941  12.088 -0.9332  1.4630 -1.0420
13762TIP3    H262702   3.785   2.841  11.978  1.1143  0.1961  0.6903
13763TIP3   OH262703   2.383   5.893   4.351  0.1476  0.4426  0.4521
13763TIP3    H162704   2.291   5.887   4.325  0.1160 -0.3634  0.7457
13763TIP3    H262705   2.392   5.983   4.383 -0.3002  0.8177 -0.4692
13764TIP3   OH262706   3.808   6.522  16.873  0.1271  0.0862 -1.2394
13764TIP3    H162707   3.804   6.588  16.942 -0.5095 -0.5838 -0.6163
13764TIP3    H262708   3.720   6.520  16.836 -0.1158 -1.0599 -0.6208
13765TIP3   OH262709   4.774   5.598   3.792  0.5082  0.0776  0.2559
13765TIP3    H162710   4.852   5.559   3.832  0.5857 -0.2961 -0.2575
13765TIP3    H262711   4.757   5.545   3.714  0.9058  1.3637 -0.7269
13766TIP3   OH262712   4.739   6.679   5.528  0.2102  0.0413 -0.3953
13766TIP3    H162713   4.730   6.612   5.596 -0.2917 -1.2002 -1.6483
13766TIP3    H262714   4.833   6.692   5.519  0.3226 -0.6505 -0.2741
13767TIP3   OH262715   3.720   2.178  10.918 -0.3775 -0.2877  0.1661
13767TIP3    H162716   3.701   2.272  10.908 -0.0818  0.0895  2.7611
13767TIP3    H262717   3.656   2.134  10.863 -4.2375  1.2545  3.1836
13768TIP3   OH262718   2.527   2.226  11.668  0.1988 -1.1015 -0.3860
13768TIP3    H162719   2.478   2.240  11.748 -0.4995  1.4539 -1.2020
13768TIP3    H262720   2.480   2.157  11.622 -1.3846 -0.1983 -0.1511
13769TIP3   OH262721   1.615   0.121   4.058  0.0285 -0.2685  0.2493
13769TIP3    H162722   1.622   0.025   4.056 -0.2550 -0.2789 -2.5668
13769TIP3    H262723   1.704   0.152   4.043 -0.1250 -0.1114 -0.3490
13770TIP3   OH262724   2.470   6.431   3.044 -0.0927  0.2287 -0.0533
13770TIP3    H162725   2.559   6.415   3.012 -0.7443 -2.6463 -0.6042
13770TIP3    H262726   2.414   6.399   2.973 -1.5773  1.3162  0.6160
13771TIP3   OH262727   3.221   1.268  12.266 -0.2283 -0.3183  0.5951
13771TIP3    H162728   3.275   1.291  12.341 -0.0981  1.3618  0.0213
13771TIP3    H262729   3.171   1.347  12.247 -0.1901 -0.6861 -1.1388
13772TIP3   OH262730   6.024   5.935  14.116  0.4343 -0.0972  0.1265
13772TIP3    H162731   5.944   5.987  14.123 -0.6957 -1.8176  0.3246
13772TIP3    H262732   6.071   5.953  14.197 -1.7881 -2.3117  1.9975
13773TIP3   OH262733   4.996   1.752   2.504 -0.3684 -0.3808 -0.5517
13773TIP3    H162734   5.087   1.735   2.528 -0.6005  0.9233  1.3724
13773TIP3    H262735   4.949   1.748   2.587 -1.6752  1.4204 -1.1870
13774TIP3   OH262736   4.580   4.292  11.227 -0.0809  0.3189 -0.3264
13774TIP3    H162737   4.623   4.375  11.245 -1.0759  0.8497 -0.3680
13774TIP3    H262738   4.551   4.300  11.136  0.2080 -0.2387 -0.4645
13775TIP3   OH262739   1.671   4.093   5.109 -0.2131 -0.0341  0.4549
13775TIP3    H162740   1.659   4.188   5.110 -0.0693 -0.0208  1.1099
13775TIP3    H262741   1.590   4.058   5.147 -1.1206 -0.2763 -1.6346
13776TIP3   OH262742   4.288   2.590   2.079 -0.0913  0.3337 -0.3763
13776TIP3    H162743   4.227   2.638   2.023 -0.7578  0.6884  0.6347
13776TIP3    H262744   4.302   2.507   2.034  0.7606  1.3160 -1.9422
13777TIP3   OH262745   0.839   4.172  14.690  0.1751 -0.2512  0.8694
13777TIP3    H162746   0.834   4.264  14.718 -1.2128 -0.1535  0.3749
13777TIP3    H262747   0.761   4.132  14.729 -0.9211 -0.4757 -1.4726
13778TIP3   OH262748   0.116   0.495  16.104 -0.1916 -0.5059 -0.0725
13778TIP3    H162749   0.039   0.469  16.054  1.2527 -0.9586 -2.0835
13778TIP3    H262750   0.111   0.442  16.184 -1.8761 -0.6139 -0.2200
13779TIP3   OH262751   2.808   2.739  15.216  0.6480 -0.5315 -0.9748
13779TIP3    H162752   2.796   2.650  15.249 -0.1197 -0.2256 -0.4108
13779TIP3    H262753   2.745   2.792  15.265  2.0949  0.5843 -0.2731
13780TIP3   OH262754   3.952   0.989  14.678  0.2119  0.3551 -0.4215
13780TIP3    H162755   3.876   1.039  14.705  0.0131 -0.0996 -0.1450
13780TIP3    H262756   3.993   1.042  14.609 -0.3341  0.6096 -0.5475
13781TIP3   OH262757   0.117   4.304   0.084  0.6720 -0.1642 -0.1825
13781TIP3    H162758   0.091   4.241   0.151  1.4667  0.4727  0.7317
13781TIP3    H262759   0.103   4.390   0.124  3.3351  0.2162  0.0675
13782TIP3   OH262760   2.122   6.041   5.110  0.5461  0.1148  0.2384
13782TIP3    H162761   2.052   6.013   5.051  0.7993 -2.3433  1.0559
13782TIP3    H262762   2.199   5.993   5.082  0.8779 -0.4620  2.0363
13783TIP3   OH262763   6.367   2.070  14.466 -0.6410 -0.1188 -0.2189
13783TIP3    H162764   6.360   1.993  14.410 -0.6063 -0.3616  0.1072
13783TIP3    H262765   6.279   2.081  14.502 -1.0989  1.0648 -1.6585
13784TIP3   OH262766   4.773   0.202   2.324 -0.2998  0.0839  0.2801
13784TIP3    H162767   4.790   0.255   2.402 -0.1621 -0.9551  0.9668
13784TIP3    H262768   4.737   0.120   2.359 -0.0969 -0.4396 -0.7443
13785TIP3   OH262769   1.798   6.400  16.084 -0.2186 -0.7884 -0.0088
13785TIP3    H162770   1.778   6.354  16.166 -0.2634  1.6108  1.3532
13785TIP3    H262771   1.819   6.489  16.110  1.2158 -0.3475 -2.5024
13786TIP3   OH262772   5.818   1.840  15.651  0.3903  0.7308  0.3465
13786TIP3    H162773   5.835   1.917  15.597  0.4909  1.3351  1.2221
13786TIP3    H262774   5.897   1.786  15.642 -0.3060 -0.0232 -1.4855
13787TIP3   OH262775   1.626   3.513  13.877  0.1922 -0.0569  0.1142
13787TIP3    H162776   1.717   3.541  13.884  0.5394 -1.0767 -0.1896
13787TIP3    H262777   1.605   3.525  13.784  0.5506 -1.3876 -0.1519
13788TIP3   OH262778   0.540   3.304  15.301 -0.1247  0.4357 -0.2862
13788TIP3    H162779   0.586   3.316  15.384 -0.0123  1.3372 -0.4697
13788TIP3    H262780   0.579   3.370  15.243  0.1423 -0.5192 -1.1995
13789TIP3   OH262781   1.608   3.669  15.280  0.1173 -0.1170 -0.3898
13789TIP3    H162782   1.546   3.727  15.236 -1.1218 -1.0238  0.0978
13789TIP3    H262783   1.555   3.593  15.304  1.0693 -0.1971  1.5014
13790TIP3   OH262784   5.507   1.538   4.050  0.1234  0.0715 -0.1289
13790TIP3    H162785   5.531   1.532   3.958 -0.2927  0.6510 -0.2780
13790TIP3    H262786   5.590   1.554   4.096  0.2896  0.0856 -0.4358
13791TIP3   OH262787   3.316   2.048  15.970  0.1511  0.1160 -0.6586
13791TIP3    H162788   3.392   2.094  15.934  0.7627 -0.4115 -0.0598
13791TIP3    H262789   3.277   2.003  15.895  0.0423  0.9281 -1.0900
13792TIP3   OH262790   4.371   5.102  12.042  0.3494 -0.1785  0.4172
13792TIP3    H162791   4.393   5.195  12.044  1.0660 -0.3040 -0.7877
13792TIP3    H262792   4.455   5.058  12.027 -0.1280 -0.9445 -0.0281
13793TIP3   OH262793   5.110   5.125  15.979 -0.7705 -1.1123  0.3599
13793TIP3    H162794   5.069   5.203  16.018 -0.1320  0.2288 -1.5770
13793TIP3    H262795   5.059   5.109  15.900  0.3573 -1.4619 -0.3016
13794TIP3   OH262796   2.997   4.508   2.711  0.2681 -0.4471 -0.3326
13794TIP3    H162797   3.070   4.457   2.745 -0.5629 -0.7503  1.0120
13794TIP3    H262798   2.921   4.451   2.719 -0.5526  0.7260  0.5531
13795TIP3   OH262799   4.286   0.336   1.869  0.0444 -0.5594 -0.4460
13795TIP3    H162800   4.228   0.315   1.942 -0.6996 -1.3283 -1.2513
13795TIP3    H262801   4.336   0.255   1.854  0.5140 -0.2638 -0.4986
13796TIP3   OH262802   0.083   1.843  16.826 -0.7621 -0.2320 -0.1496
13796TIP3    H162803   0.120   1.930  16.809 -0.4091 -0.2495  0.5497
13796TIP3    H262804   0.039   1.852  16.910 -0.3405 -0.8580  0.1370
13797TIP3   OH262805   5.529   0.028   0.080  0.1230 -0.0254 -0.5196
13797TIP3    H162806   5.566   0.081   0.010  0.3431  0.1725 -0.2522
13797TIP3    H262807   5.476   0.089   0.131  0.0869 -0.1376 -0.4238
13798TIP3   OH262808   4.076   2.476   2.872 -0.2048 -0.4091 -0.1559
13798TIP3    H162809   4.004   2.430   2.828 -0.7869 -0.0401  0.3954
13798TIP3    H262810   4.145   2.481   2.806 -0.4722 -1.2687 -0.5059
13799TIP3   OH262811   2.895   1.548   3.875 -0.5377  0.1755 -0.4574
13799TIP3    H162812   2.883   1.463   3.834  1.0168  0.6990 -2.0139
13799TIP3    H262813   2.825   1.602   3.838 -0.3787  0.0982 -0.8699
13800TIP3   OH262814   5.490   5.464   1.146 -0.2921 -0.0404 -0.4152
13800TIP3    H162815   5.436   5.515   1.085  1.2405 -0.9771 -2.5972
13800TIP3    H262816   5.553   5.418   1.090  1.9052 -0.0363  1.9679
13801TIP3   OH262817   4.145   6.308   4.337  0.4267 -0.3236 -0.3069
13801TIP3    H162818   4.205   6.276   4.270  0.7757 -2.6196  1.0663
13801TIP3    H262819   4.145   6.403   4.325  2.2420 -0.5050 -2.0704
13802TIP3   OH262820   2.575   2.064   5.591 -0.3037 -0.3100  0.3287
13802TIP3    H162821   2.500   2.052   5.533  1.3629 -2.0740 -1.5639
13802TIP3    H262822   2.623   1.981   5.586  1.5677  0.6345  1.7859
13803TIP3   OH262823   4.621   1.786  12.073  0.0167 -0.2707 -0.3034
13803TIP3    H162824   4.662   1.704  12.103  1.9331  1.0040  0.6115
13803TIP3    H262825   4.660   1.803  11.987 -0.1556 -0.1572 -0.3580
13804TIP3   OH262826   0.115   2.917  11.109  0.4692 -0.3479  0.7041
13804TIP3    H162827   0.032   2.871  11.126 -0.0140 -0.3570 -1.5719
13804TIP3    H262828   0.099   2.968  11.030  2.1592  0.9320  1.1435
13805TIP3   OH262829   2.561   1.289  13.995 -0.2864 -0.2593 -0.2911
13805TIP3    H162830   2.568   1.244  13.911 -0.0219 -0.7120 -0.0292
13805TIP3    H262831   2.482   1.254  14.036 -0.8824  0.5781 -0.7135
13806TIP3   OH262832   1.236   2.455   4.795  0.3257 -0.0467  0.1210
13806TIP3    H162833   1.277   2.430   4.713  0.9429  1.9597 -0.2035
13806TIP3    H262834   1.143   2.436   4.782  0.6158 -1.0544 -0.5106
13807TIP3   OH262835   6.394   5.923  10.755  0.5471  0.7458 -0.3417
13807TIP3    H162836   6.432   5.938  10.842 -0.4579  0.3829  0.1693
13807TIP3    H262837   6.305   5.956  10.762  0.2484  0.1044 -1.0319
13808TIP3   OH262838   1.503   1.272   5.025 -0.1772 -0.1743  0.3388
13808TIP3    H162839   1.435   1.283   4.959 -0.4792 -0.3214  0.6270
13808TIP3    H262840   1.548   1.191   4.999 -0.8021 -0.6654  0.7581
13809TIP3   OH262841   2.762   0.916   5.480  0.0673 -0.3958  0.9975
13809TIP3    H162842   2.710   0.861   5.540 -0.8877 -0.5351  0.0612
13809TIP3    H262843   2.845   0.930   5.526 -0.9866  0.2631  2.7569
13810TIP3   OH262844   1.326   4.173  16.408 -0.3326 -0.5802 -0.1060
13810TIP3    H162845   1.281   4.090  16.425 -0.1181 -0.9798 -1.3859
13810TIP3    H262846   1.346   4.171  16.314  0.4395  0.5434  0.0114
13811TIP3   OH262847   6.752   6.038   0.629 -0.0130 -0.2039  0.1123
13811TIP3    H162848   6.798   6.023   0.711  0.1511 -0.8854 -0.1016
13811TIP3    H262849   6.781   5.968   0.571  0.9582  1.0998 -1.0059
13812TIP3   OH262850   5.500   5.549  14.712  0.2833 -0.3476  0.4343
13812TIP3    H162851   5.453   5.500  14.644 -0.8353  1.2805  0.0016
13812TIP3    H262852   5.520   5.484  14.779 -0.8790 -1.4769 -0.2880
13813TIP3   OH262853   5.167   3.250   2.193  0.3720 -0.2072 -0.0492
13813TIP3    H162854   5.116   3.330   2.182 -1.0785 -0.8174  1.7678
13813TIP3    H262855   5.254   3.279   2.219  0.5294  0.8148 -1.6517
13814TIP3   OH262856   1.837   2.621  13.033  0.6454  0.1200  0.6047
13814TIP3    H162857   1.841   2.546  12.974  0.1198  0.4628  0.1356
13814TIP3    H262858   1.880   2.590  13.113  0.0063 -0.8335  0.5895
13815TIP3   OH262859   0.596   3.269  13.481  0.2052 -0.0007 -0.0905
13815TIP3    H162860   0.678   3.290  13.437  0.4479 -0.5769  0.0819
13815TIP3    H262861   0.542   3.227  13.414 -0.0612  0.6354 -0.2818
13816TIP3   OH262862   2.799   4.228  13.883  0.0680 -0.3677 -0.1445
13816TIP3    H162863   2.862   4.173  13.930 -0.2361 -1.1872 -0.6809
13816TIP3    H262864   2.747   4.269  13.951  0.7459 -0.2115  0.2849
13817TIP3   OH262865   6.239   1.438  12.105 -0.3757  0.5855  0.1973
13817TIP3    H162866   6.213   1.499  12.036  2.0215  0.6576 -0.6682
13817TIP3    H262867   6.174   1.453  12.175 -3.1697  0.0723 -2.2175
13818TIP3   OH262868   3.460   2.786   4.878 -0.0774 -0.3486  0.2798
13818TIP3    H162869   3.530   2.785   4.943  0.3661 -0.2262 -0.1897
13818TIP3    H262870   3.388   2.831   4.921  0.2795 -0.0928  0.6163
13819TIP3   OH262871   2.922   1.739   5.642 -0.0446  0.6747  0.5495
13819TIP3    H162872   2.941   1.645   5.650 -0.1932  0.1840 -3.5153
13819TIP3    H262873   2.827   1.745   5.647 -0.1117  0.4432 -0.3977
13820TIP3   OH262874   6.177   2.819  15.010  1.0245  0.1554  0.1926
13820TIP3    H162875   6.139   2.881  14.948  2.2608  1.5397  0.7869
13820TIP3    H262876   6.268   2.847  15.019  1.0478 -0.4601  2.0858
13821TIP3   OH262877   3.024   1.282  14.434  0.6590 -0.2489  0.4457
13821TIP3    H162878   3.053   1.306  14.522  1.2878 -0.2202  0.2316
13821TIP3    H262879   3.095   1.309  14.377 -0.0733  0.4363 -0.1649
13822TIP3   OH262880   5.367   3.930  15.496  0.2316  0.2527  0.3780
13822TIP3    H162881   5.424   3.879  15.554  1.0749  0.2759 -0.4048
13822TIP3    H262882   5.329   3.997  15.552 -0.7534 -1.1387  1.3810
13823TIP3   OH262883   1.753   3.133  16.984 -0.0000  0.3579 -0.5296
13823TIP3    H162884   1.694   3.076  17.034 -1.1388  1.6772 -0.3414
13823TIP3    H262885   1.738   3.109  16.893 -0.7272  0.5702 -0.4702
13824TIP3   OH262886   2.432   5.884   3.844 -0.0046 -0.1341 -0.6923
13824TIP3    H162887   2.377   5.915   3.916  2.3071  0.9297  0.6761
13824TIP3    H262888   2.421   5.950   3.775 -0.2664  0.1755 -0.3525
13825TIP3   OH262889   3.455   4.198   3.201 -0.3016  0.5375  0.0246
13825TIP3    H162890   3.508   4.118   3.199 -0.2779  0.5277  0.9158
13825TIP3    H262891   3.458   4.227   3.292 -4.0669 -1.0086  0.7448
13826TIP3   OH262892   2.262   1.353   3.085 -0.0397 -0.0290 -0.8273
13826TIP3    H162893   2.307   1.270   3.100 -1.9392 -0.8335  0.7708
13826TIP3    H262894   2.200   1.334   3.014  0.3092  0.3487 -1.2374
13827TIP3   OH262895   3.173   2.489  12.801  0.5062  0.0429  0.0105
13827TIP3    H162896   3.177   2.503  12.707  2.0153 -1.0402 -0.1036
13827TIP3    H262897   3.200   2.573  12.839  1.2598  0.0529 -0.5430
13828TIP3   OH262898   0.991   5.520   1.391 -0.3137  0.2422  0.0580
13828TIP3    H162899   1.071   5.475   1.419  0.2576  1.4149  0.3297
13828TIP3    H262900   0.920   5.463   1.422  0.3231  0.9468  3.0001
13829TIP3   OH262901   1.696   1.627  13.021  0.4980 -0.1743 -0.6506
13829TIP3    H162902   1.739   1.701  12.977  0.7010 -0.5629 -1.1125
13829TIP3    H262903   1.702   1.555  12.958  0.8427 -0.7548  0.0340
13830TIP3   OH262904   6.414   4.156   0.588 -0.2210  0.5907 -0.1535
13830TIP3    H162905   6.444   4.089   0.527 -0.6557  0.9082 -0.7234
13830TIP3    H262906   6.452   4.237   0.555 -0.0643  0.6877  0.2740
13831TIP3   OH262907   5.050   0.543  14.198  0.1509  0.0239 -0.1734
13831TIP3    H162908   5.049   0.626  14.245 -0.8982 -0.6013  0.9604
13831TIP3    H262909   4.960   0.531  14.168  0.0921 -1.0752  0.3875
13832TIP3   OH262910   3.963   4.082  13.755 -0.2350  0.1737 -0.4327
13832TIP3    H162911   3.870   4.095  13.738 -0.0346  1.1401 -0.7732
13832TIP3    H262912   3.974   3.987  13.753 -1.3245  0.0192  0.2082
13833TIP3   OH262913   6.318   0.555   5.267 -0.3345  0.0109 -0.2070
13833TIP3    H162914   6.322   0.463   5.244  0.0774 -0.1773  0.5853
13833TIP3    H262915   6.226   0.570   5.291 -0.4611 -0.1192 -0.5986
13834TIP3   OH262916   2.654   3.790  13.760 -0.5207  0.4360 -0.1021
13834TIP3    H162917   2.678   3.734  13.686 -0.1352  2.4930 -1.5663
13834TIP3    H262918   2.708   3.758  13.833  1.5910  0.5637 -1.5857
13835TIP3   OH262919   0.595   5.568  15.298 -0.0806  0.0364 -0.3831
13835TIP3    H162920   0.676   5.564  15.248 -0.3640  1.7222 -1.0327
13835TIP3    H262921   0.612   5.634  15.366 -0.3568 -0.8008  0.5014
13836TIP3   OH262922   4.616   1.020  15.153 -0.1919  0.0074  0.4118
13836TIP3    H162923   4.616   0.948  15.215 -0.6182  0.7283  1.2700
13836TIP3    H262924   4.687   1.078  15.182  0.8585 -0.5958 -0.9138
13837TIP3   OH262925   5.670   6.347   1.476 -0.2829 -0.3982 -0.0388
13837TIP3    H162926   5.676   6.378   1.566 -1.3637  0.4549 -0.2560
13837TIP3    H262927   5.752   6.299   1.462  0.5240  0.6617  0.9511
13838TIP3   OH262928   5.288   1.320   2.440  0.0783  0.0633 -0.2987
13838TIP3    H162929   5.358   1.277   2.490 -0.9790 -1.1319  0.1631
13838TIP3    H262930   5.218   1.335   2.504 -1.1810 -1.2388 -1.3545
13839TIP3   OH262931   4.839   3.787  13.757  0.1820  0.3446  0.3516
13839TIP3    H162932   4.922   3.740  13.754 -0.2526 -0.5308  1.7420
13839TIP3    H262933   4.823   3.803  13.850 -0.8939  1.0691  0.0577
13840TIP3   OH262934   3.401   6.053  13.532 -0.2379  0.3894  0.1531
13840TIP3    H162935   3.432   6.001  13.458  3.0937  0.5372  1.3670
13840TIP3    H262936   3.404   5.993  13.606 -0.5298  1.1249  0.7600
13841TIP3   OH262937   3.746   0.741  16.115  0.4852 -1.0079 -0.3044
13841TIP3    H162938   3.734   0.835  16.106  0.1830 -1.1407 -1.3159
13841TIP3    H262939   3.775   0.729  16.206  4.0122  0.4163 -1.1433
13842TIP3   OH262940   2.083   4.101   3.484 -0.0823 -0.5709 -0.0403
13842TIP3    H162941   2.155   4.125   3.542  0.6490 -0.1220 -1.0989
13842TIP3    H262942   2.005   4.130   3.530  0.5714  1.0170  0.1373
13843TIP3   OH262943   5.860   6.266   4.677 -0.2308  0.4931 -0.2455
13843TIP3    H162944   5.854   6.215   4.596  0.5339 -0.6353  0.4040
13843TIP3    H262945   5.772   6.261   4.715 -0.3323  0.2087 -0.5185
13844TIP3   OH262946   3.484   1.091   3.369  0.4954 -0.1061  0.1457
13844TIP3    H162947   3.476   1.124   3.280  1.1801 -1.6166 -0.4982
13844TIP3    H262948   3.537   1.156   3.414  0.9776  0.1854 -0.8219
13845TIP3   OH262949   0.346   0.089  12.120 -0.3528 -0.1128 -0.4133
13845TIP3    H162950   0.308   0.169  12.155 -0.8244 -0.3099 -0.4686
13845TIP3    H262951   0.273   0.027  12.117 -0.1490 -0.3257 -1.0302
13846TIP3   OH262952   6.561   1.901  13.501  0.7050 -0.0929  0.0676
13846TIP3    H162953   6.620   1.924  13.430 -0.2764  0.4420 -0.5885
13846TIP3    H262954   6.473   1.911  13.463  0.1651  0.7435  1.5220
13847TIP3   OH262955   1.365   4.252   2.194 -0.1983  0.1234  0.7847
13847TIP3    H162956   1.368   4.162   2.161  0.6984 -0.4713  2.4376
13847TIP3    H262957   1.379   4.306   2.116  0.0721 -1.1812 -0.0991
13848TIP3   OH262958   5.627   0.252  15.650  0.1981 -0.2369 -0.3372
13848TIP3    H162959   5.548   0.285  15.608  0.8820 -0.6152 -1.9745
13848TIP3    H262960   5.607   0.251  15.744 -1.3416  0.6822 -0.6498
13849TIP3   OH262961   2.900   2.204   3.658  0.0172 -0.9375  0.2414
13849TIP3    H162962   2.944   2.125   3.690  0.0107 -0.9164  0.3029
13849TIP3    H262963   2.960   2.241   3.594 -0.2891 -1.3586 -0.2844
13850TIP3   OH262964   1.629   3.266   0.299 -0.3748  0.1775 -0.4291
13850TIP3    H162965   1.538   3.244   0.322 -0.0322  0.0711  0.8820
13850TIP3    H262966   1.663   3.188   0.256 -0.4300 -0.3512  0.4809
13851TIP3   OH262967   4.914   0.591  13.531 -0.1528  0.5891  0.0682
13851TIP3    H162968   4.956   0.554  13.453  0.0944 -1.3251  1.0625
13851TIP3    H262969   4.821   0.588  13.512 -0.0603  0.7519 -0.4179
13852TIP3   OH262970   3.288   3.416  13.553 -0.3248  0.1134 -0.1511
13852TIP3    H162971   3.262   3.324  13.560 -1.3461  0.5623  2.6395
13852TIP3    H262972   3.361   3.425  13.614 -0.7331  1.3252  0.1672
13853TIP3   OH262973   3.659   1.405  15.442  0.3382 -0.1821  0.0586
13853TIP3    H162974   3.686   1.388  15.352  1.5038 -0.1722  0.3885
13853TIP3    H262975   3.716   1.347  15.495  0.9088  1.1133  0.8877
13854TIP3   OH262976   0.391   5.456   0.960  0.0315 -0.3864  0.0781
13854TIP3    H162977   0.426   5.387   0.904  1.7905  0.5758 -0.0386
13854TIP3    H262978   0.355   5.520   0.899  0.3595 -0.1770  0.1017
13855TIP3   OH262979   1.719   6.577   5.034 -0.6795  0.2228 -0.2986
13855TIP3    H162980   1.783   6.506   5.025 -0.1578  0.8572 -1.7252
13855TIP3    H262981   1.772   6.657   5.038 -1.3512  0.7030 -0.9257
13856TIP3   OH262982   6.276   6.397  16.100 -0.3600  0.2665 -0.0063
13856TIP3    H162983   6.238   6.362  16.019  0.8840 -0.1662 -0.4056
13856TIP3    H262984   6.200   6.419  16.154 -1.1970  0.4805 -1.2565
13857TIP3   OH262985   6.449   5.304  16.362 -0.5762 -0.1243 -0.0709
13857TIP3    H162986   6.500   5.314  16.282  0.3212 -1.9119  0.2651
13857TIP3    H262987   6.480   5.374  16.420  0.2656 -0.1542 -0.4928
13858TIP3   OH262988   3.065   1.652  11.672 -0.6898  0.2462  0.0610
13858TIP3    H162989   3.158   1.663  11.652 -0.4913 -0.5749  0.4633
13858TIP3    H262990   3.020   1.672  11.591  0.0033 -1.6749 -0.8423
13859TIP3   OH262991   4.711   6.525   3.758  0.4310  0.2355  0.1108
13859TIP3    H162992   4.661   6.584   3.814 -1.1877  0.1035 -1.1579
13859TIP3    H262993   4.699   6.439   3.797 -0.1530  0.2413 -0.0450
13860TIP3   OH262994   4.488   5.339   0.423  0.2653  0.5126 -0.0952
13860TIP3    H162995   4.570   5.376   0.389 -0.7563  2.3571 -0.6349
13860TIP3    H262996   4.514   5.290   0.501  2.1117 -0.4011 -1.2463
13861TIP3   OH262997   2.077   5.600  11.841 -0.0375 -0.3098  0.1438
13861TIP3    H162998   2.119   5.577  11.758 -0.7574 -2.8079  0.4253
13861TIP3    H262999   2.077   5.518  11.891  1.7546  1.4802  3.2423
13862TIP3   OH263000   1.504   1.284  16.437  0.3591 -0.0517  1.0205
13862TIP3    H163001   1.462   1.248  16.515  0.3949 -0.3857  0.8877
13862TIP3    H263002   1.454   1.247  16.364  1.0110 -0.6170  0.8543
13863TIP3   OH263003   5.325   6.036   4.012  0.4865 -0.1890 -0.0332
13863TIP3    H163004   5.332   6.062   4.104  0.2105 -0.5796  0.0989
13863TIP3    H263005   5.289   6.113   3.969  0.1467 -0.1681  0.2754
13864TIP3   OH263006   1.918   3.230  11.136  0.5564 -0.3909 -0.1221
13864TIP3    H163007   1.975   3.286  11.083 -0.3186  1.1633  0.5700
13864TIP3    H263008   1.842   3.284  11.155  0.3210 -1.3517  1.7297
13865TIP3   OH263009   4.589   6.630  11.710 -0.3569 -0.5186 -0.1066
13865TIP3    H163010   4.675   6.598  11.684  0.0111  0.9804 -0.7703
13865TIP3    H263011   4.528   6.590  11.649  0.1858  0.6593 -1.4388
13866TIP3   OH263012   4.378   0.176  11.791 -0.3411 -0.3774  0.3176
13866TIP3    H163013   4.320   0.133  11.728 -0.5314  1.1044 -0.5349
13866TIP3    H263014   4.458   0.196  11.741 -0.4997  0.8195  0.5175
13867TIP3   OH263015   5.170   2.524   0.580 -0.3836 -0.4770  0.4717
13867TIP3    H163016   5.243   2.520   0.642 -0.4057  0.1777  0.5433
13867TIP3    H263017   5.110   2.589   0.618 -0.5437 -0.3022 -0.0804
13868TIP3   OH263018   2.999   0.507  15.453  0.1470 -0.1467 -0.1972
13868TIP3    H163019   3.071   0.448  15.433 -1.0691 -1.0477 -2.0496
13868TIP3    H263020   2.922   0.464  15.417 -1.5725  0.1271  2.9631
13869TIP3   OH263021   5.493   0.583  12.535  0.2395  0.2692 -0.5649
13869TIP3    H163022   5.531   0.649  12.477 -1.3231  0.8952 -0.9069
13869TIP3    H263023   5.473   0.509  12.478  1.6611 -0.3755 -0.2438
13870TIP3   OH263024   1.819   2.135   0.387  0.2964  0.3772 -0.0647
13870TIP3    H163025   1.848   2.064   0.443 -0.5599 -1.0776 -1.4175
13870TIP3    H263026   1.897   2.159   0.336  0.4386 -0.0088 -0.0309
13871TIP3   OH263027   1.057   2.018   2.313  0.5580  0.1328 -0.0884
13871TIP3    H163028   1.127   2.017   2.378  1.5565 -1.0626 -1.1590
13871TIP3    H263029   1.084   1.955   2.247 -1.1877  0.1947 -0.8987
13872TIP3   OH263030   4.469   2.208  15.292 -0.0878  0.2160  0.2989
13872TIP3    H163031   4.454   2.175  15.381 -0.2154  0.4314  0.3585
13872TIP3    H263032   4.403   2.277  15.281  0.9977  1.3360  0.6543
13873TIP3   OH263033   4.297   0.918  12.880 -0.4755 -0.2623 -0.3988
13873TIP3    H163034   4.203   0.921  12.895 -0.3625 -1.3049  0.6181
13873TIP3    H263035   4.330   0.856  12.946  0.6644 -1.4079 -2.0103
13874TIP3   OH263036   6.684   5.696   1.314 -0.2840 -0.0122 -0.0003
13874TIP3    H163037   6.763   5.750   1.307 -1.1605  1.3026  0.0729
13874TIP3    H263038   6.663   5.672   1.223 -0.8567  1.1983 -0.1935
13875TIP3   OH263039   5.376   4.099  14.628  0.1087  0.4356 -0.5405
13875TIP3    H163040   5.398   4.142  14.710 -1.8377  0.8848 -0.2348
13875TIP3    H263041   5.455   4.048  14.606  0.5817  0.1321  1.7007
13876TIP3   OH263042   4.867   6.674   0.735  0.1557  0.2996 -0.1180
13876TIP3    H163043   4.825   6.752   0.698 -1.2878 -0.4002  0.0458
13876TIP3    H263044   4.796   6.622   0.770  1.3054 -0.1644  1.5997
13877TIP3   OH263045   0.500   2.441   3.942  0.2351  0.3586 -0.2568
13877TIP3    H163046   0.468   2.359   3.979  0.0115  1.4274  1.9912
13877TIP3    H263047   0.424   2.479   3.898 -0.3621  0.6132  0.9715
13878TIP3   OH263048   3.446   5.207  14.210 -0.3390  0.0220  0.3667
13878TIP3    H163049   3.432   5.134  14.270  0.6313  0.5964  1.3035
13878TIP3    H263050   3.487   5.167  14.133 -0.4217 -0.5219  0.5992
13879TIP3   OH263051   3.520   2.870   4.614  0.8666 -0.2241  0.4443
13879TIP3    H163052   3.562   2.786   4.593  1.1183  0.0632 -0.2093
13879TIP3    H263053   3.498   2.863   4.707 -0.5041 -1.6309  0.0463
13880TIP3   OH263054   6.616   2.736  14.842  0.4477  0.3815  0.0727
13880TIP3    H163055   6.600   2.820  14.799 -0.9708  0.4331  0.7060
13880TIP3    H263056   6.539   2.720  14.895  0.5367 -1.5094 -0.3206
13881TIP3   OH263057   5.676   5.524  17.129 -0.2881 -0.2608 -0.2200
13881TIP3    H163058   5.720   5.468  17.193 -0.9469  0.3792  0.8167
13881TIP3    H263059   5.623   5.583  17.182 -1.7435 -0.4736 -1.4087
13882TIP3   OH263060   0.716   4.299   6.216  0.3127  0.3841 -0.1002
13882TIP3    H163061   0.771   4.221   6.205  0.0210  0.1808 -0.1293
13882TIP3    H263062   0.629   4.272   6.185  0.0391  0.4971  0.5556
13883TIP3   OH263063   2.726   4.173   0.837 -0.2598 -0.2786  0.7790
13883TIP3    H163064   2.734   4.090   0.884  0.7429 -0.9519 -0.5343
13883TIP3    H263065   2.810   4.183   0.793 -0.6120  1.1181  0.4098
13884TIP3   OH263066   3.301   1.074   3.560 -0.2594  0.1884  0.5512
13884TIP3    H163067   3.238   1.141   3.532  0.1787  0.8343  1.0808
13884TIP3    H263068   3.354   1.057   3.482 -0.5113  0.3130  0.3528
13885TIP3   OH263069   5.334   2.904   2.167 -0.2407 -0.1758  0.2297
13885TIP3    H163070   5.396   2.895   2.094  0.5313  0.5874  0.7790
13885TIP3    H263071   5.248   2.892   2.127  0.2018 -0.1452 -0.7455
13886TIP3   OH263072   6.182   3.348   3.146 -0.1221 -0.5175  0.6153
13886TIP3    H163073   6.238   3.415   3.184 -1.4940  0.2157  1.3828
13886TIP3    H263074   6.227   3.321   3.066 -0.7160  3.0290 -0.9979
13887TIP3   OH263075   1.281   0.502  13.005 -0.7918 -0.8130  0.1289
13887TIP3    H163076   1.276   0.412  12.973  0.5553 -0.9919  0.3992
13887TIP3    H263077   1.372   0.513  13.034 -1.3998  0.0670  1.7794
13888TIP3   OH263078   2.314   2.357  15.550  0.2027  0.1994 -0.2945
13888TIP3    H163079   2.261   2.302  15.493  1.3401 -0.6051 -0.5966
13888TIP3    H263080   2.372   2.405  15.491  0.1317  0.7288  0.0595
13889TIP3   OH263081   3.158   1.898   3.264 -0.5365 -0.2148  0.1650
13889TIP3    H163082   3.217   1.971   3.280 -3.3331  1.7521  1.9597
13889TIP3    H263083   3.161   1.886   3.169 -1.0339  3.1848 -0.3670
13890TIP3   OH263084   2.266   6.607   5.951 -0.0001 -0.0299  0.3170
13890TIP3    H163085   2.357   6.628   5.974 -0.6323  2.0317  1.0103
13890TIP3    H263086   2.274   6.552   5.873  1.8752 -0.5715  0.8509
13891TIP3   OH263087   2.890   2.525  11.240 -0.3815 -0.8280 -0.2344
13891TIP3    H163088   2.866   2.551  11.151  0.8739 -1.2668 -0.7118
13891TIP3    H263089   2.985   2.513  11.237 -0.1346  0.3837  1.4859
13892TIP3   OH263090   6.465   5.742  16.033 -0.2276  0.3922 -0.3028
13892TIP3    H163091   6.508   5.656  16.024  0.5994  0.8131 -0.4474
13892TIP3    H263092   6.373   5.724  16.017  0.1130 -0.2509 -1.6602
13893TIP3   OH263093   3.898   3.821  14.244 -0.1089 -0.3537 -0.1395
13893TIP3    H163094   3.922   3.757  14.311 -0.4293 -0.1836  0.1419
13893TIP3    H263095   3.805   3.807  14.230 -0.7896  1.7919  1.8473
13894TIP3   OH263096   4.416   0.604  14.589  0.2542  0.2907 -0.0903
13894TIP3    H163097   4.418   0.684  14.538  2.8148  0.1141 -0.3506
13894TIP3    H263098   4.411   0.534  14.525  0.7289  0.1621  0.0095
13895TIP3   OH263099   5.501   4.387   4.697 -0.2274 -0.1178 -0.4315
13895TIP3    H163100   5.412   4.420   4.705  0.0879  0.8085 -0.7178
13895TIP3    H263101   5.553   4.462   4.668  1.0689 -0.0686  1.9261
13896TIP3   OH263102   3.834   6.411  12.092  0.1616 -0.8565  0.2276
13896TIP3    H163103   3.771   6.479  12.071 -0.2288 -1.2811  0.0121
13896TIP3    H263104   3.903   6.455  12.142 -0.3052 -0.3987  0.4591
13897TIP3   OH263105   4.635   2.630   5.390 -0.0631 -0.4303  0.1984
13897TIP3    H163106   4.674   2.695   5.332 -1.4194 -0.3156 -0.6096
13897TIP3    H263107   4.629   2.674   5.475  0.9422 -0.2330  0.1753
13898TIP3   OH263108   1.309   5.728  10.825 -0.0770 -0.0239 -0.0229
13898TIP3    H163109   1.401   5.726  10.798  0.0087 -0.8929  0.3340
13898TIP3    H263110   1.268   5.658  10.775 -0.8857  1.4056 -1.3885
13899TIP3   OH263111   3.476   5.485   3.096 -0.0721 -0.6451  0.3742
13899TIP3    H163112   3.480   5.550   3.025  1.7136 -1.4068 -0.2303
13899TIP3    H263113   3.425   5.529   3.165  2.7705  2.2034  0.7858
13900TIP3   OH263114   5.303   2.713   5.530 -0.0037 -0.0309 -0.0076
13900TIP3    H163115   5.359   2.713   5.453  0.0982 -0.6312  0.0637
13900TIP3    H263116   5.335   2.640   5.583 -0.7272 -0.2645  0.1182
13901TIP3   OH263117   3.757   2.486  16.474  0.6620  0.0081 -0.7901
13901TIP3    H163118   3.779   2.418  16.410 -0.1574 -0.1395 -0.9214
13901TIP3    H263119   3.752   2.439  16.557 -0.9389 -0.3122 -1.0329
13902TIP3   OH263120   2.401   3.760  12.296 -0.5901 -0.5516  0.5606
13902TIP3    H163121   2.490   3.726  12.296 -0.6598 -0.7293 -0.4012
13902TIP3    H263122   2.352   3.700  12.240 -0.6501  1.2684 -1.4113
13903TIP3   OH263123   2.035   0.220  11.330  0.2590 -0.2879 -0.7482
13903TIP3    H163124   2.043   0.315  11.329  1.0125 -0.3478 -1.4779
13903TIP3    H263125   1.972   0.201  11.399  1.8214  0.6052  0.9537
13904TIP3   OH263126   5.367   0.483   3.070 -0.2937  0.0795  0.4417
13904TIP3    H163127   5.278   0.448   3.062 -0.3228 -0.0029  1.1130
13904TIP3    H263128   5.415   0.442   2.998 -1.0379  0.8708 -0.5322
13905TIP3   OH263129   6.486   5.107   5.359 -0.0905 -0.4734 -0.1901
13905TIP3    H163130   6.448   5.194   5.368  2.6567  0.7150  0.3174
13905TIP3    H263131   6.448   5.073   5.278 -0.8095  1.3716 -0.6507
13906TIP3   OH263132   6.567   6.367   4.379 -0.1213  0.1016 -0.5605
13906TIP3    H163133   6.575   6.274   4.398 -0.6728 -0.4790 -2.9497
13906TIP3    H263134   6.479   6.390   4.408  0.3117  0.0908  0.7910
13907TIP3   OH263135   4.403   3.755  13.899 -0.1831 -0.3945 -0.0935
13907TIP3    H163136   4.386   3.726  13.810  0.6864  0.0893 -0.4155
13907TIP3    H263137   4.409   3.850  13.893  0.7288 -0.4229  0.3458
13908TIP3   OH263138   3.731   6.619   3.547  0.6058 -0.0676 -0.3916
13908TIP3    H163139   3.792   6.557   3.509  0.0899 -0.3935 -0.7015
13908TIP3    H263140   3.750   6.617   3.640  0.3855 -0.9291 -0.3561
13909TIP3   OH263141   2.648   3.129   1.010 -0.4168  0.4500  0.2737
13909TIP3    H163142   2.724   3.138   1.068  0.1214  1.9804 -0.6328
13909TIP3    H263143   2.677   3.070   0.941  0.0319  1.2178 -0.1983
13910TIP3   OH263144   1.302   1.005   4.774 -0.3673  0.6760 -0.6096
13910TIP3    H163145   1.304   1.093   4.811  1.6116 -0.0114  0.9656
13910TIP3    H263146   1.389   0.992   4.737  0.1037 -1.4051  1.1073
13911TIP3   OH263147   4.708   1.305  11.229 -0.3178 -0.1164 -0.1053
13911TIP3    H163148   4.729   1.214  11.248 -2.4402 -0.0923  2.7045
13911TIP3    H263149   4.776   1.355  11.274 -0.8428 -0.2562  0.8507
13912TIP3   OH263150   0.572   3.244   3.170 -0.1945  0.2711 -0.3994
13912TIP3    H163151   0.599   3.155   3.193  0.7386  0.5972 -0.2242
13912TIP3    H263152   0.566   3.290   3.253 -2.6571 -0.1582 -0.3027
13913TIP3   OH263153   0.835   5.140  14.495  0.2755 -0.2378  0.0368
13913TIP3    H163154   0.902   5.109  14.555  1.3797  0.7195 -0.6786
13913TIP3    H263155   0.752   5.119  14.538  1.0530  0.7276  2.0683
13914TIP3   OH263156   3.920   1.516   5.421  0.0300  0.0690  0.1205
13914TIP3    H163157   3.827   1.499   5.405 -0.6877  1.4246  2.7059
13914TIP3    H263158   3.959   1.429   5.431 -1.0241 -0.4897 -0.5487
13915TIP3   OH263159   1.981   5.217   1.277  0.5572  0.1087  0.2256
13915TIP3    H163160   1.928   5.216   1.357  1.0769  0.9082  0.5830
13915TIP3    H263161   1.921   5.187   1.209 -1.0211  3.1375  0.2070
13916TIP3   OH263162   1.630   0.654  11.787  0.0503  0.4235  0.0160
13916TIP3    H163163   1.678   0.680  11.708  1.3450  0.3957  0.7865
13916TIP3    H263164   1.663   0.713  11.855 -1.9452  1.2732  0.2911
13917TIP3   OH263165   2.031   6.721   1.097 -0.1816 -0.1257  0.0095
13917TIP3    H163166   2.054   6.678   1.015  0.0402 -0.4785  0.2555
13917TIP3    H263167   2.115   6.738   1.139 -0.2342  1.0545 -0.3395
13918TIP3   OH263168   2.940   6.291  13.957  0.4696 -0.0021  0.1390
13918TIP3    H163169   2.932   6.204  13.995 -0.6663  0.7214  1.5739
13918TIP3    H263170   3.010   6.333  14.007  3.5301 -1.2748 -2.8677
13919TIP3   OH263171   6.041   4.563   3.565  0.0388 -0.4377 -0.5053
13919TIP3    H163172   5.962   4.573   3.618  0.5867 -1.4266  0.5128
13919TIP3    H263173   6.029   4.624   3.492 -0.8724  0.7014  0.5812
13920TIP3   OH263174   4.030   3.915  12.730  0.4412  0.1758 -0.1054
13920TIP3    H163175   4.104   3.970  12.705 -1.4771  1.5486 -3.1052
13920TIP3    H263176   4.040   3.836  12.678  1.4133 -0.9474  1.7562
13921TIP3   OH263177   3.150   4.568   6.016  0.0265 -0.0103  0.0841
13921TIP3    H163178   3.177   4.625   6.088 -2.2625 -0.3093  1.2509
13921TIP3    H263179   3.142   4.626   5.941  2.8001  0.2484 -0.0543
13922TIP3   OH263180   2.984   2.245  15.546  0.1009  0.2063 -0.0471
13922TIP3    H163181   3.030   2.210  15.470 -0.7111  1.6907 -1.2395
13922TIP3    H263182   2.988   2.174  15.611  0.4647 -1.2244 -1.6003
13923TIP3   OH263183   6.371   3.291   0.111 -0.0771  0.1971  0.3929
13923TIP3    H163184   6.413   3.268   0.028 -0.3904  1.6637 -0.1957
13923TIP3    H263185   6.296   3.344   0.085 -1.2576 -0.8945  1.5309
13924TIP3   OH263186   4.117   2.632  15.934 -0.2867  0.2781  0.0621
13924TIP3    H163187   4.049   2.699  15.947 -0.6613 -0.0507 -0.1620
13924TIP3    H263188   4.068   2.554  15.909  0.2400  0.2919 -1.0683
13925TIP3   OH263189   6.127   3.224  15.660 -0.0213 -0.1667 -0.4636
13925TIP3    H163190   6.146   3.165  15.733  0.3743  0.1366 -0.3196
13925TIP3    H263191   6.073   3.293  15.699 -4.2968 -2.7135 -1.5156
13926TIP3   OH263192   5.506   1.246  15.998 -0.1953  0.0900  0.2016
13926TIP3    H163193   5.556   1.165  16.011 -0.3975  0.0252  0.5913
13926TIP3    H263194   5.467   1.237  15.911 -0.4630 -0.3624  0.3695
13927TIP3   OH263195   5.645   3.180   1.410  0.6050  0.2091  0.3805
13927TIP3    H163196   5.578   3.207   1.347  0.1519 -0.3863  0.6029
13927TIP3    H263197   5.616   3.216   1.493  0.3939 -0.3025  0.5347
13928TIP3   OH263198   2.808   1.321  12.168 -0.3099  1.1156  0.0217
13928TIP3    H163199   2.789   1.408  12.131  1.5240  2.2717  1.7114
13928TIP3    H263200   2.830   1.338  12.259  1.2851 -1.0001  0.0603
13929TIP3   OH263201   4.611   0.047  14.408  0.6447  0.3091  0.2723
13929TIP3    H163202   4.645   0.089  14.487 -0.4480 -1.7692  1.8975
13929TIP3    H263203   4.656  -0.037  14.403 -0.4398 -0.2554 -0.4247
13930TIP3   OH263204   0.194   0.582  14.359  0.6364 -0.1857  0.3692
13930TIP3    H163205   0.260   0.648  14.338  0.7848 -0.5643 -0.3367
13930TIP3    H263206   0.232   0.499  14.331  0.5736 -0.6179  1.5302
13931TIP3   OH263207   1.193   0.244   2.123 -0.4742  0.3745 -0.3339
13931TIP3    H163208   1.135   0.300   2.175 -0.9891 -0.8843  0.4750
13931TIP3    H263209   1.265   0.222   2.182 -0.6915 -0.4727 -0.3700
13932TIP3   OH263210   1.158   4.281   3.853 -0.8362 -0.3983  0.0572
13932TIP3    H163211   1.154   4.377   3.853 -0.9754 -0.4049  0.0963
13932TIP3    H263212   1.179   4.259   3.762 -0.5990 -0.3222  0.0931
13933TIP3   OH263213   6.331   4.025   4.312 -0.2507  0.7529 -0.1138
13933TIP3    H163214   6.282   4.105   4.294  1.2356  1.8039  0.3414
13933TIP3    H263215   6.405   4.029   4.252  1.2314  1.0394  1.6689
13934TIP3   OH263216   6.505   3.242   1.696 -0.3429 -0.1272  0.2240
13934TIP3    H163217   6.421   3.268   1.659 -0.3970  1.6595  1.5711
13934TIP3    H263218   6.485   3.210   1.784  0.3884  0.2594  0.5333
13935TIP3   OH263219   1.244   6.293   3.716  0.3649 -0.3557  0.1565
13935TIP3    H163220   1.159   6.331   3.696  0.2870 -1.0748 -0.9354
13935TIP3    H263221   1.231   6.244   3.797  0.2798  1.2993  1.1563
13936TIP3   OH263222   6.020   1.003   1.468 -0.0185  0.1801 -0.1573
13936TIP3    H163223   6.106   0.961   1.465 -0.2715 -0.2557 -2.6718
13936TIP3    H263224   5.969   0.950   1.529  1.0192 -0.4910  0.1432
13937TIP3   OH263225   6.221   6.261  15.260 -0.7650 -0.0758  0.5288
13937TIP3    H163226   6.162   6.223  15.195  0.0787 -0.3748 -0.0565
13937TIP3    H263227   6.303   6.277  15.213 -0.5584  0.8845  1.1905
13938TIP3   OH263228   2.616   0.712  12.387 -0.6668 -0.0764  0.1104
13938TIP3    H163229   2.585   0.634  12.342 -0.3991 -1.2715  1.9509
13938TIP3    H263230   2.557   0.722  12.461  0.2294  0.5678  0.7540
13939TIP3   OH263231   3.244   3.744   0.077  0.3144  0.1924 -0.2739
13939TIP3    H163232   3.259   3.653   0.049 -0.4837  0.3331 -1.1766
13939TIP3    H263233   3.332   3.778   0.094  0.8275  0.0560 -2.5179
13940TIP3   OH263234   1.778   1.700   2.528  0.3784 -0.1264  0.0037
13940TIP3    H163235   1.757   1.662   2.444  0.8065  0.1596 -0.2388
13940TIP3    H263236   1.820   1.784   2.507  2.9833 -1.2585  0.3994
13941TIP3   OH263237   1.904   3.202  12.152 -0.0096  0.3053 -0.2774
13941TIP3    H163238   1.826   3.147  12.151  1.8333 -2.4025 -0.1346
13941TIP3    H263239   1.919   3.225  12.060  1.2247 -2.4174 -0.7798
13942TIP3   OH263240   1.412   0.743   4.028  0.2591  0.4877 -0.2119
13942TIP3    H163241   1.335   0.793   4.000 -0.0957 -0.8810 -1.8181
13942TIP3    H263242   1.486   0.790   3.989 -0.1181 -0.5250 -2.2399
13943TIP3   OH263243   3.510   4.400   3.443  0.0633 -0.0425  0.5025
13943TIP3    H163244   3.568   4.443   3.506  1.4856 -1.0749 -0.0975
13943TIP3    H263245   3.521   4.450   3.362  2.0990 -1.8125 -0.3367
13944TIP3   OH263246   2.189   6.444   5.635  0.8118  0.1502 -0.0394
13944TIP3    H163247   2.266   6.453   5.579  0.0567  0.3143 -1.0667
13944TIP3    H263248   2.195   6.355   5.671  0.6363 -0.4067 -1.3863
13945TIP3   OH263249   3.307   6.626   0.822  0.1066  0.5352 -0.1917
13945TIP3    H163250   3.269   6.596   0.904 -0.2853 -0.1780 -0.6239
13945TIP3    H263251   3.254   6.701   0.796 -0.4691  0.0816 -0.3463
13946TIP3   OH263252   0.221   6.176  13.816  0.1486  0.0062  0.5970
13946TIP3    H163253   0.308   6.216  13.804  0.1641 -0.6248 -1.8028
13946TIP3    H263254   0.234   6.084  13.793 -1.5491  0.3204 -1.8707
13947TIP3   OH263255   6.704   0.632   1.564  0.1310  0.3571  0.0551
13947TIP3    H163256   6.648   0.702   1.529 -0.2478  0.0864  0.1264
13947TIP3    H263257   6.645   0.574   1.611  0.5021  0.1877  0.3205
13948TIP3   OH263258   4.383   6.470  13.021  0.1622  0.0810 -0.0657
13948TIP3    H163259   4.451   6.433  13.078 -0.0450 -0.0998  0.0662
13948TIP3    H263260   4.311   6.491  13.081 -0.0490 -0.0951 -0.2565
13949TIP3   OH263261   5.480   1.566  12.051 -0.2096 -0.4778  0.0078
13949TIP3    H163262   5.397   1.521  12.033 -0.0443 -0.6196 -0.3961
13949TIP3    H263263   5.521   1.515  12.120 -0.6198 -0.2090  0.4598
13950TIP3   OH263264   1.310   6.353  14.800 -0.1410  0.1633  0.2918
13950TIP3    H163265   1.341   6.430  14.754  1.0986  0.0207  0.8658
13950TIP3    H263266   1.388   6.297  14.808 -0.5234 -0.1671  1.8220
13951TIP3   OH263267   5.163   3.587   0.517 -0.4432 -0.1373 -0.1069
13951TIP3    H163268   5.155   3.682   0.522 -0.4891 -0.2076  1.5916
13951TIP3    H263269   5.258   3.572   0.514 -0.4373 -0.0417 -0.4533
13952TIP3   OH263270   6.363   2.773  11.682 -0.2312  0.2030 -0.0023
13952TIP3    H163271   6.365   2.821  11.599 -0.9915 -1.6000 -1.0881
13952TIP3    H263272   6.358   2.841  11.749 -2.0454  1.6370 -1.5370
13953TIP3   OH263273   5.626   6.440   1.196 -0.2363  0.0431 -0.4117
13953TIP3    H163274   5.594   6.365   1.147 -0.5578 -0.1595  0.0964
13953TIP3    H263275   5.622   6.412   1.288 -0.2187  0.6230 -0.2318
13954TIP3   OH263276   2.072   0.104  16.278  0.2292 -0.4921 -0.6311
13954TIP3    H163277   2.001   0.152  16.237  2.1058  2.7584 -0.2904
13954TIP3    H263278   2.104   0.163  16.347  2.8147 -2.1322 -0.3442
13955TIP3   OH263279   4.210   3.677  17.006 -0.4818 -0.6377 -0.5386
13955TIP3    H163280   4.141   3.640  17.062  0.3941 -0.0097  0.9712
13955TIP3    H263281   4.183   3.767  16.991  0.4775 -0.0864  0.8844
13956TIP3   OH263282   3.296   6.486   2.062  0.0827  0.0210  0.3476
13956TIP3    H163283   3.371   6.546   2.063  0.5682 -0.5848  0.3884
13956TIP3    H263284   3.330   6.403   2.095 -0.8728  0.0437  1.4281
13957TIP3   OH263285   2.009   6.774  12.546  0.1703 -0.0070  0.4566
13957TIP3    H163286   2.070   6.711  12.585  0.4774 -0.7131 -1.1447
13957TIP3    H263287   2.064   6.832  12.494 -0.3541  0.3499  0.2996
13958TIP3   OH263288   0.646   1.388  11.679 -0.0212  0.4377 -0.4810
13958TIP3    H163289   0.582   1.452  11.647 -0.2552  0.0702 -0.7655
13958TIP3    H263290   0.623   1.376  11.771  0.8152  1.6905 -0.1018
13959TIP3   OH263291   3.874   4.569  14.523 -0.5167  0.5259 -0.0215
13959TIP3    H163292   3.911   4.493  14.477  0.9572  0.2112  1.6206
13959TIP3    H263293   3.918   4.644  14.484 -0.8477  0.4221 -0.5963
13960TIP3   OH263294   1.450   4.835  11.594  0.4429 -0.0513 -0.3058
13960TIP3    H163295   1.541   4.837  11.624 -0.0765  2.2466  1.2528
13960TIP3    H263296   1.456   4.809  11.502  2.5335 -1.5553  0.1998
13961TIP3   OH263297   3.592   3.619  11.420  0.3593 -0.2422  0.2003
13961TIP3    H163298   3.662   3.581  11.366  1.6795  2.4548 -0.0836
13961TIP3    H263299   3.524   3.642  11.357  0.4567 -0.2384  0.0951
13962TIP3   OH263300   4.046   2.753   2.944 -0.3141 -0.0614 -0.0121
13962TIP3    H163301   4.014   2.666   2.923  1.4393 -0.6212 -0.4250
13962TIP3    H263302   4.141   2.745   2.944 -0.1319  1.7335  0.4588
13963TIP3   OH263303   1.092   2.022  15.071  0.3362 -0.0932  0.6607
13963TIP3    H163304   1.101   2.101  15.124 -1.5018  0.6027 -0.0670
13963TIP3    H263305   1.031   1.967  15.120 -0.3852  0.0238 -0.0940
13964TIP3   OH263306   5.130   3.524   4.596  0.1569  0.1937 -0.4812
13964TIP3    H163307   5.173   3.605   4.623 -0.1693  0.7237 -1.5457
13964TIP3    H263308   5.066   3.551   4.530 -0.9515 -0.7467  0.1903
13965TIP3   OH263309   4.038   6.393   5.272 -0.2113  0.2455 -0.1275
13965TIP3    H163310   4.127   6.378   5.303  0.2536  1.0187 -1.0371
13965TIP3    H263311   4.035   6.487   5.253 -1.7051  0.5178  1.3636
13966TIP3   OH263312   4.750   6.108  11.134  0.2377  0.3480 -0.4090
13966TIP3    H163313   4.720   6.023  11.100  1.7226  0.0931 -1.0997
13966TIP3    H263314   4.748   6.166  11.058  0.8250  0.5038 -0.3073
13967TIP3   OH263315   6.773   2.587   2.489 -0.3168  0.4515  0.0059
13967TIP3    H163316   6.857   2.548   2.465 -0.5701  0.6905 -1.3581
13967TIP3    H263317   6.709   2.539   2.435 -1.0025  0.5676  0.7054
13968TIP3   OH263318   5.440   1.363  16.224  0.0390  0.3362  0.0783
13968TIP3    H163319   5.480   1.300  16.164 -1.6170 -1.4256  0.7490
13968TIP3    H263320   5.454   1.448  16.183  0.2891 -0.6883 -2.0254
13969TIP3   OH263321   4.714   6.603   0.021  0.4322  0.3870 -0.0965
13969TIP3    H163322   4.802   6.609   0.057 -0.1459 -2.8250  2.0012
13969TIP3    H263323   4.659   6.650   0.085  0.3086  0.4543 -0.2518
13970TIP3   OH263324   1.273   6.689   4.370 -0.0620  0.1434 -0.3465
13970TIP3    H163325   1.181   6.695   4.348  0.8096 -1.8139 -5.0693
13970TIP3    H263326   1.283   6.601   4.409  0.0105 -0.1174 -0.9525
13971TIP3   OH263327   6.613   4.098   4.964 -0.1988 -0.1978  0.3083
13971TIP3    H163328   6.697   4.139   4.982  0.4151 -2.0146  1.7780
13971TIP3    H263329   6.608   4.094   4.869  0.6623  1.3401  0.1840
13972TIP3   OH263330   1.303   4.127  10.833  0.0975  0.1445 -0.7358
13972TIP3    H163331   1.252   4.148  10.754 -1.4326  0.1409  0.2250
13972TIP3    H263332   1.345   4.209  10.857 -0.8076  0.5730 -0.5877
13973TIP3   OH263333   0.006   6.382   2.797 -0.1302  0.2949 -0.8738
13973TIP3    H163334   0.053   6.462   2.774  0.3805 -0.1542 -1.3856
13973TIP3    H263335  -0.085   6.399   2.772 -0.0159  0.7028 -1.0088
13974TIP3   OH263336   3.534   1.221   5.047 -0.0827  0.2925 -0.3439
13974TIP3    H163337   3.492   1.239   5.131  0.7951 -0.6245  0.2919
13974TIP3    H263338   3.612   1.171   5.068  0.3934  0.4345 -1.6729
13975TIP3   OH263339   1.040   1.418  11.086 -0.1303  0.3994  0.6108
13975TIP3    H163340   1.113   1.376  11.041 -0.0043  0.7877  0.4452
13975TIP3    H263341   0.967   1.409  11.026 -0.0729  0.5222  0.5219
13976TIP3   OH263342   0.032   5.799   2.917 -0.2441 -0.0857  0.3989
13976TIP3    H163343   0.079   5.758   2.844  1.5555  1.1873  0.8043
13976TIP3    H263344   0.010   5.726   2.975 -3.2925 -1.3624 -2.2182
13977TIP3   OH263345   0.687   2.577  11.862  0.7352  0.0106  0.4899
13977TIP3    H163346   0.597   2.597  11.838  0.1972 -0.3259  2.1422
13977TIP3    H263347   0.683   2.489  11.900  1.6873  0.1570  0.9604
13978TIP3   OH263348   4.413   6.320   1.936 -0.0130 -0.3660 -0.4379
13978TIP3    H163349   4.382   6.267   1.863 -0.8513 -0.0022 -0.3519
13978TIP3    H263350   4.333   6.348   1.982  0.4240  0.7675 -0.3472
13979TIP3   OH263351   0.212   1.065   2.205  0.5132  0.5493  0.5350
13979TIP3    H163352   0.273   0.999   2.172 -1.1106 -0.1788 -1.1241
13979TIP3    H263353   0.257   1.148   2.193  1.1765  0.0288 -0.7199
13980TIP3   OH263354   4.021   0.438  15.757  0.2671  0.1412 -0.3085
13980TIP3    H163355   4.099   0.387  15.737 -0.2097 -0.8291  0.2785
13980TIP3    H263356   4.037   0.473  15.845 -0.8702 -1.8862  0.7585
13981TIP3   OH263357   2.748   3.153   2.533 -0.3377 -0.1563  0.5630
13981TIP3    H163358   2.817   3.218   2.537  0.5526 -0.9106 -1.7883
13981TIP3    H263359   2.669   3.199   2.562  0.6025  1.4824  0.5437
13982TIP3   OH263360   6.547   0.707   3.710 -0.1332  0.8103  0.0949
13982TIP3    H163361   6.606   0.689   3.637 -0.1581  0.4467  0.1626
13982TIP3    H263362   6.489   0.777   3.679  0.0866  0.9011 -0.1060
13983TIP3   OH263363   5.894   3.128  15.912  0.5445 -0.5632  0.1976
13983TIP3    H163364   5.877   3.039  15.882 -0.5131  0.1260 -1.3148
13983TIP3    H263365   5.990   3.136  15.912  0.7496 -2.3562  2.4202
13984TIP3   OH263366   2.811   1.784   1.218  0.1040 -0.1031  0.4530
13984TIP3    H163367   2.746   1.724   1.254 -0.0244 -0.1980  0.0662
13984TIP3    H263368   2.775   1.810   1.133 -0.5693  1.7409  1.3019
13985TIP3   OH263369   6.014   5.254   5.101 -0.2635 -0.3009 -0.1615
13985TIP3    H163370   5.939   5.200   5.127  0.4340 -1.1972  0.0361
13985TIP3    H263371   5.994   5.280   5.011 -0.3170 -1.4433 -0.4932
13986TIP3   OH263372   0.060   3.710   0.402 -0.1979  0.0730 -0.0837
13986TIP3    H163373   0.090   3.620   0.414  0.8201  0.8099  3.3713
13986TIP3    H263374  -0.036   3.702   0.397  0.0520 -1.5994 -4.6377
13987TIP3   OH263375   6.569   2.904   3.215  0.2166  0.1199  0.3361
13987TIP3    H163376   6.589   2.869   3.302  0.3363  0.0912  0.2979
13987TIP3    H263377   6.644   2.960   3.195  0.6887 -0.6938 -0.1930
13988TIP3   OH263378   4.720   0.683   4.776 -0.4275  0.1150 -0.3212
13988TIP3    H163379   4.756   0.763   4.739  0.6297 -0.1170  0.1609
13988TIP3    H263380   4.781   0.614   4.748 -1.2547 -0.4925 -0.6273
13989TIP3   OH263381   3.350   6.424  12.985  0.3558 -0.3088 -0.3266
13989TIP3    H163382   3.370   6.394  13.074  2.1281 -0.5245 -0.7697
13989TIP3    H263383   3.276   6.370  12.958  1.9237 -2.6220 -0.2087
13990TIP3   OH263384   2.939   4.437  16.711 -0.3229 -0.0029  0.0836
13990TIP3    H163385   2.853   4.445  16.753 -0.4544 -0.2485 -0.1334
13990TIP3    H263386   2.959   4.525  16.679  0.1795  0.3747  1.4319
13991TIP3   OH263387   3.636   3.451   2.074  0.5968  0.5967  0.6735
13991TIP3    H163388   3.704   3.395   2.035  0.6103  1.1444 -0.1183
13991TIP3    H263389   3.659   3.539   2.043  0.3460  0.9767  1.5778
13992TIP3   OH263390   5.783   0.392  13.270  0.5395  0.3687  0.1878
13992TIP3    H163391   5.702   0.409  13.221 -1.2215  0.9086  3.1228
13992TIP3    H263392   5.834   0.472  13.259 -0.1229  0.7441 -0.2288
13993TIP3   OH263393   1.149   2.760   1.459  0.0205  0.1833 -0.2732
13993TIP3    H163394   1.058   2.752   1.485  0.3116  0.0526  0.7248
13993TIP3    H263395   1.174   2.849   1.483 -0.4089  0.9175 -2.4048
13994TIP3   OH263396   6.733   5.075   3.113  0.0510  0.5049  0.0283
13994TIP3    H163397   6.778   5.157   3.131 -0.3251  0.8261 -0.4711
13994TIP3    H263398   6.802   5.015   3.086  0.6393 -0.0301  2.6304
13995TIP3   OH263399   2.770   3.082  16.152  0.7635  0.4074 -0.1362
13995TIP3    H163400   2.760   2.987  16.155  0.1249  0.5019  1.0849
13995TIP3    H263401   2.844   3.100  16.211 -0.3604  0.8191  1.1738
13996TIP3   OH263402   3.690   1.484  11.513  0.6361 -0.7158  0.3317
13996TIP3    H163403   3.705   1.471  11.420  0.3047  0.3272  0.1277
13996TIP3    H263404   3.755   1.428  11.556  1.2659 -0.6537 -0.5275
13997TIP3   OH263405   1.463   1.689   2.633  0.3351  0.3709 -0.2185
13997TIP3    H163406   1.511   1.661   2.711  0.1143  2.1195  0.5621
13997TIP3    H263407   1.521   1.666   2.560  1.3079  0.2968  0.5658
13998TIP3   OH263408   3.439   4.769  15.944 -0.3726 -0.0866 -0.0974
13998TIP3    H163409   3.516   4.823  15.929 -0.6761  0.6820  1.0122
13998TIP3    H263410   3.469   4.679  15.928  0.4118  0.3156 -0.9143
13999TIP3   OH263411   2.519   1.354  14.658 -0.3611 -0.4973 -0.4069
13999TIP3    H163412   2.470   1.316  14.730  0.8109 -1.9984 -0.3678
13999TIP3    H263413   2.570   1.281  14.623  0.2869  0.5680 -1.7415
14000TIP3   OH263414   2.143   6.586   4.120 -0.2352 -0.2524 -0.0944
14000TIP3    H163415   2.102   6.603   4.205  0.3396 -0.1289  0.1689
14000TIP3    H263416   2.226   6.635   4.124 -0.1156 -0.4061 -0.6488
14001TIP3   OH263417   4.314   0.482   0.396  0.1879 -0.5129  0.2582
14001TIP3    H163418   4.405   0.502   0.373  0.1166 -1.9574 -1.3998
14001TIP3    H263419   4.299   0.395   0.359 -2.1111  0.0457 -0.1638
14002TIP3   OH263420   3.853   2.850   1.144 -0.5450  0.0839 -0.1061
14002TIP3    H163421   3.823   2.829   1.056 -1.3889  0.5378  0.0695
14002TIP3    H263422   3.884   2.767   1.179  0.7152  0.0893 -1.1802
14003TIP3   OH263423   1.268   5.745  16.655 -0.5213  0.0090  0.2735
14003TIP3    H163424   1.351   5.699  16.640 -1.5119 -1.5633 -0.5871
14003TIP3    H263425   1.240   5.772  16.568 -0.3637  1.5371  0.6918
14004TIP3   OH263426   3.272   3.029   2.947 -0.4755  0.3418  0.5363
14004TIP3    H163427   3.283   2.954   2.889 -0.2317 -0.3373  1.4384
14004TIP3    H263428   3.220   2.994   3.020  0.0824  0.9198  1.2067
14005TIP3   OH263429   0.143   5.764   5.612 -0.2467  0.3845 -0.2042
14005TIP3    H163430   0.092   5.792   5.536  0.1398  1.7431  0.0310
14005TIP3    H263431   0.117   5.824   5.682  2.0500  1.4234 -0.2156
14006TIP3   OH263432   0.176   6.458  15.599  0.1353  0.2350 -0.3201
14006TIP3    H163433   0.133   6.533  15.638  0.3261  0.4897 -0.6011
14006TIP3    H263434   0.253   6.494  15.554  1.0254 -0.2846  0.7474
14007TIP3   OH263435   0.637   6.433  16.310 -0.1278  0.5013 -0.3880
14007TIP3    H163436   0.711   6.374  16.292  0.0867  0.8623 -0.7219
14007TIP3    H263437   0.644   6.500  16.241  0.7055  1.9275  1.0417
14008TIP3   OH263438   6.382   2.001   5.719  0.5663  0.3536  0.0358
14008TIP3    H163439   6.413   2.085   5.686 -0.3539  0.6604 -0.0604
14008TIP3    H263440   6.369   1.947   5.641 -0.7889  0.7987 -0.0667
14009TIP3   OH263441   2.662   6.765  12.525 -0.7438 -0.4021  0.0356
14009TIP3    H163442   2.600   6.701  12.487 -1.8701 -0.5296  2.0398
14009TIP3    H263443   2.641   6.765  12.618  0.0158  2.0988  0.2116
14010TIP3   OH263444   1.703   3.412  12.265  0.0343  0.8542 -0.6135
14010TIP3    H163445   1.762   3.352  12.219 -0.4496 -0.7258  0.8062
14010TIP3    H263446   1.698   3.488  12.207  1.3954 -0.0657 -1.9987
14011TIP3   OH263447   0.011   0.219  16.552  0.0269 -0.3120 -0.1269
14011TIP3    H163448  -0.002   0.208  16.647  0.3480 -2.7493 -0.3571
14011TIP3    H263449  -0.005   0.133  16.515 -0.5498  0.7271 -2.3801
14012TIP3   OH263450   4.209   5.126  12.624  0.5119 -0.5848 -0.4378
14012TIP3    H163451   4.269   5.058  12.592  0.7643 -0.3787 -0.4090
14012TIP3    H263452   4.128   5.112  12.574  1.2222  0.3462 -1.9092
14013TIP3   OH263453   6.089   1.389  14.103  0.4117 -0.5330  0.2657
14013TIP3    H163454   6.093   1.427  14.191 -0.0115  0.2104 -0.0383
14013TIP3    H263455   6.052   1.301  14.117 -2.1360  0.5497  0.5287
14014TIP3   OH263456   0.639   3.617  15.308  0.3287 -0.2658 -0.1431
14014TIP3    H163457   0.660   3.700  15.265  0.5346  0.2850  0.9864
14014TIP3    H263458   0.690   3.618  15.389  0.7433 -1.7516 -0.3800
14015TIP3   OH263459   6.518   1.964   1.114 -0.5419 -0.1417 -0.1905
14015TIP3    H163460   6.547   1.874   1.098 -0.5302  0.1230 -1.7109
14015TIP3    H263461   6.503   1.968   1.208 -1.3178 -1.9769 -0.2130
14016TIP3   OH263462   1.363   6.549   5.181 -1.1140  0.0224 -0.2408
14016TIP3    H163463   1.340   6.546   5.274  0.6905  2.2882  0.3098
14016TIP3    H263464   1.453   6.580   5.179 -1.2610  0.4035 -2.7787
14017TIP3   OH263465   6.401   3.429  13.939 -0.1274  0.4910  0.2216
14017TIP3    H163466   6.415   3.365  13.869 -0.0888  0.4464  0.2693
14017TIP3    H263467   6.425   3.381  14.019  1.9253  1.2316  0.0575
14018TIP3   OH263468   0.182   4.804  10.954 -0.1432 -0.0899  0.5361
14018TIP3    H163469   0.230   4.857  10.890 -0.7570  1.5797  1.4421
14018TIP3    H263470   0.098   4.787  10.912  0.2732 -0.8569  0.0017
14019TIP3   OH263471   4.772   6.267   1.463  0.3483 -0.3304 -0.2534
14019TIP3    H163472   4.812   6.193   1.417  0.8164  0.1270 -0.5863
14019TIP3    H263473   4.789   6.250   1.555 -1.2717 -1.6549 -0.1709
14020TIP3   OH263474   2.609   0.358   5.807  0.2836 -0.0924  0.1033
14020TIP3    H163475   2.656   0.296   5.862  0.2862  0.2008  0.4356
14020TIP3    H263476   2.521   0.322   5.799  0.9278 -1.3094 -1.5942
14021TIP3   OH263477   0.087   1.687  12.761  0.4954  0.1532  0.5316
14021TIP3    H163478   0.041   1.707  12.842 -0.5342 -0.3586  0.0861
14021TIP3    H263479   0.103   1.593  12.764  0.7566  0.1876  0.2951
14022TIP3   OH263480   0.346   1.978  14.490 -0.3120  0.2159 -0.4650
14022TIP3    H163481   0.323   2.002  14.400 -1.4188  0.4555 -0.1249
14022TIP3    H263482   0.269   2.001  14.542 -1.0538 -3.0973  0.0419
14023TIP3   OH263483   3.118   3.142  15.388  0.6760  0.1417  0.0974
14023TIP3    H163484   3.161   3.071  15.339  4.0968  2.3973 -0.3285
14023TIP3    H263485   3.110   3.107  15.477  3.9739 -0.1903  0.3252
14024TIP3   OH263486   5.818   6.385  13.105 -0.2251 -0.4988  0.1987
14024TIP3    H163487   5.737   6.335  13.096 -0.3825 -0.3640  0.7912
14024TIP3    H263488   5.886   6.327  13.074 -0.4826 -0.8482  0.2831
14025TIP3   OH263489   2.823   4.404   2.378  0.3119  0.0687 -0.4968
14025TIP3    H163490   2.739   4.368   2.406 -0.3127  1.0342 -1.0611
14025TIP3    H263491   2.888   4.364   2.435 -0.8110  1.2960  1.6988
14026TIP3   OH263492   4.471   5.226  14.274  0.0704  0.1095 -0.3348
14026TIP3    H163493   4.507   5.310  14.302  1.1036 -0.4681  0.0776
14026TIP3    H263494   4.515   5.207  14.191  0.4519 -0.4309 -0.0066
14027TIP3   OH263495   1.736   5.382   3.001  0.4136 -0.4499  0.0832
14027TIP3    H163496   1.800   5.376   3.071  1.2854  0.0263 -0.6684
14027TIP3    H263497   1.757   5.464   2.956 -0.5099 -0.4543 -0.3697
14028TIP3   OH263498   5.092   4.088  13.035  0.1643 -0.0942  0.3914
14028TIP3    H163499   5.187   4.090  13.025  0.2943  0.1024  1.6121
14028TIP3    H263500   5.063   4.173  13.001  0.2829 -0.7328 -1.3288
14029TIP3   OH263501   3.630   4.145  12.994  0.0109 -0.1381 -0.1573
14029TIP3    H163502   3.559   4.109  12.940  0.5428 -0.6987 -0.4925
14029TIP3    H263503   3.708   4.097  12.965  0.9238  1.9843 -1.3097
14030TIP3   OH263504   0.802   5.562   0.689 -0.2803  0.1634  0.5445
14030TIP3    H163505   0.770   5.497   0.625 -1.5173 -0.0134  1.3312
14030TIP3    H263506   0.896   5.543   0.696 -0.9820 -3.0600  2.4245
14031TIP3   OH263507   0.426   3.962  11.071 -0.0278 -0.0284 -0.2934
14031TIP3    H163508   0.360   3.902  11.036  0.7514 -0.7840 -0.5052
14031TIP3    H263509   0.464   4.003  10.994  0.7135 -0.6420 -0.2638
14032TIP3   OH263510   0.201   3.945   4.293 -0.1924 -0.1931  0.2903
14032TIP3    H163511   0.253   4.014   4.334  0.1121  0.3544 -0.9872
14032TIP3    H263512   0.215   3.868   4.348  2.4958 -0.2343 -0.3866
14033TIP3   OH263513   2.035   2.267   2.595  0.4409  0.4259 -0.0502
14033TIP3    H163514   1.954   2.298   2.635  0.9289  1.2529  0.3321
14033TIP3    H263515   2.007   2.217   2.519 -0.4667 -0.2248  0.7050
14034TIP3   OH263516   5.945   3.564   0.554  0.0927  0.1183  0.0693
14034TIP3    H163517   6.039   3.549   0.543  0.0630 -0.0700  0.0736
14034TIP3    H263518   5.923   3.521   0.636 -0.0095  0.1102  0.0375
14035TIP3   OH263519   4.793   5.211  12.497  0.3621 -0.0790 -0.2719
14035TIP3    H163520   4.848   5.268  12.443 -1.2571  0.1981 -1.7054
14035TIP3    H263521   4.716   5.194  12.442  0.0582 -2.3077  0.7719
14036TIP3   OH263522   3.537   4.050   2.491 -0.0629 -0.3716  0.2510
14036TIP3    H163523   3.464   4.055   2.552  0.2690 -0.7682  0.6875
14036TIP3    H263524   3.614   4.069   2.545 -0.0865  2.9436 -0.7756
14037TIP3   OH263525   4.328   3.886   0.920 -0.0118  0.5581  0.2021
14037TIP3    H163526   4.233   3.881   0.910  0.3087  0.3530 -3.6429
14037TIP3    H263527   4.355   3.798   0.945 -0.6418 -0.0940 -1.3461
14038TIP3   OH263528   1.746   1.294  12.501 -0.1211  0.0527  0.5449
14038TIP3    H163529   1.801   1.284  12.579  1.8087  0.3483 -0.7438
14038TIP3    H263530   1.658   1.269  12.530  0.6580 -0.2793  2.6910
14039TIP3   OH263531   2.153   2.589   2.723 -0.3921  0.0733  0.2881
14039TIP3    H163532   2.195   2.514   2.767  0.1704  0.5016  0.4837
14039TIP3    H263533   2.074   2.604   2.774 -0.3133 -0.1491  0.4807
14040TIP3   OH263534   6.559   5.607   4.025 -0.4418 -0.4229 -0.3596
14040TIP3    H163535   6.516   5.525   4.051 -0.1638  0.0626  1.7124
14040TIP3    H263536   6.498   5.647   3.962 -1.5506 -1.2259  0.1763
14041TIP3   OH263537   6.157   3.420  13.456  0.1447  0.1022 -0.2252
14041TIP3    H163538   6.089   3.485  13.473  1.2243 -0.0035  5.1736
14041TIP3    H263539   6.239   3.471  13.459  0.7192 -0.8139 -0.2048
14042TIP3   OH263540   3.183   0.612  16.103  0.4078  0.3675  0.0171
14042TIP3    H163541   3.222   0.564  16.030 -0.9632 -0.0194 -0.4835
14042TIP3    H263542   3.250   0.612  16.171  0.8182 -1.3482 -0.3665
14043TIP3   OH263543   0.963   1.398  13.073 -0.7006 -0.1421  0.4339
14043TIP3    H163544   1.053   1.430  13.080 -0.8134 -0.2000  2.6650
14043TIP3    H263545   0.935   1.384  13.164 -2.4131 -1.6710 -0.2807
14044TIP3   OH263546   3.714   4.257   2.972 -0.1615 -0.2524 -0.3973
14044TIP3    H163547   3.661   4.336   2.988  1.3604  0.7350 -0.0915
14044TIP3    H263548   3.785   4.288   2.915  0.4501 -1.4101 -0.2652
14045TIP3   OH263549   3.471   4.267  15.327 -0.4665 -0.2797  0.6716
14045TIP3    H163550   3.483   4.232  15.239  1.6320 -0.5694  1.0553
14045TIP3    H263551   3.413   4.204  15.369 -0.8243 -0.5721 -0.2405
14046TIP3   OH263552   6.056   2.301  11.796 -0.5656  0.3780  0.1282
14046TIP3    H163553   6.007   2.219  11.796  0.1142 -0.0565 -1.3317
14046TIP3    H263554   5.993   2.367  11.824 -1.2978 -0.5412  0.6865
14047TIP3   OH263555   2.605   6.459   4.703  0.1187 -0.2995  0.3502
14047TIP3    H163556   2.610   6.366   4.683 -0.2643  0.0701 -1.6048
14047TIP3    H263557   2.682   6.496   4.659  0.9298  0.1493  2.1187
14048TIP3   OH263558   3.922   5.669   2.979 -0.6912  0.5965  0.6346
14048TIP3    H163559   3.986   5.725   2.934 -1.6248  1.1578 -0.0173
14048TIP3    H263560   3.971   5.630   3.051  0.4391  0.8639  0.0265
14049TIP3   OH263561   6.386   4.733   0.980 -0.6518 -0.0923 -0.2217
14049TIP3    H163562   6.428   4.780   0.909  0.4937 -1.9349 -0.8085
14049TIP3    H263563   6.448   4.738   1.053 -0.5419 -0.6240 -0.2738
14050TIP3   OH263564   1.935   5.816  14.373  0.1070  0.1937 -0.1575
14050TIP3    H163565   2.019   5.822  14.419  0.5631 -2.4286 -0.5695
14050TIP3    H263566   1.951   5.859  14.289  1.1325 -0.5294 -0.3466
14051TIP3   OH263567   6.707   0.885  16.855 -0.0784 -0.2729  0.2723
14051TIP3    H163568   6.774   0.898  16.788 -1.2462 -0.0359 -0.8618
14051TIP3    H263569   6.695   0.790  16.859 -1.4869 -0.1829 -1.3495
14052TIP3   OH263570   0.266   6.213  12.820 -0.1631  0.0833  0.3924
14052TIP3    H163571   0.315   6.211  12.903 -0.7256  1.0330  0.7571
14052TIP3    H263572   0.271   6.304  12.792 -1.0485  0.0258  0.0288
14053TIP3   OH263573   5.710   4.551   2.602 -0.0629 -0.1359 -0.3299
14053TIP3    H163574   5.694   4.588   2.515  0.3347 -0.0460 -0.3642
14053TIP3    H263575   5.627   4.508   2.625 -0.1409 -0.2360 -0.7913
14054TIP3   OH263576   1.807   4.313   4.742 -0.1826  0.8325 -0.1452
14054TIP3    H163577   1.840   4.245   4.801  1.1474 -0.7730 -2.6326
14054TIP3    H263578   1.752   4.368   4.797  1.5116 -0.2251  2.7009
14055TIP3   OH263579   4.642   4.050   2.296 -0.4880  0.6696  0.2053
14055TIP3    H163580   4.712   4.101   2.337  0.0745 -0.4109  0.6150
14055TIP3    H263581   4.598   4.007   2.370 -0.1620 -0.4155 -0.2199
14056TIP3   OH263582   2.582   2.492  15.083  0.4655  0.7282  0.5489
14056TIP3    H163583   2.532   2.563  15.121 -1.3043  0.0911 -0.5426
14056TIP3    H263584   2.538   2.472  15.000  1.8304 -0.6082  0.1053
14057TIP3   OH263585   2.153   6.141  13.600 -0.1345 -0.1365  0.6018
14057TIP3    H163586   2.196   6.060  13.625  0.3739 -0.1224 -0.2298
14057TIP3    H263587   2.182   6.158  13.510  0.3488  1.3456  1.0145
14058TIP3   OH263588   5.792   6.585  16.826 -0.1141 -0.2741  0.2401
14058TIP3    H163589   5.794   6.506  16.772 -0.9441 -0.0937 -0.0754
14058TIP3    H263590   5.837   6.561  16.907 -1.1072 -1.3403  0.4930
14059TIP3   OH263591   3.212   0.364  15.377  0.1959  0.4340  0.4333
14059TIP3    H163592   3.269   0.355  15.300 -0.5798  1.0079 -0.2094
14059TIP3    H263593   3.241   0.294  15.436  1.3482  0.5170 -0.0253
14060TIP3   OH263594   3.791   0.213  12.773 -0.1865 -0.2891  0.1073
14060TIP3    H163595   3.796   0.172  12.860  0.5410 -1.9604 -0.7099
14060TIP3    H263596   3.816   0.304  12.789  0.5673 -0.7202  1.5671
14061TIP3   OH263597   1.102   2.820  11.676 -0.4835  0.4561  0.1959
14061TIP3    H163598   1.009   2.830  11.697 -0.6706  0.0588 -0.4275
14061TIP3    H263599   1.135   2.757  11.741 -1.1470 -1.0601 -0.9099
14062TIP3   OH263600   6.408   6.580   1.985 -0.2165 -0.1802 -0.3530
14062TIP3    H163601   6.354   6.582   1.906  0.3300 -0.3912 -0.7375
14062TIP3    H263602   6.474   6.647   1.970  1.3354 -1.8185 -1.1360
14063TIP3   OH263603   2.507   5.361  15.341  0.3083  0.4925 -0.4800
14063TIP3    H163604   2.464   5.339  15.259  0.0339  2.3385 -0.8538
14063TIP3    H263605   2.520   5.277  15.385  1.0639 -0.5976 -2.6983
14064TIP3   OH263606   4.661   1.730  16.230 -0.1068  1.3090 -0.0146
14064TIP3    H163607   4.627   1.683  16.154  0.6572  0.5143  0.1316
14064TIP3    H263608   4.694   1.812  16.194 -0.4580  1.2702 -0.4312
14065TIP3   OH263609   5.879   1.290   4.619 -0.2471 -0.1306 -0.3341
14065TIP3    H163610   5.794   1.268   4.657  0.4904 -0.5475  1.1162
14065TIP3    H263611   5.900   1.216   4.562 -0.6338 -0.2550 -0.3161
14066TIP3   OH263612   0.741   6.591  11.526  0.3869 -0.1320 -0.7876
14066TIP3    H163613   0.692   6.508  11.531 -0.5849  0.4355 -0.8961
14066TIP3    H263614   0.676   6.658  11.544  1.4671  0.5265  0.7599
14067TIP3   OH263615   6.607   1.739   5.376 -0.4045  0.2729 -0.2461
14067TIP3    H163616   6.665   1.686   5.323  1.7639  0.3989  1.8887
14067TIP3    H263617   6.555   1.676   5.426  1.3670  0.1085  1.4415
14068TIP3   OH263618   6.138   5.600   2.626 -0.6158  0.2763 -0.2720
14068TIP3    H163619   6.200   5.673   2.624 -0.3632  0.0509 -0.6312
14068TIP3    H263620   6.193   5.523   2.638 -1.0378  0.3554  2.8338
14069TIP3   OH263621   2.174   6.009  16.892  0.6281 -0.2428 -0.3997
14069TIP3    H163622   2.165   5.924  16.850 -1.3014 -0.7208  0.9259
14069TIP3    H263623   2.134   6.071  16.831 -0.0569 -0.6069 -0.3225
14070TIP3   OH263624   4.261   4.156   5.805  0.4675  0.4052 -0.5627
14070TIP3    H163625   4.267   4.111   5.721  2.1864  2.2926 -1.4990
14070TIP3    H263626   4.229   4.090   5.866 -0.4913 -1.0774 -2.6256
14071TIP3   OH263627   6.293   0.788  14.952  0.2788 -0.2998 -0.4546
14071TIP3    H163628   6.208   0.776  14.995  0.1820  0.6110 -0.4016
14071TIP3    H263629   6.300   0.882  14.938  2.2881 -0.1016  1.6026
14072TIP3   OH263630   2.692   0.996  13.454 -0.6020  0.2780 -0.6513
14072TIP3    H163631   2.600   1.016  13.436 -0.8472 -0.7000 -0.5241
14072TIP3    H263632   2.735   1.081  13.458 -1.5390  0.7529 -0.5338
14073TIP3   OH263633   0.061   1.564  17.129 -0.4410 -0.9364 -0.3565
14073TIP3    H163634  -0.014   1.613  17.097  0.5366  0.2053 -0.9417
14073TIP3    H263635   0.092   1.515  17.053 -0.0871 -0.7463 -0.3401
14074TIP3   OH263636   2.423   0.337   3.809  0.1485  0.3310  0.3989
14074TIP3    H163637   2.389   0.247   3.801  0.4076  0.0721  2.1227
14074TIP3    H263638   2.484   0.346   3.736  0.8106 -1.2103  0.7485
14075TIP3   OH263639   2.217   1.600   2.572  0.0513 -0.4659  0.2017
14075TIP3    H163640   2.213   1.556   2.487 -0.6156  0.8200 -0.4503
14075TIP3    H263641   2.192   1.690   2.553  1.3221  0.1859  1.5191
14076TIP3   OH263642   5.500   6.738  14.759 -0.0789 -0.4721 -0.2399
14076TIP3    H163643   5.511   6.648  14.790  0.3088  0.4617  2.5352
14076TIP3    H263644   5.580   6.782  14.786 -1.0378  1.1206  0.0969
14077TIP3   OH263645   2.989   1.188   2.826  0.3878  0.1479  0.4290
14077TIP3    H163646   3.003   1.275   2.788 -0.2058  0.5557  1.1354
14077TIP3    H263647   3.077   1.153   2.840  0.6840  1.5829  2.2984
14078TIP3   OH263648   4.198   1.932   4.580  0.5072  0.2027  0.3569
14078TIP3    H163649   4.156   1.847   4.569  0.3233  0.3001  0.2879
14078TIP3    H263650   4.176   1.958   4.670 -2.3377  1.7077 -0.6925
14079TIP3   OH263651   6.696   4.303  15.920 -0.6669  0.4465  0.0631
14079TIP3    H163652   6.627   4.237  15.911  0.0708 -0.3337  0.0891
14079TIP3    H263653   6.698   4.322  16.014  0.6518 -1.1639  0.3784
14080TIP3   OH263654   2.391   4.455  15.875  0.3336  0.0198  0.3537
14080TIP3    H163655   2.485   4.455  15.853 -0.1422  1.7954 -1.9504
14080TIP3    H263656   2.383   4.391  15.945  3.4086  0.3999  1.1501
14081TIP3   OH263657   1.332   3.878  16.450  0.4348  0.0056  0.1011
14081TIP3    H163658   1.252   3.915  16.413  0.6431 -1.1178 -1.5422
14081TIP3    H263659   1.360   3.813  16.385  0.9698 -1.8287  2.0955
14082TIP3   OH263660   5.022   1.401   0.748  0.2487 -0.4596 -0.3741
14082TIP3    H163661   4.951   1.357   0.700  0.2380 -0.6106 -0.2211
14082TIP3    H263662   4.981   1.479   0.785  0.4781  0.1512 -1.3788
14083TIP3   OH263663   2.858   2.601   5.373 -0.2740  1.0538 -0.1597
14083TIP3    H163664   2.781   2.546   5.365 -0.9765  1.7869  1.2829
14083TIP3    H263665   2.824   2.685   5.405  0.7790  2.2805 -2.1819
14084TIP3   OH263666   4.660   0.452  15.857  0.0632 -0.3611  0.6102
14084TIP3    H163667   4.718   0.478  15.928 -0.4618  0.0489  0.8891
14084TIP3    H263668   4.701   0.488  15.778  0.5814 -0.7169  0.7101
14085TIP3   OH263669   4.992   0.023  17.030  0.4419 -0.1696 -0.1337
14085TIP3    H163670   5.061   0.018  16.964  0.4541 -1.2819 -0.0422
14085TIP3    H263671   5.010  -0.049  17.090 -0.0952  0.2789  0.5853
14086TIP3   OH263672   5.452   2.159   0.971  0.3970  0.4627 -0.3611
14086TIP3    H163673   5.379   2.097   0.967  0.1794  0.7951 -2.0938
14086TIP3    H263674   5.414   2.238   1.009 -0.2188  0.7071 -1.4569
14087TIP3   OH263675   2.725   5.796  17.007 -0.3964 -0.3668 -0.3371
14087TIP3    H163676   2.641   5.822  16.970  0.0005  0.9796 -0.3012
14087TIP3    H263677   2.782   5.781  16.932  0.3227  2.0785 -0.3163
14088TIP3   OH263678   4.340   5.078  13.036  0.2671 -0.2056  0.4406
14088TIP3    H163679   4.402   5.026  12.985  0.8523 -0.2474  1.1802
14088TIP3    H263680   4.317   5.021  13.110 -0.6039 -0.1622  0.2051
14089TIP3   OH263681   4.561   5.658  10.522 -0.3491  0.7002 -0.0467
14089TIP3    H163682   4.656   5.649  10.516 -0.0704  2.5418  1.0836
14089TIP3    H263683   4.530   5.656  10.431  0.5785 -1.5383 -0.3335
14090TIP3   OH263684   4.972   1.370   5.618 -0.3866  0.4509 -0.1723
14090TIP3    H163685   4.961   1.334   5.530 -0.4598 -0.3059  0.1432
14090TIP3    H263686   5.010   1.299   5.668 -0.5999  0.7942  0.4781
14091TIP3   OH263687   1.905   3.237   1.311 -0.2277  0.5207  0.3859
14091TIP3    H163688   1.950   3.155   1.333  2.2147  1.7429  0.1046
14091TIP3    H263689   1.975   3.301   1.302 -1.8885  2.0646 -2.0783
14092TIP3   OH263690   1.326   5.683  16.300 -0.7120 -0.2041  0.1934
14092TIP3    H163691   1.342   5.617  16.367  0.5492 -1.6230 -1.4664
14092TIP3    H263692   1.235   5.669  16.274 -0.8081 -0.5049  0.6873
14093TIP3   OH263693   3.482   4.317   1.114  0.1002 -0.1990  0.5062
14093TIP3    H163694   3.550   4.306   1.180  1.0048 -0.9313 -0.5264
14093TIP3    H263695   3.413   4.366   1.158  1.1452  0.2413  1.6701
14094TIP3   OH263696   3.170   5.308  15.837  0.0563  0.3338  0.1854
14094TIP3    H163697   3.171   5.261  15.754  0.5978 -2.4559  1.7302
14094TIP3    H263698   3.110   5.259  15.892  0.6585  1.4336  1.8645
14095TIP3   OH263699   3.884   1.522   2.023 -0.0617 -0.0949  0.2893
14095TIP3    H163700   3.851   1.449   2.076 -0.2689  0.9962  1.7169
14095TIP3    H263701   3.848   1.600   2.065  0.2776  0.8458 -1.1200
14096TIP3   OH263702   1.596   6.000  15.195 -0.2029 -0.0181 -0.0367
14096TIP3    H163703   1.626   5.991  15.104 -1.5459 -1.9345 -0.3121
14096TIP3    H263704   1.564   6.090  15.200  2.0310  0.8565 -0.7827
14097TIP3   OH263705   5.087   3.767  12.230  0.1241 -0.2591  0.2520
14097TIP3    H163706   5.087   3.849  12.279  2.8857 -0.1475  0.1045
14097TIP3    H263707   5.036   3.787  12.151  0.6766  1.2828  0.2635
14098TIP3   OH263708   6.044   1.395  12.962  0.1479 -0.4271  0.2965
14098TIP3    H163709   5.977   1.457  12.932  0.1807 -0.1148  0.8570
14098TIP3    H263710   6.110   1.451  13.003  0.9037 -0.7008 -0.5257
14099TIP3   OH263711   2.112   1.893   0.918 -0.1339  0.6722 -0.1284
14099TIP3    H163712   2.084   1.865   1.006 -0.2255 -0.7245 -0.5937
14099TIP3    H263713   2.205   1.874   0.916 -0.5744 -1.4920 -1.1453
14100TIP3   OH263714   5.179   1.279   5.237 -0.0529  0.5524  0.3867
14100TIP3    H163715   5.125   1.246   5.308 -0.4353  0.8954  0.2593
14100TIP3    H263716   5.169   1.374   5.242 -0.7642  0.5410 -0.6558
14101TIP3   OH263717   5.181   0.367   3.836 -0.2262  0.2510 -0.0787
14101TIP3    H163718   5.259   0.327   3.798 -0.2474 -0.5810  0.7201
14101TIP3    H263719   5.111   0.304   3.819 -0.3504  0.1427  0.7939
14102TIP3   OH263720   3.245   1.501   5.172  0.1804  0.1717 -0.0156
14102TIP3    H163721   3.159   1.514   5.212  0.8177  0.5324  1.2733
14102TIP3    H263722   3.303   1.561   5.220  1.2181 -0.3412 -0.6147
14103TIP3   OH263723   0.109   5.256   2.483 -0.2836 -0.1621 -0.2915
14103TIP3    H163724   0.097   5.170   2.444 -0.0436 -0.4591  0.2873
14103TIP3    H263725   0.102   5.242   2.577 -0.6855  0.5217 -0.2120
14104TIP3   OH263726   5.953   3.862   4.940 -0.0697 -0.6053 -0.0603
14104TIP3    H163727   5.892   3.917   4.989 -0.0645 -0.6179 -0.0391
14104TIP3    H263728   6.039   3.882   4.977  0.0853  0.2782 -0.8760
14105TIP3   OH263729   0.572   6.024  16.336 -0.1231  0.2105 -0.1931
14105TIP3    H163730   0.647   6.034  16.276  0.6538 -1.1158  0.5348
14105TIP3    H263731   0.496   6.027  16.278  0.5379  0.4451 -1.0806
14106TIP3   OH263732   1.820   3.516  15.669  0.5006 -0.7954  0.0756
14106TIP3    H163733   1.890   3.506  15.733 -1.0846  0.1404  2.0198
14106TIP3    H263734   1.859   3.566  15.598  1.1414  2.0264  2.3253
14107TIP3   OH263735   3.903   6.323  10.116 -0.4598 -0.5279 -0.3365
14107TIP3    H163736   3.868   6.234  10.113  1.3148 -1.2273 -1.3478
14107TIP3    H263737   3.976   6.322  10.054  0.2840  1.3276  0.4615
14108TIP3   OH263738   6.551   0.444  14.249  0.2913 -0.4028  0.4117
14108TIP3    H163739   6.568   0.429  14.156 -1.0066  1.1484 -0.0914
14108TIP3    H263740   6.622   0.503  14.277  1.9554 -2.6092  0.9633
14109TIP3   OH263741   4.320   1.387  12.809  0.5277 -0.3667 -0.3178
14109TIP3    H163742   4.364   1.377  12.725 -0.2455  0.6740 -0.8536
14109TIP3    H263743   4.227   1.396  12.786  0.4092  0.8230  0.5803
14110TIP3   OH263744   1.104   5.601   3.845 -0.3063  0.1105  0.8421
14110TIP3    H163745   1.131   5.509   3.849 -0.7728 -0.0394  0.4828
14110TIP3    H263746   1.095   5.620   3.752  1.6045  1.0542  0.8142
14111TIP3   OH263747   0.224   6.301   5.440  0.3756  0.5645 -0.1131
14111TIP3    H163748   0.306   6.317   5.487  0.1772  0.7831  0.1593
14111TIP3    H263749   0.193   6.217   5.475 -0.3532  1.2751  0.9792
14112TIP3   OH263750   2.924   4.484  15.627  0.8774  0.8135  0.0771
14112TIP3    H163751   2.994   4.426  15.658 -0.4558 -0.7167  0.3216
14112TIP3    H263752   2.961   4.572  15.634  2.3901  0.1156  1.2460
14113TIP3   OH263753   0.240   2.088   0.768  0.0728 -0.1025 -0.2879
14113TIP3    H163754   0.220   2.182   0.761 -1.2987 -0.2340  1.6194
14113TIP3    H263755   0.270   2.076   0.858  2.9749 -1.0331 -1.3215
14114TIP3   OH263756   4.885   4.335   4.661 -0.4054 -0.3705  0.7147
14114TIP3    H163757   4.818   4.301   4.603  0.0473 -1.3421  0.7595
14114TIP3    H263758   4.843   4.336   4.748 -0.6297 -0.1952  0.6046
14115TIP3   OH263759   3.070   0.145  16.254 -0.1264  0.2964  0.4134
14115TIP3    H163760   3.021   0.107  16.327  1.5119 -0.6937  1.0252
14115TIP3    H263761   3.133   0.204  16.294 -0.4221  1.1442 -0.3372
14116TIP3   OH263762   4.766   1.530  11.864 -0.4946  0.2817  0.4259
14116TIP3    H163763   4.855   1.566  11.868  0.1792 -1.4161  1.1325
14116TIP3    H263764   4.738   1.528  11.956 -0.7912 -0.3557  0.3194
14117TIP3   OH263765   5.651   6.652  16.178  0.0140  0.6930 -0.2541
14117TIP3    H163766   5.697   6.653  16.094 -1.5366 -4.2129 -1.3360
14117TIP3    H263767   5.573   6.706  16.163  0.7104  1.4059 -1.3894
14118TIP3   OH263768   1.215   3.382  15.584 -0.0262 -0.8039  0.0166
14118TIP3    H163769   1.201   3.439  15.660  1.1869 -1.1489  0.5098
14118TIP3    H263770   1.240   3.297  15.622  0.7618 -0.9283 -0.7668
14119TIP3   OH263771   3.350   3.737  11.322 -0.3175 -0.2828 -0.3615
14119TIP3    H163772   3.389   3.675  11.260  0.8077 -0.0209  0.0672
14119TIP3    H263773   3.363   3.823  11.282 -0.5949 -0.2086 -0.2918
14120TIP3   OH263774   3.247   6.741  10.848  0.7484 -0.3261  0.2641
14120TIP3    H163775   3.240   6.668  10.787  1.8761  0.9957 -1.4818
14120TIP3    H263776   3.156   6.769  10.863  0.4036 -1.2496 -0.0747
14121TIP3   OH263777   2.060   5.058  11.935 -0.3064  0.2792  0.5286
14121TIP3    H163778   2.142   5.008  11.935 -0.0554  0.6711 -0.7780
14121TIP3    H263779   2.025   5.046  11.846 -1.4612  0.4496  0.9576
14122TIP3   OH263780   5.626   2.273  15.528 -0.5150  0.1813 -0.1785
14122TIP3    H163781   5.691   2.341  15.512  1.0832 -1.1220  0.5922
14122TIP3    H263782   5.664   2.219  15.598 -3.2153  0.3832  1.5101
14123TIP3   OH263783   4.467   1.191   0.557 -0.1758 -0.2351  0.2656
14123TIP3    H163784   4.395   1.164   0.614 -0.3507  0.8700  0.5865
14123TIP3    H263785   4.433   1.180   0.468  0.3331 -2.6123  0.3498
14124TIP3   OH263786   2.571   5.116   1.711  0.6550  0.1038  0.0405
14124TIP3    H163787   2.581   5.039   1.767  0.0268  0.7605  1.0675
14124TIP3    H263788   2.491   5.100   1.662  0.9256 -0.2348 -0.2939
14125TIP3   OH263789   0.919   1.356  15.557 -0.1035 -0.1079  0.1430
14125TIP3    H163790   0.825   1.355  15.578 -0.0619 -0.3358  0.3153
14125TIP3    H263791   0.962   1.326  15.637  0.0322 -1.2864 -0.3667
14126TIP3   OH263792   3.067   0.073  11.866  0.0923 -0.1341 -0.4760
14126TIP3    H163793   3.143   0.025  11.835 -0.3759  0.5982 -2.9009
14126TIP3    H263794   3.098   0.163  11.878 -0.3261  0.1151 -1.2374
14127TIP3   OH263795   4.763   6.689  16.294  0.6488 -0.3606 -0.3606
14127TIP3    H163796   4.708   6.672  16.370  1.2484  0.7731  0.3456
14127TIP3    H263797   4.850   6.659  16.319  1.0123  0.7163 -0.2927
14128TIP3   OH263798   5.635   6.176  15.622  0.2438 -0.1302  1.3888
14128TIP3    H163799   5.696   6.111  15.658  0.3976 -1.2253 -0.7564
14128TIP3    H263800   5.551   6.131  15.618  0.4788 -0.4467 -0.6685
14129TIP3   OH263801   4.007   4.441   1.410 -0.1531  0.2908 -0.1689
14129TIP3    H163802   3.967   4.355   1.422 -1.3318  0.9387  0.6999
14129TIP3    H263803   4.043   4.439   1.322 -3.2609  0.1012 -1.4807
14130TIP3   OH263804   4.660   0.966  10.971 -0.0094  0.3352 -0.2659
14130TIP3    H163805   4.685   0.874  10.980 -0.3135  0.3948  1.2740
14130TIP3    H263806   4.634   0.974  10.879  0.6357 -0.9543 -0.5861
14131TIP3   OH263807   5.991   3.353  15.190  0.0196  0.6190  0.1347
14131TIP3    H163808   5.947   3.399  15.119  1.5938  0.0152 -1.2651
14131TIP3    H263809   5.975   3.260  15.172 -0.7339  0.4963  1.3560
14132TIP3   OH263810   4.488   3.437   2.566  0.4602  0.3536 -0.1451
14132TIP3    H163811   4.428   3.380   2.518  0.2862  0.1499  0.3150
14132TIP3    H263812   4.525   3.382   2.634  1.0098  0.5367 -0.2916
14133TIP3   OH263813   5.964   5.075  14.788 -0.1754  0.4346  0.2572
14133TIP3    H163814   6.053   5.039  14.782  1.3013  3.6971  1.3517
14133TIP3    H263815   5.924   5.054  14.704  0.2896 -4.2673  1.0415
14134TIP3   OH263816   0.764   0.459  15.342  0.1386 -0.2719 -0.6640
14134TIP3    H163817   0.702   0.476  15.413  1.0537  0.9218 -0.1250
14134TIP3    H263818   0.746   0.369  15.315  0.7191 -1.2478  2.0182
14135TIP3   OH263819   6.009   0.499  11.264  0.8414 -0.1193 -0.0837
14135TIP3    H163820   5.992   0.405  11.257 -2.4645  0.5487 -1.7932
14135TIP3    H263821   6.085   0.513  11.207  1.7448 -1.8330  0.6701
14136TIP3   OH263822   6.478   4.609   2.543 -0.3936 -0.5267 -0.0129
14136TIP3    H163823   6.385   4.588   2.549 -0.0617 -2.0739 -0.1036
14136TIP3    H263824   6.518   4.531   2.504  1.1747 -0.5119  1.5166
14137TIP3   OH263825   3.156   1.462  16.136  0.0588 -0.1597  0.4442
14137TIP3    H163826   3.100   1.386  16.120  0.7791 -1.0087  1.8082
14137TIP3    H263827   3.155   1.472  16.231  0.6295  1.0354  0.3229
14138TIP3   OH263828   1.507   2.009   3.820 -0.8874  0.0548 -0.6193
14138TIP3    H163829   1.519   1.918   3.847 -1.1806 -0.4120 -2.0188
14138TIP3    H263830   1.477   2.054   3.899  1.8820 -0.4780  0.7944
14139TIP3   OH263831   3.520   1.694  15.162 -0.3314  0.0747  0.0247
14139TIP3    H163832   3.601   1.646  15.179 -0.3337 -0.2015 -0.7178
14139TIP3    H263833   3.497   1.733  15.246  0.4558 -0.0219  0.2855
14140TIP3   OH263834   3.496   4.850   1.482 -0.1322 -0.5542  0.2105
14140TIP3    H163835   3.509   4.935   1.523  0.5184 -0.0942 -0.9405
14140TIP3    H263836   3.520   4.787   1.550  0.7596  0.1975  0.6015
14141TIP3   OH263837   2.905   1.541  10.968 -0.6645  0.0065  0.3959
14141TIP3    H163838   2.859   1.460  10.948  1.0595 -0.8984 -0.0096
14141TIP3    H263839   2.961   1.519  11.043 -0.6105  0.9709  0.6443
14142TIP3   OH263840   4.311   4.274  11.527 -0.3344  0.3393 -0.3439
14142TIP3    H163841   4.350   4.202  11.478 -0.9496  0.4440 -0.9921
14142TIP3    H263842   4.275   4.332  11.460  0.2215  1.2901  0.1702
14143TIP3   OH263843   2.841   4.310   5.860 -0.0025  0.0223 -0.5492
14143TIP3    H163844   2.847   4.395   5.904 -0.4704  0.1298 -0.6943
14143TIP3    H263845   2.865   4.246   5.928 -3.7584 -0.0773  0.8000
14144TIP3   OH263846   6.572   0.038   1.485 -0.4124 -0.0842 -0.5708
14144TIP3    H163847   6.613   0.108   1.435 -2.1215  1.6801  0.3855
14144TIP3    H263848   6.636   0.015   1.552  0.0976  0.7222 -0.7758
14145TIP3   OH263849   0.896   1.014   0.604  0.2050 -0.4335 -0.6224
14145TIP3    H163850   0.935   0.939   0.558  1.6672  0.6409 -1.1730
14145TIP3    H263851   0.805   1.014   0.576  0.3038 -1.7369 -0.9777
14146TIP3   OH263852   6.556   1.477   2.531 -0.1630 -0.4699 -0.0043
14146TIP3    H163853   6.640   1.450   2.493 -0.1871 -0.5507 -0.0020
14146TIP3    H263854   6.553   1.432   2.615  0.9560  1.5357  1.1408
14147TIP3   OH263855   1.749   4.017   6.449 -0.5497  0.4835  0.3044
14147TIP3    H163856   1.746   4.055   6.361  0.7316 -0.6534 -0.2467
14147TIP3    H263857   1.700   4.078   6.503 -3.3901  0.0059 -1.6314
14148TIP3   OH263858   2.200   6.274   1.837 -0.0408  0.3040 -0.1525
14148TIP3    H163859   2.174   6.199   1.783  0.5863  0.0188 -0.0641
14148TIP3    H263860   2.294   6.285   1.819 -0.3115  1.5908 -0.8057
14149TIP3   OH263861   5.546   5.764   1.993 -0.2295 -0.0979 -0.0965
14149TIP3    H163862   5.577   5.802   2.075 -0.8277  2.0266 -0.8125
14149TIP3    H263863   5.451   5.762   2.002 -0.2520 -0.5961 -0.4389
14150TIP3   OH263864   0.927   1.745   5.791  0.2595 -0.3077  0.1577
14150TIP3    H163865   0.980   1.711   5.863 -1.6599 -0.8568  1.3720
14150TIP3    H263866   0.979   1.731   5.713  2.2054 -0.1245  1.3933
14151TIP3   OH263867   5.075   5.905  14.339 -0.5494  0.0024 -0.3068
14151TIP3    H163868   5.041   5.991  14.365 -0.3433  0.3282 -1.1172
14151TIP3    H263869   5.014   5.874  14.273 -0.9314 -0.7271  0.3763
14152TIP3   OH263870   6.383   6.366   2.923 -0.1001  0.5090 -0.4143
14152TIP3    H163871   6.322   6.376   2.850  0.9312 -0.7158 -1.4796
14152TIP3    H263872   6.455   6.314   2.886  1.2872  1.4144  0.9764
14153TIP3   OH263873   6.238   4.983  14.817 -0.4699 -0.4179  0.1394
14153TIP3    H163874   6.315   4.958  14.868 -0.6445  0.8593  1.0457
14153TIP3    H263875   6.272   5.003  14.730  0.3543  1.0646  0.7996
14154TIP3   OH263876   2.348   4.692  12.577 -0.4951 -0.1387  0.3527
14154TIP3    H163877   2.403   4.616  12.596 -0.1572 -0.0565 -0.2906
14154TIP3    H263878   2.398   4.766  12.610  0.4431  0.0841 -1.5014
14155TIP3   OH263879   4.612   1.268  11.835  0.2525 -0.0941 -0.1016
14155TIP3    H163880   4.587   1.217  11.758 -0.5215  0.4297 -0.1990
14155TIP3    H263881   4.649   1.349  11.799  1.7221 -0.6807  0.0466
14156TIP3   OH263882   4.488   0.126   4.239  0.3348 -0.5101 -0.0813
14156TIP3    H163883   4.426   0.127   4.312  0.0587 -0.9698 -0.3061
14156TIP3    H263884   4.530   0.040   4.245  1.7846  0.2575  0.7652
14157TIP3   OH263885   6.768   2.376   4.630  0.4521 -0.0001 -0.3534
14157TIP3    H163886   6.859   2.378   4.601  0.4169 -0.6333 -0.5345
14157TIP3    H263887   6.771   2.332   4.715  0.3939  0.5860 -0.0491
14158TIP3   OH263888   3.118   0.241  12.163  0.3593 -1.0021 -0.5591
14158TIP3    H163889   3.040   0.292  12.141 -0.0677 -0.7567  1.4781
14158TIP3    H263890   3.173   0.248  12.085 -0.7880  0.4419 -1.2767
14159TIP3   OH263891   0.112   5.830  15.408  0.5610  0.0405 -0.4177
14159TIP3    H163892   0.175   5.778  15.457 -1.5505 -0.8466  1.4622
14159TIP3    H263893   0.095   5.778  15.329  0.5112 -0.8017  0.1447
14160TIP3   OH263894   3.392   1.462  12.021 -0.1147  0.1809  0.2916
14160TIP3    H163895   3.360   1.552  12.011  0.1030  0.0459 -2.1101
14160TIP3    H263896   3.335   1.410  11.964  0.6125 -0.9773  0.6047
14161TIP3   OH263897   3.764   4.123   6.274  0.3094 -0.1963  0.1789
14161TIP3    H163898   3.682   4.072   6.274  0.3007 -0.2032 -1.2135
14161TIP3    H263899   3.831   4.060   6.297  0.3513 -0.9481 -1.9470
14162TIP3   OH263900   5.013   3.197  12.020  0.2412  0.4866 -0.1037
14162TIP3    H163901   4.942   3.226  11.963  0.9510 -0.6750 -1.5930
14162TIP3    H263902   4.969   3.144  12.087 -0.3001 -0.1077 -0.9307
14163TIP3   OH263903   2.074   5.683   0.833 -0.4301  0.1105  0.0698
14163TIP3    H163904   2.049   5.775   0.825 -1.9824 -0.3230 -0.0764
14163TIP3    H263905   2.023   5.650   0.907  0.3389 -0.5657  0.3105
14164TIP3   OH263906   3.171   2.143  13.276 -0.1126 -0.3592  0.0146
14164TIP3    H163907   3.100   2.192  13.318 -0.2113  1.1481 -1.8547
14164TIP3    H263908   3.217   2.208  13.223  2.2436 -1.4685  0.6350
14165TIP3   OH263909   2.762   3.382  14.421  0.0083  0.1176 -0.5196
14165TIP3    H163910   2.747   3.471  14.451 -0.9336 -0.4897  0.8744
14165TIP3    H263911   2.678   3.353  14.386 -0.0096 -0.6282  0.1257
14166TIP3   OH263912   2.066   4.362   5.750 -0.1208  0.0225 -0.4832
14166TIP3    H163913   2.089   4.443   5.795 -1.3832  0.1974 -0.1315
14166TIP3    H263914   1.994   4.386   5.692  1.3941 -0.2353 -2.5224
14167TIP3   OH263915   2.826   2.856   2.477 -0.0693  0.4159  0.4787
14167TIP3    H163916   2.756   2.822   2.422 -0.6663  1.4766  0.5767
14167TIP3    H263917   2.794   2.942   2.507  0.4447  0.0636  2.0846
14168TIP3   OH263918   0.278   0.309   4.632  0.2522  0.3544  0.0267
14168TIP3    H163919   0.285   0.337   4.540 -2.0163 -2.3853 -1.0577
14168TIP3    H263920   0.355   0.254   4.646  1.2485  1.7418  0.1900
14169TIP3   OH263921   5.431   2.262  11.541 -0.6777  0.0199  0.1214
14169TIP3    H163922   5.377   2.189  11.511 -1.2642  0.0886  1.0011
14169TIP3    H263923   5.502   2.221  11.591 -0.7127  0.0192  0.1699
14170TIP3   OH263924   0.179   1.184  10.933 -0.0337 -0.7079 -0.4133
14170TIP3    H163925   0.155   1.146  10.849 -0.2303 -1.7141  0.0938
14170TIP3    H263926   0.096   1.211  10.973  0.0092 -0.7631 -0.2855
14171TIP3   OH263927   6.552   5.724   3.706 -0.0199  0.0014 -0.6073
14171TIP3    H163928   6.528   5.814   3.685  0.3441  0.1092 -0.5554
14171TIP3    H263929   6.470   5.685   3.740  0.1911  0.7605  0.8373
14172TIP3   OH263930   2.394   6.188  14.668  0.3343  0.0267  0.0019
14172TIP3    H163931   2.376   6.103  14.628 -0.0129  0.0624  0.0818
14172TIP3    H263932   2.384   6.173  14.762  0.5423  0.0902  0.0339
14173TIP3   OH263933   2.906   2.780   1.220 -0.0944 -0.1739  0.0783
14173TIP3    H163934   2.863   2.742   1.297 -1.4782 -1.7020 -1.3953
14173TIP3    H263935   2.911   2.707   1.157 -0.1403  1.3561 -1.7462
14174TIP3   OH263936   3.535   5.980   1.002  0.1636 -0.4338  0.4069
14174TIP3    H163937   3.523   6.075   1.003 -0.6268 -0.5278  0.4342
14174TIP3    H263938   3.539   5.957   0.909  1.8255 -0.1984  0.4190
14175TIP3   OH263939   3.638   1.495   0.320 -0.5200 -0.0941  0.4338
14175TIP3    H163940   3.660   1.571   0.373 -1.8020 -0.1852  1.1217
14175TIP3    H263941   3.553   1.466   0.353 -0.1513 -1.6951  0.0302
14176TIP3   OH263942   3.237   6.641  11.112  0.0431 -0.6288 -0.1364
14176TIP3    H163943   3.242   6.664  11.020 -2.1837 -0.1166 -0.1728
14176TIP3    H263944   3.209   6.722  11.155  1.3330 -0.7844  1.0345
14177TIP3   OH263945   3.259   2.320  14.363 -0.5308  0.2987  0.8069
14177TIP3    H163946   3.285   2.370  14.285 -0.7325 -0.7184  0.0610
14177TIP3    H263947   3.287   2.230  14.343  0.2084  0.1858  2.2927
14178TIP3   OH263948   4.655   3.205  12.468 -0.2645  0.5407  0.4753
14178TIP3    H163949   4.581   3.153  12.501 -1.2028  0.2725 -1.8764
14178TIP3    H263950   4.645   3.291  12.509 -1.6768  0.3839  0.4907
14179TIP3   OH263951   3.578   1.869   3.152 -0.0058  0.3256 -0.1565
14179TIP3    H163952   3.626   1.901   3.077  0.3718  0.6130  0.2051
14179TIP3    H263953   3.519   1.941   3.176 -0.3609  0.1092 -0.3820
14180TIP3   OH263954   2.098   4.359   3.785 -0.1916  0.0374  0.2235
14180TIP3    H163955   2.094   4.416   3.709 -0.4770  1.3086  1.1672
14180TIP3    H263956   2.191   4.338   3.794  0.1884  1.8961  0.9589
14181TIP3   OH263957   3.703   4.626   3.993 -0.0687  0.5641  0.2895
14181TIP3    H163958   3.636   4.567   3.960  1.5379 -1.1875  0.0475
14181TIP3    H263959   3.658   4.709   4.005 -2.3995 -0.7137  0.6844
14182TIP3   OH263960   2.749   1.946   3.128  0.0105  0.5969  0.6402
14182TIP3    H163961   2.745   1.998   3.208  0.3544  1.9185 -0.1934
14182TIP3    H263962   2.761   2.010   3.058  1.8121 -0.6804 -0.2589
14183TIP3   OH263963   3.378   3.855  14.695 -0.2503 -0.1541 -0.4967
14183TIP3    H163964   3.427   3.921  14.745 -0.9780  1.2024 -1.5335
14183TIP3    H263965   3.383   3.776  14.748 -0.8015  1.1838  1.6027
14184TIP3   OH263966   6.058   3.137  12.109  0.0119 -0.3210 -0.1242
14184TIP3    H163967   6.047   3.219  12.157  1.4121 -0.5462  0.6234
14184TIP3    H263968   6.121   3.158  12.040 -1.2816 -0.2357 -1.3111
14185TIP3   OH263969   1.124   2.726   3.156  0.4993  0.2774 -0.1930
14185TIP3    H163970   1.086   2.683   3.080 -0.6999  2.2134 -0.7208
14185TIP3    H263971   1.054   2.727   3.221  1.1706 -0.3635  0.5733
14186TIP3   OH263972   6.692   3.206   5.293  0.5043 -0.7053 -0.1294
14186TIP3    H163973   6.639   3.156   5.231  0.5904 -1.1999  0.1947
14186TIP3    H263974   6.781   3.173   5.281  0.7000 -0.0534 -0.4909
14187TIP3   OH263975   2.785   0.985  10.168  0.0780 -0.5676  0.3174
14187TIP3    H163976   2.725   1.059  10.169  0.6291 -0.1161 -0.0025
14187TIP3    H263977   2.871   1.024  10.179  0.3076 -1.2221  0.8569
14188TIP3   OH263978   2.166   3.312   5.211 -0.0625 -0.1847 -0.0690
14188TIP3    H163979   2.176   3.311   5.307  0.9253  1.6411 -0.1213
14188TIP3    H263980   2.099   3.378   5.195  1.4395  1.1942 -0.7515
14189TIP3   OH263981   2.128   5.337   1.068  0.6289  0.0477 -0.3189
14189TIP3    H163982   2.199   5.391   1.103 -0.4839  0.5628  1.1462
14189TIP3    H263983   2.082   5.305   1.145 -3.2756  3.0354 -1.3038
14190TIP3   OH263984   6.636   1.654  16.979 -0.0479 -0.3454 -0.2865
14190TIP3    H163985   6.585   1.664  17.059 -0.5723 -1.7921 -0.4128
14190TIP3    H263986   6.617   1.732  16.928 -1.2779 -0.3411  0.1537
14191TIP3   OH263987   3.618   3.581  14.798 -0.3877 -0.0071  0.6598
14191TIP3    H163988   3.633   3.585  14.893 -2.1426 -1.1191  1.0044
14191TIP3    H263989   3.526   3.603  14.788  0.2100  1.9042 -0.9691
14192TIP3   OH263990   4.581   6.181   4.170 -0.5736  0.1419  0.2346
14192TIP3    H163991   4.546   6.142   4.249  0.9914 -0.0739  0.8389
14192TIP3    H263992   4.628   6.259   4.200 -0.6998  0.5373 -0.5769
14193TIP3   OH263993   3.503   5.059  17.150 -0.1084 -0.1363  0.3282
14193TIP3    H163994   3.580   5.001  17.150  0.5581  0.7234  1.2582
14193TIP3    H263995   3.523   5.125  17.084  0.0906  0.2641  0.7866
14194TIP3   OH263996   2.323   5.204   4.367  0.5399  0.4759  0.0884
14194TIP3    H163997   2.250   5.260   4.392  0.7458  0.3387  1.0258
14194TIP3    H263998   2.303   5.175   4.278 -0.8312 -0.0295  0.5561
14195TIP3   OH263999   3.001   6.050   1.919  0.5442 -0.2766  0.4699
14195TIP3    H164000   3.072   6.018   1.974 -0.7478  0.2689  2.5002
14195TIP3    H264001   2.921   6.027   1.966 -0.5661  1.2101 -0.6136
14196TIP3   OH264002   3.595   2.276  14.187 -0.5233 -0.5988 -0.4205
14196TIP3    H164003   3.689   2.290  14.185 -0.6453  0.4434  0.7834
14196TIP3    H264004   3.583   2.201  14.245 -0.6450  1.2818  2.0485
14197TIP3   OH264005   4.336   2.181  11.857  0.7686  0.2211 -0.3743
14197TIP3    H164006   4.282   2.103  11.844 -0.2504  0.8101  0.1971
14197TIP3    H264007   4.396   2.157  11.928 -0.6878  0.5031  0.9933
14198TIP3   OH264008   1.406   3.448  12.967 -0.5069  0.0297 -0.2562
14198TIP3    H164009   1.497   3.472  12.985 -1.2023  1.8004  1.0225
14198TIP3    H264010   1.382   3.388  13.037 -1.7593  3.2887  2.2381
14199TIP3   OH264011   0.208   6.257  16.145  0.6617 -0.3827 -0.3067
14199TIP3    H164012   0.276   6.293  16.202 -1.2741  1.4502  0.9592
14199TIP3    H264013   0.200   6.322  16.075 -0.8778  0.2958  0.4533
14200TIP3   OH264014   1.926   3.610   2.279  0.0782  0.3987 -0.0320
14200TIP3    H164015   1.990   3.573   2.340 -0.6362 -0.5876  0.1201
14200TIP3    H264016   1.905   3.696   2.316 -1.5767 -0.8451  2.0269
14201TIP3   OH264017   4.105   5.347   5.419 -0.1706 -0.4068  0.0633
14201TIP3    H164018   4.040   5.344   5.489 -0.3533 -2.9112 -0.1554
14201TIP3    H264019   4.099   5.436   5.383 -2.1908 -0.0638  1.2201
14202TIP3   OH264020   3.973   4.837   0.352  0.5019  0.2830  0.3795
14202TIP3    H164021   3.972   4.765   0.414 -0.1883  0.5544  0.6963
14202TIP3    H264022   4.003   4.913   0.403  2.7435 -0.1015 -0.3343
14203TIP3   OH264023   0.992   2.757  16.352 -0.0304 -0.3180 -0.1688
14203TIP3    H164024   1.065   2.758  16.290 -0.0371  0.1366 -0.1709
14203TIP3    H264025   0.923   2.808  16.309 -0.4636 -1.0040 -0.2962
14204TIP3   OH264026   3.297   3.442   0.108  0.0167  0.0020 -0.2416
14204TIP3    H164027   3.325   3.354   0.083 -0.5683  0.0336 -1.0520
14204TIP3    H264028   3.282   3.437   0.202  0.2256 -0.6941 -0.2407
14205TIP3   OH264029   2.139   5.374  15.643 -0.2697 -0.4398  0.3894
14205TIP3    H164030   2.153   5.439  15.711  2.4924  0.1310 -0.6733
14205TIP3    H264031   2.134   5.424  15.562 -0.6688 -1.3389 -0.1558
14206TIP3   OH264032   5.254   1.054  16.413  0.3667 -0.5345 -0.2861
14206TIP3    H164033   5.323   1.109  16.452 -0.2683  0.6868 -0.8499
14206TIP3    H264034   5.217   1.006  16.487 -0.5571  1.4604  0.5974
14207TIP3   OH264035   1.571   1.241   5.513 -0.0216  0.2826 -0.3004
14207TIP3    H164036   1.572   1.288   5.430  0.5255 -0.2054 -0.5769
14207TIP3    H264037   1.492   1.272   5.558  0.0395  1.0494 -0.7122
14208TIP3   OH264038   5.552   1.651  16.127 -0.3581  0.7592  0.0212
14208TIP3    H164039   5.473   1.662  16.074 -0.4144 -1.2634 -0.3440
14208TIP3    H264040   5.618   1.705  16.083 -1.9543  3.8345  1.3015
14209TIP3   OH264041   3.134   4.492   4.963 -0.3020 -0.8863  0.7920
14209TIP3    H164042   3.112   4.402   4.988  2.0633 -1.5436  0.7033
14209TIP3    H264043   3.198   4.481   4.892 -0.4064  0.8782  0.4151
14210TIP3   OH264044   1.207   2.337  11.311 -0.1922 -0.0935 -0.0340
14210TIP3    H164045   1.129   2.372  11.355 -1.1735 -1.9416 -0.2742
14210TIP3    H264046   1.280   2.381  11.355 -1.3191  1.0305  0.7700
14211TIP3   OH264047   3.777   5.076  11.198  0.1657 -0.1172 -0.2828
14211TIP3    H164048   3.821   5.008  11.249 -1.0569 -0.1401  0.7578
14211TIP3    H264049   3.810   5.158  11.235  0.8349 -0.1337 -0.8319
14212TIP3   OH264050   3.349   2.171  14.013 -0.1975 -0.2130 -0.0048
14212TIP3    H164051   3.408   2.198  14.084  1.2603  2.1066 -2.0319
14212TIP3    H264052   3.329   2.079  14.032  2.2247 -0.3756  1.9959
14213TIP3   OH264053   2.738   1.651  12.526  0.0825 -0.1245 -0.4257
14213TIP3    H164054   2.671   1.589  12.557  0.0599 -1.9286 -3.7811
14213TIP3    H264055   2.716   1.733  12.570 -3.8721 -0.8761 -0.7485
14214TIP3   OH264056   2.221   0.988   3.303 -0.1158 -0.1593 -0.2949
14214TIP3    H164057   2.150   0.926   3.284 -0.7852  0.7163 -0.6718
14214TIP3    H264058   2.264   0.952   3.380  1.5413 -2.8519 -2.3931
14215TIP3   OH264059   0.229   4.616  11.160 -0.6978 -0.3953  0.2310
14215TIP3    H164060   0.247   4.523  11.143  0.2258 -0.2463  0.3929
14215TIP3    H264061   0.212   4.653  11.074 -1.4769 -0.8024  0.2074
14216TIP3   OH264062   5.592   0.614   0.688  0.8251  0.6806  0.8797
14216TIP3    H164063   5.552   0.668   0.620 -1.6070  0.4323  2.0616
14216TIP3    H264064   5.646   0.551   0.639 -0.1671  1.0732 -0.7793
14217TIP3   OH264065   6.245   3.037  14.071 -0.1420 -0.1312 -0.0906
14217TIP3    H164066   6.308   3.061  14.002 -0.4340  1.2838  0.1301
14217TIP3    H264067   6.280   3.077  14.150 -0.9655  0.0982  0.1592
14218TIP3   OH264068   6.136   2.028  12.040 -0.1372  0.0317  0.4735
14218TIP3    H164069   6.154   2.113  12.080  0.1730  0.0138  0.3726
14218TIP3    H264070   6.063   2.045  11.980 -0.9991 -0.0622  1.4757
14219TIP3   OH264071   1.328   5.818   3.598  0.1266  0.8153 -0.3111
14219TIP3    H164072   1.270   5.841   3.525 -0.1821  1.3465  0.1025
14219TIP3    H264073   1.283   5.851   3.676  0.0410 -0.5014  0.2145
14220TIP3   OH264074   4.373   5.527  14.203  0.4593 -0.2509  0.2052
14220TIP3    H164075   4.414   5.614  14.196 -0.2700 -0.0440 -1.7884
14220TIP3    H264076   4.417   5.486  14.278  0.8775  1.7954  1.1150
14221TIP3   OH264077   1.734   3.592  14.953  0.5311  0.3083  0.2930
14221TIP3    H164078   1.671   3.543  14.899  0.1163  1.3833 -0.2192
14221TIP3    H264079   1.767   3.528  15.015  0.6250 -0.8323 -0.8999
14222TIP3   OH264080   0.495   6.292  14.992  0.0871  0.1865  0.8547
14222TIP3    H164081   0.412   6.291  15.040 -0.5699  0.7191 -0.2550
14222TIP3    H264082   0.560   6.263  15.057 -0.8278  0.5726  1.9689
14223TIP3   OH264083   3.983   3.784  13.732  0.0871 -0.0107 -0.0077
14223TIP3    H164084   4.065   3.816  13.695  0.8540  0.1968  1.8203
14223TIP3    H264085   4.007   3.748  13.818 -1.2251 -2.8668 -0.7672
14224TIP3   OH264086   0.291   3.674   5.154 -0.4627 -0.0900  0.3362
14224TIP3    H164087   0.279   3.706   5.244 -1.5528  0.8520 -0.1358
14224TIP3    H264088   0.257   3.745   5.099 -0.7154 -1.0925 -0.8018
14225TIP3   OH264089   3.120   6.219   0.466  0.0536  0.5986 -0.0192
14225TIP3    H164090   3.025   6.228   0.464  0.0217 -0.0136 -1.5665
14225TIP3    H264091   3.150   6.291   0.523 -1.2892  1.0297  0.1489
14226TIP3   OH264092   4.325   2.046   3.887 -0.3017  0.4657 -0.1900
14226TIP3    H164093   4.396   2.044   3.950 -0.0609 -1.3250 -0.4803
14226TIP3    H264094   4.254   1.996   3.928 -0.5381  0.2287 -0.8669
14227TIP3   OH264095   6.030   3.719   1.937 -0.3557  0.0750 -0.0392
14227TIP3    H164096   6.124   3.732   1.950 -0.5878  0.7289  1.1655
14227TIP3    H264097   6.009   3.642   1.991 -0.5755  0.1875  0.0379
14228TIP3   OH264098   2.043   6.387   5.331  0.4959 -0.3617 -0.0919
14228TIP3    H164099   2.059   6.321   5.398 -0.0931 -2.0817 -1.6074
14228TIP3    H264100   1.961   6.429   5.357 -0.4565 -1.9630 -0.4288
14229TIP3   OH264101   6.546   1.942   4.405 -0.2834  0.0993 -0.1038
14229TIP3    H164102   6.598   1.889   4.345  2.3043  0.4819  1.6784
14229TIP3    H264103   6.594   2.025   4.411 -0.5505  0.1296  2.3153
14230TIP3   OH264104   4.094   5.139   3.140 -0.3473 -0.9461 -0.0942
14230TIP3    H164105   4.045   5.157   3.060  1.5839  0.5997 -0.9910
14230TIP3    H264106   4.112   5.045   3.138 -0.9284 -1.0347 -1.1144
14231TIP3   OH264107   1.490   4.539   6.695  0.0083 -0.8241 -0.2523
14231TIP3    H164108   1.471   4.546   6.602  0.1686  1.1624 -0.1427
14231TIP3    H264109   1.410   4.503   6.733 -0.3240 -0.9399 -1.0517
14232TIP3   OH264110   3.268   4.661   5.109  0.1284 -0.5709  0.1156
14232TIP3    H164111   3.221   4.598   5.055 -0.4845  0.0369 -0.0654
14232TIP3    H264112   3.310   4.720   5.047  1.1233 -1.0957  0.2757
14233TIP3   OH264113   5.827   3.888  12.176 -0.4394 -0.2751 -0.0797
14233TIP3    H164114   5.832   3.881  12.081  1.5746  0.1827 -0.0340
14233TIP3    H264115   5.735   3.905  12.194 -0.8661 -0.5058 -1.9340
14234TIP3   OH264116   2.518   3.429  16.295  0.0973 -0.0262 -0.0451
14234TIP3    H164117   2.495   3.349  16.248  0.3629  0.0155 -0.2418
14234TIP3    H264118   2.449   3.438  16.361 -1.5961  1.1671 -1.9089
14235TIP3   OH264119   1.102   4.225   5.680 -0.7853  0.0572  0.2248
14235TIP3    H164120   1.052   4.147   5.703 -2.3210  1.0094  0.1591
14235TIP3    H264121   1.180   4.191   5.636  0.3432 -1.6251  3.3353
14236TIP3   OH264122   3.983   1.401  12.279 -0.3377  0.6084  0.0386
14236TIP3    H164123   3.970   1.348  12.200  1.2601  0.0816  0.1011
14236TIP3    H264124   4.076   1.390  12.299 -0.9105  0.0573  2.4918
14237TIP3   OH264125   1.731   5.439   3.424 -0.4892  0.6520  0.0481
14237TIP3    H164126   1.652   5.483   3.392 -2.2254 -0.6721  2.3452
14237TIP3    H264127   1.713   5.421   3.516  1.3677 -2.1640 -0.0669
14238TIP3   OH264128   0.760   4.228  11.645  0.3672  0.3959  0.1606
14238TIP3    H164129   0.690   4.292  11.657  0.0296  0.3337 -1.3869
14238TIP3    H264130   0.732   4.175  11.570  1.3756 -0.5763  0.4516
14239TIP3   OH264131   2.538   1.247   4.609 -0.2977 -0.4174 -0.2562
14239TIP3    H164132   2.525   1.336   4.642 -0.0110 -0.2810 -0.5093
14239TIP3    H264133   2.613   1.254   4.551  0.3352 -1.0083  0.4735
14240TIP3   OH264134   1.244   6.373   3.340 -0.0537  0.3241 -0.4944
14240TIP3    H164135   1.243   6.442   3.406 -0.9107  1.2604 -1.4790
14240TIP3    H264136   1.171   6.394   3.282 -0.9640 -1.9845 -0.2348
14241TIP3   OH264137   3.351   3.178   6.364 -0.2401 -0.0192 -0.2664
14241TIP3    H164138   3.325   3.269   6.381 -2.6561 -0.7523  0.1342
14241TIP3    H264139   3.408   3.155   6.438  0.5424  1.2110 -0.4704
14242TIP3   OH264140   2.814   3.214  15.427  0.3744 -0.1933 -0.0085
14242TIP3    H164141   2.780   3.296  15.391  1.4006  1.4092  2.5061
14242TIP3    H264142   2.909   3.222  15.421  0.5641 -0.1561  2.3102
14243TIP3   OH264143   5.700   3.743   0.469 -0.5060 -0.7849 -0.2924
14243TIP3    H164144   5.625   3.693   0.500  1.2749 -2.9411  0.6823
14243TIP3    H264145   5.774   3.682   0.477  1.3137  1.2257 -1.3779
14244TIP3   OH264146   2.723   5.563  11.919  0.1760 -0.0902 -0.0098
14244TIP3    H164147   2.787   5.492  11.914  1.0624  0.4950  2.3172
14244TIP3    H264148   2.639   5.519  11.933  0.6975 -0.7046  1.2392
14245TIP3   OH264149   6.222   3.377  12.266 -0.0635  0.1932 -0.2311
14245TIP3    H164150   6.308   3.389  12.227 -0.2434 -1.6437 -1.2182
14245TIP3    H264151   6.231   3.415  12.354  1.3767  1.1179 -0.7530
14246TIP3   OH264152   0.543   3.247   0.150 -0.5024  0.1124 -0.6145
14246TIP3    H164153   0.518   3.307   0.220 -0.2732  0.6903 -1.0151
14246TIP3    H264154   0.494   3.167   0.167  0.8587 -0.3670  1.1968
14247TIP3   OH264155   0.851   0.708  11.690 -0.3598  1.1660  0.4263
14247TIP3    H164156   0.898   0.714  11.773  1.1342 -0.8280 -0.2517
14247TIP3    H264157   0.918   0.715  11.623 -1.2877  0.4917 -0.5908
14248TIP3   OH264158   5.125   4.820  11.320  0.9870  0.3471 -0.1954
14248TIP3    H164159   5.146   4.830  11.413 -0.5605  0.6106  0.1346
14248TIP3    H264160   5.169   4.739  11.294  1.5870  0.3770  0.7124
14249TIP3   OH264161   5.268   4.075   1.609  0.7503  0.0013  0.1423
14249TIP3    H164162   5.350   4.125   1.612  0.2620  0.8473 -0.4985
14249TIP3    H264163   5.200   4.142   1.600  0.1431 -0.8253 -1.4385
14250TIP3   OH264164   4.421   3.260  16.693  0.1877  0.1893 -0.2827
14250TIP3    H164165   4.425   3.165  16.684  2.1160  0.2663 -0.4399
14250TIP3    H264166   4.351   3.275  16.756  1.3285 -1.4614  1.4226
14251TIP3   OH264167   2.854   0.090  13.304  0.0979 -0.0414  0.2787
14251TIP3    H164168   2.888   0.014  13.257 -0.1008 -0.3261  0.5909
14251TIP3    H264169   2.872   0.164  13.246 -2.7660 -0.7474 -1.5790
14252TIP3   OH264170   1.150   3.336  15.925  0.5352 -0.0268  0.0881
14252TIP3    H164171   1.177   3.422  15.895  0.5827 -0.0123  0.1723
14252TIP3    H264172   1.172   3.277  15.853  0.7333 -0.0057  0.1303
14253TIP3   OH264173   0.949   1.864  15.261 -0.2284  0.0375  0.3295
14253TIP3    H164174   0.943   1.789  15.320 -0.3314 -0.1975  0.0245
14253TIP3    H264175   0.911   1.937  15.310  0.5886  0.0669  0.9178
14254TIP3   OH264176   3.423   2.773   2.820 -0.4317  0.4321 -0.3850
14254TIP3    H164177   3.459   2.701   2.768 -0.8292 -0.0429 -0.0010
14254TIP3    H264178   3.333   2.784   2.788 -0.4982  0.5050 -0.1732
14255TIP3   OH264179   2.669   0.011   3.275 -0.4648  0.6335 -0.0687
14255TIP3    H164180   2.679  -0.001   3.181 -0.1747 -0.9735  0.1374
14255TIP3    H264181   2.759   0.013   3.308 -0.5605  1.4687  0.1373
14256TIP3   OH264182   3.700   6.295  14.668 -0.8907 -0.2928  0.5821
14256TIP3    H164183   3.713   6.301  14.763  0.2510 -0.4932  0.4471
14256TIP3    H264184   3.605   6.288  14.657 -0.9281 -2.1213  1.8099
14257TIP3   OH264185   6.749   3.756  11.662 -0.3601  0.4351 -0.5340
14257TIP3    H164186   6.726   3.663  11.657 -0.0698  0.1734  2.0154
14257TIP3    H264187   6.843   3.759  11.643 -0.4117  0.2235 -0.8172
14258TIP3   OH264188   2.995   0.921   2.518  0.3736 -0.3861 -0.3530
14258TIP3    H164189   3.047   1.001   2.520  0.4456 -0.4533  0.7581
14258TIP3    H264190   2.959   0.918   2.429  0.0726  1.0654 -0.2924
14259TIP3   OH264191   1.871   0.917   1.799 -0.2147 -0.2381 -0.4551
14259TIP3    H164192   1.885   0.865   1.720  1.3283 -0.8312  0.1872
14259TIP3    H264193   1.812   0.864   1.853  0.6677 -0.9374 -0.1729
14260TIP3   OH264194   0.562   5.740  12.313 -0.3086  0.2790  0.2591
14260TIP3    H164195   0.567   5.752  12.408  0.1515  0.4342  0.2134
14260TIP3    H264196   0.618   5.808  12.276 -1.4177  0.9744 -0.1774
14261TIP3   OH264197   1.570   4.305  16.395  0.3279 -0.5346 -0.4120
14261TIP3    H164198   1.481   4.271  16.385 -0.7091  2.0469 -0.5383
14261TIP3    H264199   1.558   4.386  16.445  2.9120 -1.4851  1.8326
14262TIP3   OH264200   1.644   5.152  12.347 -0.0240 -0.1755  0.0439
14262TIP3    H164201   1.676   5.228  12.298  0.7544 -1.4525 -1.4852
14262TIP3    H264202   1.643   5.181  12.438 -0.9948  2.0918 -0.6383
14263TIP3   OH264203   5.263   5.757   2.406 -0.5319 -0.0767  0.0998
14263TIP3    H164204   5.289   5.848   2.393 -1.6095  0.2883  0.4551
14263TIP3    H264205   5.278   5.741   2.500 -1.2427  0.0213  0.2282
14264TIP3   OH264206   1.176   2.923   1.845  0.4288  0.2969  0.0027
14264TIP3    H164207   1.138   3.010   1.858  0.1056  0.4253 -1.6403
14264TIP3    H264208   1.112   2.862   1.883  0.0605  0.7089  0.0398
14265TIP3   OH264209   4.746   2.395   0.612 -0.3714 -0.5782 -0.7897
14265TIP3    H164210   4.830   2.350   0.615 -0.8134 -1.3763 -0.3055
14265TIP3    H264211   4.749   2.446   0.531  0.0117 -1.7198 -1.5008
14266TIP3   OH264212   0.604   2.150   3.315  0.6283  0.7688 -0.0911
14266TIP3    H164213   0.582   2.072   3.264 -0.2284  0.9933 -0.0606
14266TIP3    H264214   0.699   2.143   3.329  0.4912 -0.4847  0.2650
14267TIP3   OH264215   1.653   3.669  11.746  0.1374 -0.0870  0.4901
14267TIP3    H164216   1.697   3.597  11.791  1.5921 -0.6236 -1.6776
14267TIP3    H264217   1.598   3.626  11.680  0.0363  0.7512  0.0173
14268TIP3   OH264218   3.932   1.144   2.885 -0.1763 -0.8343 -0.2288
14268TIP3    H164219   3.912   1.059   2.923  0.7102 -1.6334 -1.5304
14268TIP3    H264220   3.851   1.171   2.841 -0.5567 -0.8359  0.4603
14269TIP3   OH264221   6.074   6.494   5.833 -0.0169  0.0269  0.0391
14269TIP3    H164222   6.020   6.553   5.886  0.9716  0.3467  0.7103
14269TIP3    H264223   6.161   6.533   5.836  0.0162  0.1893 -2.0465
14270TIP3   OH264224   2.729   1.149   2.868 -0.2017  0.3054  0.4062
14270TIP3    H164225   2.824   1.160   2.858  0.1349 -2.0361  0.7769
14270TIP3    H264226   2.696   1.138   2.779 -0.1336  1.2180  0.2688
14271TIP3   OH264227   1.306   0.164  13.499 -0.0112  0.3372 -0.1335
14271TIP3    H164228   1.237   0.098  13.493  2.4212 -2.3556  0.0604
14271TIP3    H264229   1.366   0.128  13.564  2.6889  1.5332 -1.9018
14272TIP3   OH264230   5.831   2.594  13.615 -0.2083  0.1183  0.8293
14272TIP3    H164231   5.749   2.617  13.571 -0.0221 -0.6391  0.0833
14272TIP3    H264232   5.823   2.501  13.635  0.2337  0.1735  1.2697
14273TIP3   OH264233   4.654   3.269   4.477  0.0386  0.6924  0.1497
14273TIP3    H164234   4.679   3.223   4.557  1.0332  1.6061  0.3911
14273TIP3    H264235   4.638   3.200   4.413 -1.4860 -0.0762  1.3335
14274TIP3   OH264236   1.779   4.478   1.678  0.2752 -0.4275  0.0323
14274TIP3    H164237   1.804   4.529   1.601  0.2402 -1.8473 -0.9279
14274TIP3    H264238   1.770   4.389   1.646  0.4157 -1.0644  1.7216
14275TIP3   OH264239   6.014   5.412  15.230 -0.3030  0.4055 -0.5628
14275TIP3    H164240   6.084   5.475  15.220  1.5040 -1.4854 -0.1513
14275TIP3    H264241   5.972   5.408  15.143 -0.9263  2.6557 -0.3968
14276TIP3   OH264242   4.867   2.719  12.325  0.1992  0.4272 -0.0324
14276TIP3    H164243   4.948   2.670  12.311 -0.5307 -0.3893 -1.5547
14276TIP3    H264244   4.810   2.657  12.372 -1.1259 -0.6406 -2.9460
14277TIP3   OH264245   5.801   4.650   5.508  0.0563  0.1493 -0.6208
14277TIP3    H164246   5.823   4.738   5.539 -0.7661  0.2770 -0.3624
14277TIP3    H264247   5.878   4.620   5.460  0.2226  1.1400 -0.9747
14278TIP3   OH264248   2.904   4.090  15.381  0.2814 -0.2728 -0.5832
14278TIP3    H164249   2.989   4.128  15.358 -0.0656  0.5126 -0.5906
14278TIP3    H264250   2.850   4.103  15.303  0.3151 -1.2678 -0.7765
14279TIP3   OH264251   0.259   5.496  10.394  0.1174 -0.0656 -0.0157
14279TIP3    H164252   0.347   5.512  10.427  0.3455 -0.6004 -0.3668
14279TIP3    H264253   0.266   5.417  10.341 -0.9447 -1.1216  1.3870
14280TIP3   OH264254   0.312   3.869  15.350 -0.7559 -0.2005  0.0995
14280TIP3    H164255   0.349   3.824  15.427 -1.1915 -0.3826  0.2060
14280TIP3    H264256   0.320   3.962  15.370 -0.8898 -0.2473  0.3803
14281TIP3   OH264257   6.516   1.510   1.372  0.2390  0.0970 -0.5637
14281TIP3    H164258   6.452   1.484   1.438  0.3645 -0.4413 -0.6555
14281TIP3    H264259   6.494   1.601   1.352  0.3734  0.3388  0.4163
14282TIP3   OH264260   1.668   0.595   6.393 -0.0124  0.3925 -0.4553
14282TIP3    H164261   1.741   0.537   6.373  1.3758  2.5465 -1.7916
14282TIP3    H264262   1.590   0.540   6.382  1.1424 -0.7334 -3.5940
14283TIP3   OH264263   6.040   4.250   4.519  0.0643  0.0175  0.1182
14283TIP3    H164264   6.068   4.160   4.537  0.2180  0.3221  1.4596
14283TIP3    H264265   5.948   4.252   4.545 -0.2688 -0.0611 -1.0335
14284TIP3   OH264266   2.637   3.409  13.556 -0.4446 -0.0229 -0.2631
14284TIP3    H164267   2.557   3.451  13.589 -0.3208  0.2626 -0.3314
14284TIP3    H264268   2.707   3.442  13.612  0.0732  2.0074 -2.0303
14285TIP3   OH264269   1.529   0.429  16.747  0.1367 -0.2109 -0.2853
14285TIP3    H164270   1.522   0.467  16.834 -0.1212  0.3159 -0.5394
14285TIP3    H264271   1.617   0.453  16.717  0.5220 -1.0469  0.1331
14286TIP3   OH264272   5.906   4.341   2.554 -0.2978 -0.0638 -0.0069
14286TIP3    H164273   5.840   4.405   2.528 -0.4881 -0.5632 -0.7676
14286TIP3    H264274   5.934   4.300   2.472 -0.2922 -1.0713  0.4906
14287TIP3   OH264275   0.475   2.106  11.467 -0.2833 -0.4245 -0.1222
14287TIP3    H164276   0.497   2.106  11.560  0.1410 -0.0251 -0.2185
14287TIP3    H264277   0.462   2.014  11.445  1.9340 -0.7414 -0.1948
14288TIP3   OH264278   5.246   5.615  14.777 -0.0866  0.1136 -0.1533
14288TIP3    H164279   5.251   5.601  14.871  1.9349 -2.1458 -0.5393
14288TIP3    H264280   5.337   5.608  14.747 -0.4896  2.3027 -2.0942
14289TIP3   OH264281   3.645   3.548  17.039 -0.1909 -0.3508  0.6580
14289TIP3    H164282   3.715   3.592  16.992 -1.6376 -0.8969 -2.1567
14289TIP3    H264283   3.577   3.615  17.048 -0.8044 -0.8720 -0.0466
14290TIP3   OH264284   2.109   4.658  12.705  0.1782  0.2070 -0.0825
14290TIP3    H164285   2.196   4.678  12.670  0.9471 -1.7161  0.6895
14290TIP3    H264286   2.050   4.670  12.631  1.4463 -1.0848 -1.3271
14291TIP3   OH264287   0.561   0.726   4.315 -0.2219  0.1703  0.4141
14291TIP3    H164288   0.623   0.777   4.264 -1.7306 -0.5591 -2.2319
14291TIP3    H264289   0.591   0.736   4.406  0.7782  3.9136 -0.2391
14292TIP3   OH264290   3.658   4.038  15.617  0.1546  0.2618  0.1119
14292TIP3    H164291   3.734   4.032  15.675 -0.4089  1.4494  1.0085
14292TIP3    H264292   3.683   4.104  15.552  0.3101 -0.1614 -0.2587
14293TIP3   OH264293   5.654   2.300  15.966 -0.1868  0.6545 -0.1185
14293TIP3    H164294   5.742   2.329  15.990 -0.6895  1.5507  0.6705
14293TIP3    H264295   5.629   2.239  16.035  0.1137 -0.1911 -0.7543
14294TIP3   OH264296   3.443   2.236  11.102  0.1506 -0.2415  0.2893
14294TIP3    H164297   3.427   2.262  11.011 -1.0663  1.1205  0.8531
14294TIP3    H264298   3.508   2.298  11.134  1.5121 -1.5019 -0.0016
14295TIP3   OH264299   0.336   1.912   2.109 -0.6708 -0.2524  0.1829
14295TIP3    H164300   0.330   1.961   2.027 -1.8056 -1.5023 -0.5137
14295TIP3    H264301   0.425   1.929   2.140 -0.7056  1.4098 -0.5464
14296TIP3   OH264302   4.184   0.010  15.034 -1.1990 -0.0141 -0.1459
14296TIP3    H164303   4.125   0.058  15.092 -0.3114  1.5296 -0.4615
14296TIP3    H264304   4.205  -0.070  15.081 -1.6760  0.5224  1.0070
14297TIP3   OH264305   3.309   2.838   2.051 -0.0749  0.3269  0.6198
14297TIP3    H164306   3.371   2.891   2.101  1.7892 -0.2968 -0.9781
14297TIP3    H264307   3.248   2.902   2.014  1.9020  1.3649 -0.9439
14298TIP3   OH264308   1.748   4.268   5.891 -0.1267 -0.3346  0.3549
14298TIP3    H164309   1.768   4.210   5.818  1.6338  0.4283  0.1970
14298TIP3    H264310   1.657   4.250   5.911 -0.4693 -1.0079 -1.6314
14299TIP3   OH264311   4.946   2.651  14.155  0.1785 -0.5926  0.7591
14299TIP3    H164312   4.984   2.567  14.182 -0.6930 -0.6140  2.0118
14299TIP3    H264313   4.884   2.672  14.226  2.2812  2.3996  1.8105
14300TIP3   OH264314   6.081   5.281  15.635 -0.0879 -0.0234 -0.1604
14300TIP3    H164315   6.143   5.240  15.695 -0.2193 -0.7109 -0.4849
14300TIP3    H264316   6.132   5.296  15.555 -0.8061 -2.4184 -1.1395
14301TIP3   OH264317   5.112   4.235  16.365 -0.3314 -0.1704 -0.1709
14301TIP3    H164318   5.153   4.177  16.430 -0.7145 -0.4632 -0.1850
14301TIP3    H264319   5.146   4.322  16.386 -2.2158  0.1120  1.9089
14302TIP3   OH264320   1.867   3.631  10.990  0.0531  0.5092  0.4121
14302TIP3    H164321   1.893   3.549  10.948  0.8296  1.1713 -0.4326
14302TIP3    H264322   1.950   3.669  11.020 -0.3050  0.9715  0.8216
14303TIP3   OH264323   2.562   4.140   3.903 -0.2708  0.2653  0.3763
14303TIP3    H164324   2.654   4.166   3.893  0.2294 -1.0284  1.5404
14303TIP3    H264325   2.513   4.212   3.864  1.2464  0.8606 -0.4698
14304TIP3   OH264326   6.350   1.561  14.341  1.1335  0.6797  0.6715
14304TIP3    H164327   6.415   1.515  14.394  0.1855 -1.5246  0.0281
14304TIP3    H264328   6.272   1.505  14.346  0.4924  1.2952 -1.6298
14305TIP3   OH264329   5.722   0.924   5.424  0.0109 -0.3121  0.2759
14305TIP3    H164330   5.658   0.988   5.458 -1.3856  0.4816 -3.5707
14305TIP3    H264331   5.791   0.977   5.386  1.2351 -1.1634  1.2883
14306TIP3   OH264332   6.382   6.421  15.644  0.1475 -0.5486  0.0265
14306TIP3    H164333   6.408   6.424  15.736  1.0175 -0.7909 -0.2107
14306TIP3    H264334   6.427   6.345  15.608  0.6119  0.1235 -0.8456
14307TIP3   OH264335   1.899   2.907  14.854  0.2629  0.0652  0.4714
14307TIP3    H164336   1.934   2.894  14.942 -0.3675  1.3078  0.9177
14307TIP3    H264337   1.810   2.873  14.858 -0.9734  3.2544  1.3088
14308TIP3   OH264338   2.114   4.084  15.518  0.3749  0.1266 -0.6802
14308TIP3    H164339   2.053   4.075  15.591  1.9343 -0.0520  0.6020
14308TIP3    H264340   2.057   4.097  15.442 -1.2672  0.0727  0.5083
14309TIP3   OH264341   6.410   6.255  11.385  0.0994  0.2922 -0.6754
14309TIP3    H164342   6.371   6.323  11.330  0.1877  0.9022  0.0163
14309TIP3    H264343   6.457   6.302  11.452  0.4232 -0.4580 -0.3711
14310TIP3   OH264344   1.398   0.514   4.422  0.6055  0.2049  0.2545
14310TIP3    H164345   1.365   0.495   4.334  1.1124 -2.7439  0.6367
14310TIP3    H264346   1.480   0.561   4.407 -0.6279  2.0934 -0.7765
14311TIP3   OH264347   1.126   6.717   2.643  0.0767 -0.7536  0.2839
14311TIP3    H164348   1.062   6.780   2.678  2.6082  1.8530  0.3654
14311TIP3    H264349   1.124   6.732   2.549  0.6444 -0.6126  0.2974
14312TIP3   OH264350   3.964   6.600   2.797  0.2986 -0.0467 -0.4296
14312TIP3    H164351   4.055   6.608   2.824  0.3197 -0.4740 -0.3726
14312TIP3    H264352   3.915   6.652   2.862  0.6546  1.6148 -1.4488
14313TIP3   OH264353   4.893   6.463  15.969 -0.1229 -0.3596  0.4398
14313TIP3    H164354   4.865   6.552  15.951  0.0095 -0.2951  0.5481
14313TIP3    H264355   4.895   6.456  16.064 -0.3707 -0.5557  0.4325
14314TIP3   OH264356   2.910   6.349  13.476  0.2744  0.2658 -0.1938
14314TIP3    H164357   2.894   6.294  13.553 -0.0100 -0.3892 -0.7150
14314TIP3    H264358   2.823   6.370  13.443  0.3302  2.2999  0.8747
14315TIP3   OH264359   4.748   1.554  12.147  0.0087  0.0648  0.4696
14315TIP3    H164360   4.833   1.594  12.165  0.0941 -0.2213  0.7162
14315TIP3    H264361   4.743   1.481  12.208  0.4074 -1.0808 -0.8228
14316TIP3   OH264362   0.528   1.157   0.194  0.1591  0.0277 -0.4273
14316TIP3    H164363   0.563   1.188   0.110  0.2224  1.9920  0.2840
14316TIP3    H264364   0.487   1.235   0.232 -3.0180 -1.6780 -0.2273
14317TIP3   OH264365   6.032   4.824  14.971 -0.7794  0.7045 -0.1584
14317TIP3    H164366   6.123   4.854  14.964 -0.5779  0.1915  0.1717
14317TIP3    H264367   5.987   4.864  14.897  0.0861 -0.3658 -1.2890
14318TIP3   OH264368   2.884   3.743  15.763  0.0688 -0.4523 -0.4241
14318TIP3    H164369   2.881   3.648  15.768 -0.2041 -0.5217 -1.7508
14318TIP3    H264370   2.839   3.773  15.843 -4.1239 -1.4577 -2.2497
14319TIP3   OH264371   2.903   2.011  13.260 -0.7397  0.2294 -0.3551
14319TIP3    H164372   2.976   2.013  13.322 -0.3548  0.7260 -0.8174
14319TIP3    H264373   2.826   1.996  13.315 -0.1337 -1.7906 -0.0207
14320TIP3   OH264374   4.005   3.501  13.883 -0.2089  0.1848 -0.2271
14320TIP3    H164375   4.047   3.574  13.929  0.1382 -0.8602  1.1253
14320TIP3    H264376   3.977   3.442  13.952 -1.6496 -0.3609 -1.2577
14321TIP3   OH264377   6.519   6.391  11.864  0.1671 -0.2654  0.3109
14321TIP3    H164378   6.509   6.418  11.773 -2.0453 -0.3234  0.5140
14321TIP3    H264379   6.601   6.432  11.892  1.6526 -1.4737 -2.1141
14322TIP3   OH264380   0.690   1.234  12.487 -0.4466 -0.1510 -0.5230
14322TIP3    H164381   0.670   1.179  12.412 -2.8238  0.1361 -0.1267
14322TIP3    H264382   0.646   1.191  12.561  0.4667  0.4755  0.4047
14323TIP3   OH264383   2.138   0.714  15.447  0.0055  0.1041  0.0669
14323TIP3    H164384   2.118   0.620  15.449  3.5436 -0.7468 -0.9444
14323TIP3    H264385   2.145   0.735  15.354  1.0915  0.9276  0.3286
14324TIP3   OH264386   1.042   3.724  11.336  0.4192  0.3766 -0.5932
14324TIP3    H164387   1.026   3.638  11.375 -0.0722  1.6777  2.1969
14324TIP3    H264388   1.111   3.708  11.272  0.8401 -1.9771  0.3656
14325TIP3   OH264389   4.875   6.054   5.047 -0.8112 -0.2490  0.2106
14325TIP3    H164390   4.797   6.106   5.064 -0.1923  0.2050  1.6952
14325TIP3    H264391   4.946   6.101   5.092  0.3234 -0.6400 -1.1288
14326TIP3   OH264392   5.727   5.124   4.693  0.1092 -0.6379  0.6032
14326TIP3    H164393   5.764   5.097   4.608  1.1516  1.4515  0.3703
14326TIP3    H264394   5.634   5.138   4.675 -0.1599 -2.4897  0.3768
14327TIP3   OH264395   5.235   1.152   3.019  0.8955 -0.0389 -0.0787
14327TIP3    H164396   5.279   1.087   3.075  2.3725 -0.3398 -1.5473
14327TIP3    H264397   5.170   1.102   2.970 -0.6817  0.2928  1.6123
14328TIP3   OH264398   6.646   5.632  13.866  0.3253  0.2782 -0.1075
14328TIP3    H164399   6.551   5.623  13.872  0.1253  2.1237 -0.4247
14328TIP3    H264400   6.676   5.636  13.956  0.1511 -0.7260 -0.0012
14329TIP3   OH264401   0.325   4.367  11.052 -0.2521 -0.2472  0.3501
14329TIP3    H164402   0.404   4.350  11.000 -0.7180 -0.5081 -0.2898
14329TIP3    H264403   0.257   4.315  11.009 -0.5900 -0.6942  1.3963
14330TIP3   OH264404   4.267   5.420  11.755 -0.5617  0.3593  0.2476
14330TIP3    H164405   4.326   5.491  11.781 -0.8560  0.4885  0.5604
14330TIP3    H264406   4.321   5.341  11.758 -0.4908  0.4265  0.8693
14331TIP3   OH264407   1.483   3.242  12.041  0.5255  0.1378 -0.0708
14331TIP3    H164408   1.553   3.196  12.088  0.6297  0.6556  0.2772
14331TIP3    H264409   1.438   3.173  11.992 -0.0745 -0.5520  1.4019
14332TIP3   OH264410   5.544   0.353  16.208 -0.5723  0.4378 -0.5284
14332TIP3    H164411   5.585   0.439  16.219  0.2910  0.0113 -0.3468
14332TIP3    H264412   5.611   0.300  16.165  0.6572 -1.4996  3.5470
14333TIP3   OH264413   4.748   3.156   3.579  0.2520  0.1078 -0.2174
14333TIP3    H164414   4.771   3.126   3.491 -1.7916 -1.1676 -0.3397
14333TIP3    H264415   4.687   3.228   3.566 -0.4525 -0.4145  0.1582
14334TIP3   OH264416   2.609   5.838   1.140 -0.3159  0.1513 -0.1624
14334TIP3    H164417   2.653   5.858   1.057 -0.2092  1.0518  0.1082
14334TIP3    H264418   2.649   5.756   1.169 -0.5911 -0.3527 -1.1657
14335TIP3   OH264419   5.384   2.611   2.262 -0.3208  0.0980  0.4864
14335TIP3    H164420   5.340   2.695   2.249  2.4068  1.0838 -3.2834
14335TIP3    H264421   5.331   2.549   2.212 -1.0213  0.0242  1.3159
14336TIP3   OH264422   3.811   1.984  16.752 -0.2996 -0.3977  0.2808
14336TIP3    H164423   3.765   1.902  16.766 -2.5226  0.8320  0.3709
14336TIP3    H264424   3.786   2.039  16.827 -0.2685  0.9878 -0.6993
14337TIP3   OH264425   3.002   1.370  16.726 -0.6096  0.4552 -0.0703
14337TIP3    H164426   2.943   1.434  16.686 -0.1917  0.6056 -0.4395
14337TIP3    H264427   3.018   1.306  16.657 -1.5401 -0.4124  0.4850
14338TIP3   OH264428   4.166   3.490  13.383 -0.2999 -0.1103  0.4242
14338TIP3    H164429   4.178   3.510  13.476  1.6099  1.5606 -0.1582
14338TIP3    H264430   4.196   3.400  13.374  1.4609  0.4032  1.0483
14339TIP3   OH264431   4.912   1.542  11.311 -0.1137 -0.1724  0.0903
14339TIP3    H164432   4.957   1.534  11.227 -1.8544  1.5106 -1.0539
14339TIP3    H264433   4.980   1.575  11.371  1.1927 -1.5757 -0.5678
14340TIP3   OH264434   3.473   0.382  13.494  0.4225 -0.3010 -0.1092
14340TIP3    H164435   3.448   0.290  13.497  1.1494 -0.5009 -0.1392
14340TIP3    H264436   3.414   0.425  13.556 -0.8460 -0.5558 -1.1179
14341TIP3   OH264437   2.441   4.536  11.670  0.5181 -0.6446 -0.3477
14341TIP3    H164438   2.395   4.569  11.747  1.7654 -0.5762  0.3808
14341TIP3    H264439   2.511   4.481  11.705  2.0325  0.5782 -1.3693
14342TIP3   OH264440   3.566   6.561   0.562  0.0240  0.2087 -0.0579
14342TIP3    H164441   3.600   6.589   0.477 -0.4526 -0.7215 -0.5558
14342TIP3    H264442   3.526   6.476   0.546 -1.9745  0.9869  0.6734
14343TIP3   OH264443   0.048   3.217  15.893 -0.3383  0.1597  0.6301
14343TIP3    H164444   0.066   3.152  15.825  0.6026  0.5318  0.5078
14343TIP3    H264445   0.085   3.299  15.858 -0.8952  0.6107  1.0775
14344TIP3   OH264446   3.297   6.191  16.393 -0.0236 -0.0905 -0.0620
14344TIP3    H164447   3.364   6.138  16.437  0.8930 -0.0457 -1.3787
14344TIP3    H264448   3.228   6.201  16.458  0.9306 -0.7559  1.0703
14345TIP3   OH264449   0.449   2.323   4.296  0.0419 -0.3462  0.3786
14345TIP3    H164450   0.427   2.402   4.247 -0.5698 -0.2886  0.7404
14345TIP3    H264451   0.436   2.251   4.235  1.6136 -0.0938 -0.2760
14346TIP3   OH264452   4.845   4.958  16.648  0.3168 -0.2141 -0.0864
14346TIP3    H164453   4.805   5.022  16.589 -0.6598 -0.7687 -0.0380
14346TIP3    H264454   4.918   5.005  16.689  0.6593  0.3415 -1.3184
14347TIP3   OH264455   4.085   1.855  16.655  0.0697  0.1473 -0.0733
14347TIP3    H164456   4.065   1.817  16.569 -0.9339  2.8079 -1.0574
14347TIP3    H264457   4.000   1.879  16.691  0.5769  0.1402  1.1517
14348TIP3   OH264458   0.323   1.112   6.078  0.2611 -0.0007  0.0503
14348TIP3    H164459   0.283   1.025   6.090  0.3537 -0.1408 -0.6401
14348TIP3    H264460   0.375   1.125   6.157  0.1209 -0.5048  0.2331
14349TIP3   OH264461   6.469   6.591   0.482 -0.3353  0.1978  0.0392
14349TIP3    H164462   6.557   6.564   0.459 -0.0233  2.6395 -1.7278
14349TIP3    H264463   6.412   6.530   0.435  0.3572 -1.0377  0.7590
14350TIP3   OH264464   0.015   5.476  14.954 -0.1198  0.4142 -0.9872
14350TIP3    H164465   0.062   5.440  15.029  1.0757  2.8082 -0.5145
14350TIP3    H264466  -0.071   5.499  14.989  0.1457  0.7528 -0.5415
14351TIP3   OH264467   1.664   0.171  15.223 -0.4149 -0.3323 -0.3354
14351TIP3    H164468   1.679   0.171  15.318  0.3159  0.5600 -0.4341
14351TIP3    H264469   1.585   0.224  15.212 -0.3827 -0.2597 -0.2298
14352TIP3   OH264470   1.210   3.819   1.954 -0.3058 -0.2622 -0.5876
14352TIP3    H164471   1.132   3.866   1.925 -2.4626 -1.2490  3.3431
14352TIP3    H264472   1.213   3.741   1.898 -1.3692  0.4072 -1.6172
14353TIP3   OH264473   2.611   0.349  11.062  0.2664 -0.4051  0.0658
14353TIP3    H164474   2.649   0.424  11.016  1.3872  0.6525  2.6267
14353TIP3    H264475   2.532   0.383  11.103  0.1391 -0.9264  0.2606
14354TIP3   OH264476   0.444   4.935   3.426 -0.2365  0.4517 -0.4009
14354TIP3    H164477   0.432   5.011   3.482 -1.2615 -0.2291  0.3201
14354TIP3    H264478   0.514   4.961   3.365  1.6546  0.7827  1.8625
14355TIP3   OH264479   1.645   2.833  14.922 -0.3232  0.2486 -0.7110
14355TIP3    H164480   1.550   2.823  14.919 -0.4621  1.0981  0.4992
14355TIP3    H264481   1.677   2.750  14.956 -0.8551  0.9574  1.5877
14356TIP3   OH264482   3.721   1.345   6.451  0.5742 -0.1207 -0.0606
14356TIP3    H164483   3.720   1.396   6.533  0.6453  0.3635 -0.3591
14356TIP3    H264484   3.756   1.406   6.386  2.0032 -1.0105 -0.1234
14357TIP3   OH264485   2.816   2.777   2.064  0.2743  0.9371 -0.2214
14357TIP3    H164486   2.858   2.730   2.136  0.5969 -0.2347 -1.1516
14357TIP3    H264487   2.888   2.807   2.008 -0.0344  0.2329 -1.0201
14358TIP3   OH264488   4.441   4.610   6.006 -0.2950  0.1401  0.8504
14358TIP3    H164489   4.465   4.524   6.042  3.0724  0.1135 -1.2079
14358TIP3    H264490   4.419   4.662   6.083 -2.3191 -2.4941  2.1477
14359TIP3   OH264491   5.603   1.030  11.273 -0.1353 -0.1323  0.5821
14359TIP3    H164492   5.539   1.036  11.202 -0.3361 -2.5008  0.5307
14359TIP3    H264493   5.603   1.117  11.313 -0.8860  0.8831 -1.5619
14360TIP3   OH264494   1.327   2.027  14.831  1.0856  0.1903 -1.1973
14360TIP3    H164495   1.271   2.090  14.878  0.6765  0.9518 -2.6712
14360TIP3    H264496   1.400   2.011  14.891 -1.8765 -2.7304  1.8418
14361TIP3   OH264497   1.787   5.076  16.517 -0.1784  0.4681  0.2599
14361TIP3    H164498   1.876   5.042  16.521 -0.1969  0.4095  0.1765
14361TIP3    H264499   1.747   5.052  16.601 -1.3048 -2.8000 -1.1436
14362TIP3   OH264500   2.532   2.792   4.272 -0.2166  0.0381  0.2937
14362TIP3    H164501   2.489   2.874   4.294  0.0708  0.6862 -1.4249
14362TIP3    H264502   2.489   2.764   4.191  1.1408 -0.3666 -0.3060
14363TIP3   OH264503   4.735   5.011   4.628 -0.2254 -0.2977  0.7958
14363TIP3    H164504   4.673   5.061   4.682  0.3972 -0.0872  1.3282
14363TIP3    H264505   4.791   4.966   4.691  0.5497 -0.0044  0.3251
14364TIP3   OH264506   0.260   4.789  15.511 -0.2694 -0.0584 -0.2318
14364TIP3    H164507   0.250   4.738  15.591  0.6313  1.1574  0.6668
14364TIP3    H264508   0.170   4.800  15.479 -0.6724 -0.2105  0.8264
14365TIP3   OH264509   3.722   0.025   4.608 -0.5059  0.1505  0.2231
14365TIP3    H164510   3.771   0.073   4.542  0.1537  0.6313  1.0599
14365TIP3    H264511   3.785  -0.035   4.647 -0.3707  1.3035  1.8305
14366TIP3   OH264512   3.902   2.542  14.912 -0.6428  0.2881 -0.2328
14366TIP3    H164513   3.951   2.528  14.830 -0.4276 -2.4525  0.3115
14366TIP3    H264514   3.960   2.595  14.966  1.0223 -1.4339 -0.2814
14367TIP3   OH264515   2.440   6.191  15.475 -0.2880  0.0645 -0.2463
14367TIP3    H164516   2.458   6.202  15.382 -1.0077 -0.9766 -0.5163
14367TIP3    H264517   2.504   6.126  15.504  1.0291  1.5790  0.3707
14368TIP3   OH264518   6.008   0.762   4.139  0.1815 -0.5762  0.6672
14368TIP3    H164519   5.931   0.710   4.163 -0.4509  0.3469  0.6548
14368TIP3    H264520   6.067   0.753   4.215  0.5049 -2.1215  0.2368
14369TIP3   OH264521   0.548   4.280   1.449 -0.3764  0.6369  0.5498
14369TIP3    H164522   0.562   4.186   1.442  0.5889  0.7572  0.8356
14369TIP3    H264523   0.490   4.301   1.376 -0.6393 -0.1873  0.5222
14370TIP3   OH264524   0.404   3.117  14.221  0.3224 -0.3301  0.3285
14370TIP3    H164525   0.431   3.131  14.130  0.5567 -0.5445  0.3651
14370TIP3    H264526   0.386   3.023  14.226 -1.0531 -0.0862  0.1395
14371TIP3   OH264527   1.574   2.830   5.924 -0.2063  0.4849  0.0362
14371TIP3    H164528   1.490   2.874   5.909  0.4250  1.8117  0.3874
14371TIP3    H264529   1.596   2.852   6.014 -0.1344 -0.9912  0.3937
14372TIP3   OH264530   1.026   2.469  16.662 -0.2364 -0.2623 -0.2728
14372TIP3    H164531   1.009   2.500  16.751  0.3900 -0.9263  0.0895
14372TIP3    H264532   1.028   2.373  16.671 -1.8562 -0.4097 -1.3036
14373TIP3   OH264533   3.775   0.994  12.883 -0.0297 -0.1428 -0.0818
14373TIP3    H164534   3.763   0.904  12.853  0.3691 -0.5480  0.9404
14373TIP3    H264535   3.864   1.017  12.856 -0.6892  0.5259 -1.7665
14374TIP3   OH264536   3.608   0.793   2.465 -0.4677 -0.1353 -0.0736
14374TIP3    H164537   3.527   0.830   2.500  0.0523  1.9024 -0.9943
14374TIP3    H264538   3.678   0.841   2.509  0.2413 -0.6483 -0.6229
14375TIP3   OH264539   0.766   1.782   5.083  0.6997  0.1270  0.5724
14375TIP3    H164540   0.815   1.824   5.154  3.7116  0.1991 -1.4612
14375TIP3    H264541   0.736   1.855   5.029  3.5288 -0.0707 -1.4122
14376TIP3   OH264542   1.718   2.291  15.807  0.0555  0.2955  0.1581
14376TIP3    H164543   1.776   2.233  15.856  1.0379  1.4659  0.4051
14376TIP3    H264544   1.748   2.282  15.716  0.4751  0.7207  0.2532
14377TIP3   OH264545   0.550   4.502  11.927 -0.0335  0.0866  0.2642
14377TIP3    H164546   0.578   4.468  12.012 -2.5439 -1.1875  0.6342
14377TIP3    H264547   0.627   4.545  11.891  2.1243 -2.6278  1.5440
14378TIP3   OH264548   0.136   2.745   1.885 -0.1571 -0.5514 -0.4674
14378TIP3    H164549   0.159   2.669   1.831 -0.4296  0.0349 -1.4285
14378TIP3    H264550   0.118   2.708   1.971 -2.2506 -1.8528 -1.4100
14379TIP3   OH264551   6.666   5.908   3.968 -0.1944 -0.6553 -0.0031
14379TIP3    H164552   6.703   5.826   3.936  0.4793 -0.8528  1.2395
14379TIP3    H264553   6.701   5.976   3.910  1.7769 -0.8909  0.8764
14380TIP3   OH264554   5.090   1.349   3.519  0.6139 -0.4907  0.3515
14380TIP3    H164555   5.152   1.279   3.537  0.2853 -0.5056  1.4764
14380TIP3    H264556   5.045   1.364   3.602 -2.0667 -1.6267 -0.8204
14381TIP3   OH264557   3.318   6.226  13.727  0.5071  0.4271  0.1695
14381TIP3    H164558   3.329   6.262  13.639  0.5204  3.3552  1.3171
14381TIP3    H264559   3.397   6.175  13.742 -0.4585 -1.9290 -2.3111
14382TIP3   OH264560   6.552   6.715  16.736 -0.2508 -0.0724 -0.0235
14382TIP3    H164561   6.586   6.694  16.649 -1.7682 -2.2970 -0.1048
14382TIP3    H264562   6.462   6.744  16.720 -0.7991 -1.2599  0.8648
14383TIP3   OH264563   2.692   1.253   1.537  0.1997 -0.6405  0.0310
14383TIP3    H164564   2.626   1.310   1.498  1.9886  0.4930 -1.4094
14383TIP3    H264565   2.670   1.165   1.506 -1.7177 -0.5480  1.0899
14384TIP3   OH264566   0.627   5.342   1.444 -0.0904  0.1749 -0.1763
14384TIP3    H164567   0.543   5.300   1.426  0.7260 -2.0963  1.0848
14384TIP3    H264568   0.666   5.356   1.358 -1.4785  0.6395 -0.7347
14385TIP3   OH264569   2.266   0.493   5.768 -0.2781  0.2355 -0.0425
14385TIP3    H164570   2.171   0.486   5.778 -0.2156  1.4623  1.4750
14385TIP3    H264571   2.296   0.402   5.766 -1.2479 -0.1415  1.7697
14386TIP3   OH264572   2.574   6.711  11.824 -0.2597 -0.0374 -0.0427
14386TIP3    H164573   2.601   6.619  11.823  0.5786  0.2099 -0.9761
14386TIP3    H264574   2.651   6.759  11.793  0.2182  1.2413  2.9241
14387TIP3   OH264575   0.940   2.136   1.019 -0.1918  0.5274  0.4747
14387TIP3    H164576   0.872   2.141   1.086  0.6138 -0.9627  1.4183
14387TIP3    H264577   0.893   2.118   0.937 -0.9964  0.4049  0.9619
14388TIP3   OH264578   0.502   4.806   5.711  0.2814  0.5136  0.0133
14388TIP3    H164579   0.472   4.828   5.623  0.5409 -1.5908 -0.6426
14388TIP3    H264580   0.587   4.763   5.697  0.3699  0.2601  1.2940
14389TIP3   OH264581   5.934   6.598   4.450  0.7122 -0.1739  0.7235
14389TIP3    H164582   5.995   6.672   4.446  1.1130 -0.4792  1.0874
14389TIP3    H264583   5.894   6.595   4.363  1.7747 -0.4482  0.2426
14390TIP3   OH264584   0.809   2.527   4.165 -0.8100  1.1698 -0.6198
14390TIP3    H164585   0.878   2.578   4.123  0.1702  1.7682  1.6795
14390TIP3    H264586   0.769   2.587   4.228 -0.7930 -0.3607  0.8876
14391TIP3   OH264587   4.339   3.644  15.019 -0.1673  0.6364 -0.5021
14391TIP3    H164588   4.287   3.724  15.014  0.1807  0.9445  0.6591
14391TIP3    H264589   4.279   3.579  15.053 -0.2655  0.5579 -0.8182
14392TIP3   OH264590   3.811   5.032  16.121  0.0889  0.2269  0.2220
14392TIP3    H164591   3.866   5.007  16.046 -0.5623 -1.4187  0.2604
14392TIP3    H264592   3.820   5.127  16.127  2.3469  0.0681 -0.2311
14393TIP3   OH264593   0.998   0.256  12.391  0.0414  0.5748 -0.2714
14393TIP3    H164594   0.908   0.223  12.391  0.0394  0.5801 -0.2709
14393TIP3    H264595   1.011   0.288  12.301 -0.0465  0.8222 -0.1977
14394TIP3   OH264596   6.177   4.187   0.738  0.2345 -0.0243 -0.4414
14394TIP3    H164597   6.221   4.117   0.691  0.5000  0.7017 -1.2818
14394TIP3    H264598   6.083   4.170   0.724  0.2923 -0.4033 -0.3587
14395TIP3   OH264599   0.579   6.374  15.797  0.7933  0.0576  0.5354
14395TIP3    H164600   0.619   6.292  15.824 -0.5323 -0.9142 -0.3876
14395TIP3    H264601   0.653   6.434  15.787  1.8898 -1.3090  0.2058
14396TIP3   OH264602   1.803   6.581   1.565  0.0865  0.2114  0.2832
14396TIP3    H164603   1.850   6.615   1.489  2.4129  1.5140  2.2280
14396TIP3    H264604   1.714   6.616   1.556  0.8727  1.9953 -0.8180
14397TIP3   OH264605   0.828   1.741   3.120 -0.2491 -0.5363  0.0722
14397TIP3    H164606   0.790   1.682   3.184  0.1281  0.1614  0.9557
14397TIP3    H264607   0.864   1.813   3.172 -2.5031  1.5113 -1.0945
14398TIP3   OH264608   5.859   6.022   0.206 -0.0406 -0.0137 -0.3423
14398TIP3    H164609   5.857   5.959   0.134  0.7836  0.0514 -0.4265
14398TIP3    H264610   5.862   5.968   0.285  0.3828 -0.0827 -0.4050
14399TIP3   OH264611   0.245   0.465  15.502  0.2678  0.5221 -0.4095
14399TIP3    H164612   0.168   0.475  15.446 -0.0749 -1.4521 -0.3456
14399TIP3    H264613   0.276   0.376  15.484  1.2130  0.5003  1.2160
14400TIP3   OH264614   0.114   3.003   2.033 -0.5347  0.8397  0.8244
14400TIP3    H164615   0.068   2.948   1.969  1.2344  0.5501 -0.2220
14400TIP3    H264616   0.073   2.981   2.117  0.3724 -2.3424  0.4784
14401TIP3   OH264617   3.717   2.612   3.110 -0.1722 -0.6416 -0.1649
14401TIP3    H164618   3.711   2.549   3.037 -0.6160 -2.5907  1.4925
14401TIP3    H264619   3.705   2.697   3.069 -1.3783 -1.7670 -2.2614
14402TIP3   OH264620   0.258   5.166   3.129 -0.1596  0.2540  0.2248
14402TIP3    H164621   0.350   5.188   3.144  0.7993 -2.6972 -0.9813
14402TIP3    H264622   0.254   5.140   3.038 -1.8717 -1.2818  0.7124
14403TIP3   OH264623   5.894   6.449   1.767  0.2972 -0.5005 -0.8689
14403TIP3    H164624   5.801   6.438   1.748  0.2905 -1.1656 -0.4639
14403TIP3    H264625   5.936   6.372   1.728  0.3039 -1.7883  1.5680
14404TIP3   OH264626   4.973   4.864   3.213 -0.8833  0.6005  0.6585
14404TIP3    H164627   4.959   4.863   3.307  1.8137 -0.7891  1.0882
14404TIP3    H264628   5.004   4.952   3.194  1.4883 -0.0023  1.5776
14405TIP3   OH264629   1.563   1.576  16.487  0.4890 -0.4610 -0.0954
14405TIP3    H164630   1.564   1.484  16.459 -2.0042 -0.6181  0.2400
14405TIP3    H264631   1.655   1.597  16.503  0.9086 -3.5102  1.8090
14406TIP3   OH264632   0.077   2.522   6.261 -0.3533 -0.4454 -0.4248
14406TIP3    H164633   0.152   2.517   6.201 -0.2144  0.4721 -0.3481
14406TIP3    H264634   0.045   2.433   6.268  1.0253 -0.9295 -0.0993
14407TIP3   OH264635   5.779   4.430   6.095 -0.2516 -0.0714  0.0457
14407TIP3    H164636   5.727   4.482   6.034  0.4933  1.5706  0.7647
14407TIP3    H264637   5.728   4.430   6.176 -0.7634 -1.3928 -0.2714
14408TIP3   OH264638   6.484   2.273   6.225  0.0893 -0.7603  0.7276
14408TIP3    H164639   6.467   2.209   6.155 -0.3079 -0.8944  0.9435
14408TIP3    H264640   6.576   2.295   6.215 -0.0662 -0.4496 -0.1137
14409TIP3   OH264641   6.674   5.886   2.180  0.5055  0.6277 -0.1273
14409TIP3    H164642   6.589   5.847   2.162  0.2640  0.2286  1.7392
14409TIP3    H264643   6.730   5.813   2.203  0.8191  1.0729  0.5599
14410TIP3   OH264644   6.007   2.243  15.309  0.2412 -0.3835 -0.2785
14410TIP3    H164645   5.925   2.196  15.292  0.8126 -1.3609 -0.3204
14410TIP3    H264646   6.074   2.194  15.262  0.8996  0.2682 -0.0292
14411TIP3   OH264647   0.671   4.959  13.507  0.0048  0.7125  0.3055
14411TIP3    H164648   0.725   4.978  13.584  0.9033  0.9703 -0.3846
14411TIP3    H264649   0.624   4.879  13.530  2.3067 -0.7219  0.0659
14412TIP3   OH264650   6.094   3.650   3.966  0.0167 -0.9488 -0.1234
14412TIP3    H164651   6.074   3.728   4.019 -0.7765 -1.0682 -0.2528
14412TIP3    H264652   6.083   3.679   3.876 -0.2824 -1.2202 -0.1705
14413TIP3   OH264653   0.762   5.046  12.314  0.2091  0.3073  0.3944
14413TIP3    H164654   0.795   5.107  12.380  0.7254 -0.5287  0.9108
14413TIP3    H264655   0.840   5.010  12.273 -0.1068  0.4989 -0.3810
14414TIP3   OH264656   2.196   2.557  15.761  0.0750  0.3470 -0.1665
14414TIP3    H164657   2.172   2.547  15.853  1.0221  0.4343  0.0973
14414TIP3    H264658   2.193   2.469  15.725 -1.6127  0.4801 -0.3921
14415TIP3   OH264659   5.336   0.983   1.364 -0.1403  0.5374  0.6260
14415TIP3    H164660   5.417   1.009   1.319 -0.4542  0.3168 -0.0691
14415TIP3    H264661   5.335   1.036   1.444  0.1839  1.2738  0.1506
14416TIP3   OH264662   5.974   0.408   4.648 -0.1970 -0.0417 -0.0118
14416TIP3    H164663   5.964   0.313   4.651  0.7264 -0.1761 -0.8025
14416TIP3    H264664   5.966   0.435   4.739  0.6184 -1.0074  0.3598
14417TIP3   OH264665   2.227   2.589   4.989 -0.0309 -0.0947 -0.5512
14417TIP3    H164666   2.309   2.624   4.954 -0.0996  0.5551 -0.0799
14417TIP3    H264667   2.248   2.499   5.014  0.7981  0.3422  0.3992
14418TIP3   OH264668   0.492   4.624   1.449 -0.4766 -0.4145 -0.6768
14418TIP3    H164669   0.473   4.571   1.372 -0.9763 -0.5913 -0.4434
14418TIP3    H264670   0.408   4.665   1.471 -0.4964 -0.8504  0.1225
14419TIP3   OH264671   1.211   2.666   2.372 -0.3530  0.5441 -0.7602
14419TIP3    H164672   1.254   2.607   2.434 -1.8091 -0.7383 -0.9479
14419TIP3    H264673   1.225   2.753   2.410  1.8650  0.1168 -0.5130
14420TIP3   OH264674   5.925   2.728  12.687 -0.3707  0.0543  0.1473
14420TIP3    H164675   5.945   2.810  12.642 -1.4076 -0.4123 -1.2333
14420TIP3    H264676   5.843   2.698  12.646 -0.4092 -1.2714  1.1580
14421TIP3   OH264677   1.242   2.741   4.339  0.6435  0.3291  0.3040
14421TIP3    H164678   1.170   2.708   4.392  0.8296 -1.1237 -0.3216
14421TIP3    H264679   1.217   2.831   4.318 -0.1640  0.4076  1.5246
14422TIP3   OH264680   6.463   6.369  10.912  0.6886  0.0108 -0.5765
14422TIP3    H164681   6.374   6.357  10.945  0.7165 -0.9249 -0.8370
14422TIP3    H264682   6.460   6.452  10.864  0.0719  0.2055 -0.1954
14423TIP3   OH264683   5.928   5.218  10.641  0.3350 -0.3421  0.1886
14423TIP3    H164684   5.942   5.297  10.693 -0.4593 -0.4825  0.6154
14423TIP3    H264685   5.834   5.202  10.645  0.4490 -1.1479 -0.1342
14424TIP3   OH264686   5.581   5.187  14.516  0.0073  0.2744 -0.1125
14424TIP3    H164687   5.511   5.252  14.527 -0.4640 -0.0224 -1.2473
14424TIP3    H264688   5.555   5.115  14.573 -0.1638  0.5248  0.1329
14425TIP3   OH264689   4.020   4.835   0.092  0.2030  0.1828 -0.7899
14425TIP3    H164690   4.100   4.783   0.089 -0.3567 -0.8344  1.2622
14425TIP3    H264691   3.991   4.829   0.183 -0.6406  2.9324 -0.8480
14426TIP3   OH264692   3.189   6.561  13.661 -0.2125  0.5449  0.1934
14426TIP3    H164693   3.111   6.521  13.624 -0.9066  1.7339  0.3524
14426TIP3    H264694   3.163   6.651  13.682  0.7576  0.5189  1.6226
14427TIP3   OH264695   2.333   6.263   5.027  0.1160  0.2015  0.3094
14427TIP3    H164696   2.403   6.203   5.052 -0.6478 -0.1541  1.6404
14427TIP3    H264697   2.286   6.281   5.109 -0.6900  1.2777 -0.3785
14428TIP3   OH264698   2.834   4.621  13.270  0.6615 -0.1457 -0.3532
14428TIP3    H164699   2.859   4.554  13.334  0.9069  1.7130  1.5655
14428TIP3    H264700   2.751   4.656  13.303  0.5935  0.5670 -1.2677
14429TIP3   OH264701   5.935   1.363  15.414  0.2770  1.0494  0.5749
14429TIP3    H164702   5.864   1.396  15.359  0.7734  2.2316  0.6264
14429TIP3    H264703   5.894   1.345  15.498 -0.0156  1.5558  0.5468
14430TIP3   OH264704   1.568   2.909  10.777 -0.5375 -0.2332 -0.4183
14430TIP3    H164705   1.577   2.977  10.711 -2.5191  0.8283  0.3699
14430TIP3    H264706   1.475   2.887  10.776 -0.3348 -1.2005  1.0281
14431TIP3   OH264707   2.478   4.897  12.687 -0.3950 -0.0993 -0.0264
14431TIP3    H164708   2.537   4.898  12.763  0.4137  1.0412 -0.6459
14431TIP3    H264709   2.399   4.942  12.717  0.8242  2.5043 -0.5185
14432TIP3   OH264710   6.318   5.491  14.906  0.4331 -0.2362 -0.1889
14432TIP3    H164711   6.257   5.547  14.858  0.7370 -1.0572 -1.5713
14432TIP3    H264712   6.263   5.424  14.946  0.2461  0.0801  0.0877
14433TIP3   OH264713   0.682   2.524   1.669 -0.2911 -0.3919  0.1505
14433TIP3    H164714   0.676   2.480   1.584 -0.0140  0.4991 -0.3317
14433TIP3    H264715   0.733   2.464   1.723  2.6777  0.6654 -1.3832
14434TIP3   OH264716   0.520   1.619   4.390 -0.1560 -0.1635  0.3627
14434TIP3    H164717   0.496   1.677   4.463 -1.6949  1.1711 -1.1553
14434TIP3    H264718   0.541   1.679   4.318 -2.9862 -1.4468 -1.6174
14435TIP3   OH264719   1.739   4.727   1.809  0.2001 -0.0918  0.5970
14435TIP3    H164720   1.758   4.655   1.748  1.3144  0.5960  0.1151
14435TIP3    H264721   1.725   4.803   1.752 -1.3258  0.0018  1.0885
14436TIP3   OH264722   2.495   5.666  12.527 -0.1727 -0.1875 -0.5049
14436TIP3    H164723   2.487   5.710  12.442 -0.6698  0.3049 -0.2108
14436TIP3    H264724   2.484   5.736  12.591  0.4608 -0.5167 -0.0307
14437TIP3   OH264725   1.694   1.567   1.348 -0.1653  0.0536  0.3208
14437TIP3    H164726   1.756   1.627   1.307 -0.6930  0.2602 -0.2020
14437TIP3    H264727   1.631   1.547   1.278 -0.2217 -0.7921  0.6057
14438TIP3   OH264728   1.826   3.262   4.981  0.0559 -0.0537 -0.5219
14438TIP3    H164729   1.858   3.187   5.032  1.1518  1.0527  0.4315
14438TIP3    H264730   1.851   3.241   4.891  1.6360 -0.1977 -0.0771
14439TIP3   OH264731   3.286   0.356   4.976 -0.3703 -0.0745 -0.1566
14439TIP3    H164732   3.274   0.389   4.887  0.4311  0.0906 -0.2039
14439TIP3    H264733   3.236   0.274   4.978 -0.6391  0.0761 -0.6657
14440TIP3   OH264734   2.956   0.150   1.593 -0.0290 -0.0677 -0.2072
14440TIP3    H164735   2.909   0.070   1.572 -1.8429  1.0703 -0.6250
14440TIP3    H264736   2.911   0.185   1.671  1.7434 -0.2652  0.9375
14441TIP3   OH264737   6.378   0.822   5.530  0.3054  0.4176 -0.3108
14441TIP3    H164738   6.401   0.729   5.542 -0.3809 -0.0718 -2.5375
14441TIP3    H264739   6.419   0.845   5.446 -1.1458  1.5944 -0.7003
14442TIP3   OH264740   4.169   2.971  15.563  0.3215 -0.3984 -0.0215
14442TIP3    H164741   4.189   2.894  15.615 -1.6594  0.1263  1.5842
14442TIP3    H264742   4.101   2.942  15.502  1.6563 -0.6467 -1.4464
14443TIP3   OH264743   1.412   3.864  15.160  0.2414 -0.2047 -0.1792
14443TIP3    H164744   1.425   3.920  15.083  1.8145 -0.3410 -0.0271
14443TIP3    H264745   1.318   3.868  15.177 -0.2126 -0.5992 -2.4469
14444TIP3   OH264746   0.209   3.500   0.495 -0.4209 -0.8637  0.5094
14444TIP3    H164747   0.236   3.514   0.586 -2.4258 -1.0869  1.1651
14444TIP3    H264748   0.200   3.405   0.487 -4.4036 -0.6538  1.3900
14445TIP3   OH264749   5.577   1.312   1.292  0.4323 -0.1719 -0.1266
14445TIP3    H164750   5.535   1.344   1.212  1.1816 -0.6905 -0.7375
14445TIP3    H264751   5.654   1.368   1.303  0.2057  0.0463  0.3593
14446TIP3   OH264752   2.856   4.452  11.315 -0.2141  0.7545  0.5292
14446TIP3    H164753   2.821   4.373  11.274 -1.1040  1.8635 -0.8845
14446TIP3    H264754   2.851   4.434  11.409  0.0270 -1.0478  0.2147
14447TIP3   OH264755   3.133   5.659  16.149 -0.2122  0.3295  0.2674
14447TIP3    H164756   3.182   5.640  16.069  0.1496 -0.5426  0.6871
14447TIP3    H264757   3.137   5.578  16.200 -1.2564  0.5630  0.7447
14448TIP3   OH264758   0.432   6.229   1.391 -0.2172 -0.1527 -0.2494
14448TIP3    H164759   0.405   6.201   1.303  0.4820  1.9491 -1.1744
14448TIP3    H264760   0.364   6.292   1.418  0.5870  0.6514 -0.0933
14449TIP3   OH264761   3.379   3.051   4.154  0.2512  0.0213 -0.9362
14449TIP3    H164762   3.284   3.051   4.138  0.4937 -0.8122 -2.4956
14449TIP3    H264763   3.389   3.008   4.239 -0.8055  0.5349 -0.5489
14450TIP3   OH264764   5.392   5.573  13.453 -0.0949  0.0517 -0.3479
14450TIP3    H164765   5.428   5.600  13.538 -2.3788  0.8048  0.4031
14450TIP3    H264766   5.430   5.635  13.390  0.3789  0.4730  0.3460
14451TIP3   OH264767   0.174   1.236  16.116 -0.6019 -0.5482  0.0522
14451TIP3    H164768   0.191   1.315  16.167  0.3418 -0.4610 -0.3707
14451TIP3    H264769   0.169   1.166  16.180  1.7103 -0.6179  0.2064
14452TIP3   OH264770   0.533   0.077   0.299  0.3038  0.4052 -0.2692
14452TIP3    H164771   0.490  -0.008   0.291  2.3174 -0.5510 -1.2936
14452TIP3    H264772   0.576   0.074   0.385  0.0078  0.5588 -0.1163
14453TIP3   OH264773   2.521   6.488   4.304 -0.1567 -0.0476 -0.1674
14453TIP3    H164774   2.476   6.447   4.378 -0.3913 -2.6880 -1.7186
14453TIP3    H264775   2.605   6.515   4.340 -0.1829 -1.4813  1.0359
14454TIP3   OH264776   0.285   2.475  16.103 -0.3776  0.2362 -0.6141
14454TIP3    H164777   0.218   2.543  16.108 -0.7141  0.0258 -1.9051
14454TIP3    H264778   0.331   2.493  16.021 -1.1173 -1.6536 -1.4764
14455TIP3   OH264779   2.019   2.116  13.058  0.4370  0.5085  0.3018
14455TIP3    H164780   2.037   2.024  13.039 -2.5338 -0.0448 -0.1612
14455TIP3    H264781   1.980   2.115  13.145  0.3322  1.3092  0.2628
14456TIP3   OH264782   0.257   3.173  13.787 -0.4875  0.5893 -0.1773
14456TIP3    H164783   0.234   3.093  13.741 -0.7377 -0.4834  1.7493
14456TIP3    H264784   0.182   3.231  13.773 -1.5551 -0.5481  0.7353
14457TIP3   OH264785   0.324   2.703  12.231  0.7456  0.1597  0.4135
14457TIP3    H164786   0.338   2.648  12.308 -1.2550  0.4225  0.9833
14457TIP3    H264787   0.403   2.756  12.225  1.5113 -0.8382  1.4707
14458TIP3   OH264788   4.755   0.627   5.487 -0.1786  0.1144  0.0676
14458TIP3    H164789   4.768   0.536   5.513 -0.6349 -0.3266 -1.2230
14458TIP3    H264790   4.763   0.677   5.569 -0.0034 -1.0820  0.7881
14459TIP3   OH264791   3.529   6.358   4.541  0.3449  1.2064 -0.1021
14459TIP3    H164792   3.585   6.433   4.521 -0.3407  1.4861 -1.0201
14459TIP3    H264793   3.451   6.396   4.581 -0.9554  1.1978 -2.5652
14460TIP3   OH264794   5.365   0.861  15.957  0.8706  0.2873 -0.4619
14460TIP3    H164795   5.418   0.787  15.928 -2.0758 -2.4273  0.7988
14460TIP3    H264796   5.299   0.872  15.889 -0.1826  0.1564  0.5262
14461TIP3   OH264797   3.883   2.775  12.389 -0.0496  0.0240  0.1818
14461TIP3    H164798   3.855   2.848  12.335 -1.4420 -1.5750 -1.3259
14461TIP3    H264799   3.971   2.755  12.360  0.1372  0.7664  0.2409
14462TIP3   OH264800   5.514   1.570   0.408  0.6949 -0.0015  0.3909
14462TIP3    H164801   5.583   1.624   0.371  0.8068 -2.4346 -3.1697
14462TIP3    H264802   5.560   1.496   0.448  0.2700 -0.9945 -0.9104
14463TIP3   OH264803   3.945   3.924   2.193 -0.3850  0.9100 -0.0181
14463TIP3    H164804   4.031   3.959   2.170 -0.4028  1.1194  0.2249
14463TIP3    H264805   3.965   3.844   2.241 -0.3061  1.2624  0.5472
14464TIP3   OH264806   5.323   6.331   6.354  0.1009  1.0293  0.0443
14464TIP3    H164807   5.362   6.246   6.373 -0.3540  0.1856 -2.5199
14464TIP3    H264808   5.252   6.311   6.293 -1.7905  2.9739  1.5333
14465TIP3   OH264809   0.714   3.035  14.497 -0.2894 -0.2038 -0.8208
14465TIP3    H164810   0.624   3.065  14.499  0.2297  1.3759 -0.2315
14465TIP3    H264811   0.749   3.065  14.413  0.6052  2.0130  0.3195
14466TIP3   OH264812   0.351   5.494  15.369 -0.4066 -0.1103 -0.2738
14466TIP3    H164813   0.430   5.516  15.319 -0.6085 -0.2851 -0.6794
14466TIP3    H264814   0.347   5.560  15.438  0.9770 -1.0611  0.7459
14467TIP3   OH264815   6.194   3.854   1.013 -0.4158 -0.3200  0.4643
14467TIP3    H164816   6.192   3.881   0.921  1.6836  0.3932  0.5965
14467TIP3    H264817   6.152   3.926   1.060 -2.6747 -1.2706 -0.0359
14468TIP3   OH264818   1.084   3.753  12.900  0.1867 -0.2512  0.4011
14468TIP3    H164819   1.138   3.784  12.973  0.1029  0.7559  0.0480
14468TIP3    H264820   1.079   3.828  12.841  0.1650 -1.0191 -0.5950
14469TIP3   OH264821   5.096   6.346  13.947  0.3146 -1.0967  0.3491
14469TIP3    H164822   5.112   6.323  14.039  0.1534  1.4254  1.0403
14469TIP3    H264823   5.175   6.393  13.921 -1.1735  1.4606  0.3359
14470TIP3   OH264824   3.315   4.855  16.250 -0.2375  0.2018 -0.0266
14470TIP3    H164825   3.357   4.900  16.323  0.2429  1.3946 -1.0273
14470TIP3    H264826   3.353   4.894  16.172 -0.1382 -1.6413 -0.9289
14471TIP3   OH264827   1.813   2.710   4.831  0.6716 -0.7666 -0.5765
14471TIP3    H164828   1.809   2.773   4.903  0.8222 -2.4702  0.9575
14471TIP3    H264829   1.889   2.737   4.779 -0.2292  1.2602 -0.8733
14472TIP3   OH264830   4.965   4.271  12.166 -0.0497 -0.6776  0.3934
14472TIP3    H164831   4.984   4.271  12.072 -1.6608  1.8234  0.0233
14472TIP3    H264832   4.895   4.206  12.176  1.8147 -2.7593  0.2808
14473TIP3   OH264833   2.011   2.069  15.581  0.3201  0.4461 -0.3496
14473TIP3    H164834   2.058   2.104  15.506  1.8721  1.1543  0.9325
14473TIP3    H264835   2.041   2.122  15.655  0.0404 -1.3068  1.0358
14474TIP3   OH264836   5.259   0.683  16.532  0.0372  0.1699  0.9428
14474TIP3    H164837   5.337   0.688  16.587  0.8813 -0.7860 -0.1301
14474TIP3    H264838   5.293   0.682  16.442 -0.9292 -3.7504  0.5150
14475TIP3   OH264839   0.467   5.218   6.026 -0.1199  0.2304  0.1335
14475TIP3    H164840   0.460   5.210   5.931 -0.1829  1.0144  0.0720
14475TIP3    H264841   0.426   5.138   6.060  0.7374 -0.4976 -0.5217
14476TIP3   OH264842   1.400   1.459  12.828 -0.4417  0.1863 -0.0203
14476TIP3    H164843   1.434   1.380  12.870  0.0901 -0.3912 -1.5062
14476TIP3    H264844   1.353   1.427  12.751  0.3232  1.3431 -0.9809
14477TIP3   OH264845   6.376   6.502   5.237  0.2184 -0.0491 -0.0116
14477TIP3    H164846   6.364   6.408   5.222  0.9081 -0.3006  0.9270
14477TIP3    H264847   6.425   6.507   5.319  0.9608  1.1018 -0.5087
14478TIP3   OH264848   1.698   2.337   3.928  0.4133  0.1034 -0.2485
14478TIP3    H164849   1.607   2.334   3.956 -0.3845 -0.4281 -2.7585
14478TIP3    H264850   1.736   2.410   3.977 -1.0454 -0.3744  1.6474
14479TIP3   OH264851   5.513   1.901  13.616  0.7954  0.0002 -0.2128
14479TIP3    H164852   5.430   1.940  13.646 -0.0728 -2.1860  0.3274
14479TIP3    H264853   5.568   1.900  13.694  0.8976  0.3562 -0.2805
14480TIP3   OH264854   1.817   5.237  11.475 -0.0364  0.5570  0.0377
14480TIP3    H164855   1.822   5.333  11.481 -1.7148  0.6457  0.3502
14480TIP3    H264856   1.871   5.215  11.399 -0.6075  1.8700 -0.7690
14481TIP3   OH264857   4.052   0.777   4.912 -0.1095  0.1032  0.2419
14481TIP3    H164858   4.146   0.770   4.928  0.3204  2.0837 -1.2162
14481TIP3    H264859   4.045   0.818   4.826 -2.2992  1.2446  0.9037
14482TIP3   OH264860   4.747   1.452  12.528 -0.1212 -0.5846  0.1157
14482TIP3    H164861   4.718   1.375  12.479  2.3203 -0.4084 -1.6599
14482TIP3    H264862   4.787   1.415  12.607  0.8490 -1.1437 -0.6280
14483TIP3   OH264863   0.974   6.386   4.892  0.1998  0.2188 -0.9810
14483TIP3    H164864   0.983   6.361   4.800  0.7715 -0.5813 -0.7244
14483TIP3    H264865   1.039   6.331   4.937 -0.5389  0.1260 -0.0236
14484TIP3   OH264866   5.757   4.627   4.405 -0.1037  0.8272 -0.2792
14484TIP3    H164867   5.783   4.557   4.345  0.0441 -0.3746  1.1507
14484TIP3    H264868   5.672   4.656   4.373 -0.4105 -0.3739 -0.5636
14485TIP3   OH264869   3.319   5.679   4.646  0.0866 -0.5137  0.2379
14485TIP3    H164870   3.378   5.754   4.652  1.3049 -1.5730  2.2099
14485TIP3    H264871   3.375   5.603   4.664 -1.3889 -1.7809 -0.3788
14486TIP3   OH264872   3.945   6.160  11.982 -0.3379 -1.0884  0.4244
14486TIP3    H164873   3.912   6.245  12.012 -1.6871 -1.8156  1.0845
14486TIP3    H264874   3.959   6.110  12.063 -1.5959 -2.2066 -0.0244
14487TIP3   OH264875   4.434   0.686  16.152  0.5205 -0.5943  0.0092
14487TIP3    H164876   4.384   0.606  16.133  0.1872 -0.3764 -0.0434
14487TIP3    H264877   4.485   0.701  16.072 -0.3576 -0.0669 -0.4590
14488TIP3   OH264878   2.528   4.730  14.513 -0.0180  0.6461 -0.2491
14488TIP3    H164879   2.624   4.725  14.514  0.0053  0.3983 -1.7642
14488TIP3    H264880   2.500   4.655  14.565  0.6107  0.7196  0.2100
14489TIP3   OH264881   2.742   2.239   1.577  0.1944  0.1121  0.5312
14489TIP3    H164882   2.667   2.293   1.601 -0.3993 -1.1667  1.6177
14489TIP3    H264883   2.805   2.254   1.647  0.3995  0.1023  0.3501
14490TIP3   OH264884   2.420   0.903   4.992  0.1416  0.1026  0.3531
14490TIP3    H164885   2.431   0.837   4.923 -0.7073  0.9484 -0.6035
14490TIP3    H264886   2.507   0.941   5.002  0.0082  0.8618 -1.1746
14491TIP3   OH264887   3.598   0.401  17.203 -0.1660 -0.3817 -0.1225
14491TIP3    H164888   3.680   0.399  17.153 -0.0723 -1.1902  0.0440
14491TIP3    H264889   3.548   0.327  17.168  0.0204 -1.1369  1.1717
14492TIP3   OH264890   0.900   1.230   1.306 -0.7748  0.2926  0.2559
14492TIP3    H164891   0.926   1.273   1.224  0.1086  0.5911  0.6879
14492TIP3    H264892   0.947   1.278   1.374 -1.5852  0.1033  0.9486
14493TIP3   OH264893   5.671   5.173   1.778 -0.5747 -0.4247  0.6235
14493TIP3    H164894   5.700   5.094   1.824  1.6467  1.0968  1.9085
14493TIP3    H264895   5.642   5.232   1.848  0.4244  0.9548 -0.1159
14494TIP3   OH264896   2.020   6.693   0.804  0.3111 -0.7190  0.3390
14494TIP3    H164897   2.064   6.610   0.825 -1.4479 -1.5400  0.8957
14494TIP3    H264898   1.929   6.668   0.786 -0.1050  1.0286 -0.0929
14495TIP3   OH264899   6.549   3.155  16.493 -0.9615 -0.1134  0.4402
14495TIP3    H164900   6.580   3.066  16.510 -1.0328 -0.4911 -1.3184
14495TIP3    H264901   6.620   3.211  16.524  0.0158 -0.8671 -0.3775
14496TIP3   OH264902   6.509   3.328  13.690 -0.7895  0.3327 -0.0118
14496TIP3    H164903   6.534   3.419  13.674  0.0512 -0.0747 -1.0818
14496TIP3    H264904   6.580   3.292  13.744 -1.2237  0.3630  0.5865
14497TIP3   OH264905   0.803   5.848  15.070 -0.1113  0.0417 -0.4275
14497TIP3    H164906   0.884   5.797  15.067  0.6561  1.1971  0.4003
14497TIP3    H264907   0.796   5.876  15.161 -2.6582 -1.9667  0.0297
14498TIP3   OH264908   2.127   3.207  13.478  0.3462 -0.3176  0.2320
14498TIP3    H164909   2.133   3.303  13.476 -0.4787 -0.2509  0.6067
14498TIP3    H264910   2.037   3.190  13.506  1.1502 -1.1955  2.3898
14499TIP3   OH264911   0.428   2.007  15.120  0.3143 -0.5448 -0.0069
14499TIP3    H164912   0.437   2.099  15.095  0.4701 -0.6295 -0.2781
14499TIP3    H264913   0.475   1.960  15.051 -0.4555 -0.8809 -0.3075
14500TIP3   OH264914   2.668   1.966  15.750 -0.6660  0.3018 -0.6654
14500TIP3    H164915   2.709   1.971  15.836 -1.4196  0.1750 -0.2971
14500TIP3    H264916   2.583   2.007  15.761 -1.5845 -1.4903 -0.8300
14501TIP3   OH264917   5.678   0.808   2.353 -0.8764  0.4795 -0.1358
14501TIP3    H164918   5.683   0.902   2.371  1.4393  0.2886  0.4115
14501TIP3    H264919   5.588   0.794   2.322 -1.0350  2.9880 -0.9262
14502TIP3   OH264920   2.982   2.707  15.751 -0.4480 -0.4824 -0.6292
14502TIP3    H164921   2.904   2.744  15.794 -0.1196  2.2994 -2.2514
14502TIP3    H264922   2.948   2.664  15.673 -0.3846  1.1163 -1.5744
14503TIP3   OH264923   3.023   0.092   3.117  0.7689  0.2799 -0.4029
14503TIP3    H164924   2.983   0.085   3.203 -0.1581  0.0986 -0.8394
14503TIP3    H264925   3.022   0.003   3.082  0.8055  0.4152 -0.7545
14504TIP3   OH264926   1.966   5.198   3.623  0.0536 -0.1058  0.2059
14504TIP3    H164927   1.908   5.229   3.693 -0.4076 -2.3260  0.8561
14504TIP3    H264928   2.043   5.164   3.669 -0.2214 -1.5193 -0.3478
14505TIP3   OH264929   3.253   1.348   1.905  0.1562 -0.8161 -0.5130
14505TIP3    H164930   3.175   1.301   1.933  0.6632 -0.7364  1.1189
14505TIP3    H264931   3.235   1.440   1.924 -0.0205 -0.6026 -1.7294
14506TIP3   OH264932   0.225   2.576  13.849 -0.1923 -0.3047 -0.0052
14506TIP3    H164933   0.210   2.596  13.757 -0.3556 -1.0068 -0.1332
14506TIP3    H264934   0.174   2.641  13.897  0.7377  0.7369 -0.3894
14507TIP3   OH264935   1.216   5.530  11.009 -0.3783  0.1488 -0.0931
14507TIP3    H164936   1.221   5.436  11.029  1.1933  0.1737 -0.3518
14507TIP3    H264937   1.184   5.534  10.919  1.0050 -0.1796 -0.6032
14508TIP3   OH264938   2.798   6.685   4.654 -0.3438 -0.3467 -0.2363
14508TIP3    H164939   2.832   6.771   4.679  0.3842 -0.9800  1.0394
14508TIP3    H264940   2.706   6.700   4.632 -0.7692  0.4299  1.9650
14509TIP3   OH264941   5.018   3.590  14.681  0.0949 -0.2110 -0.8472
14509TIP3    H164942   4.958   3.597  14.607  0.7211  1.1264 -1.2329
14509TIP3    H264943   5.106   3.594  14.642  0.4462 -1.6449 -0.2392
14510TIP3   OH264944   2.634   1.001  10.707 -0.8057 -0.2274  0.4964
14510TIP3    H164945   2.678   0.981  10.625  1.8704  2.3376  1.2289
14510TIP3    H264946   2.666   0.933  10.768 -0.1638 -0.1428  0.2580
14511TIP3   OH264947   3.399   3.951   0.810 -0.1986 -0.4494 -0.0145
14511TIP3    H164948   3.356   3.894   0.745 -0.1666 -1.2434  0.6502
14511TIP3    H264949   3.372   3.914   0.894  1.3983 -0.6426  0.4119
14512TIP3   OH264950   0.775   5.254  12.540 -0.2471  0.2132 -0.1262
14512TIP3    H164951   0.688   5.271  12.506 -0.7209 -2.2920 -0.2773
14512TIP3    H264952   0.762   5.246  12.635 -0.3220 -0.7952 -0.2113
14513TIP3   OH264953   4.999   1.513   5.196  0.0654 -0.0468  0.0030
14513TIP3    H164954   4.939   1.563   5.251 -0.7811  0.3816 -1.2780
14513TIP3    H264955   4.942   1.465   5.135  0.9318 -1.3065  0.1528
14514TIP3   OH264956   1.195   5.774  14.150  0.1843  0.2648  0.0377
14514TIP3    H164957   1.165   5.765  14.059 -0.6721  0.6093  0.2766
14514TIP3    H264958   1.255   5.848  14.148  0.4096  0.0763 -0.3028
14515TIP3   OH264959   0.571   0.436  12.416  0.1006 -0.3322 -0.0474
14515TIP3    H164960   0.511   0.510  12.423  0.8515  0.1470  1.6156
14515TIP3    H264961   0.521   0.361  12.448 -0.4654 -0.4573 -1.1795
14516TIP3   OH264962   2.447   3.706  16.562 -0.9902 -0.3320  0.9712
14516TIP3    H164963   2.537   3.677  16.552 -0.7251  0.6829  0.2978
14516TIP3    H264964   2.417   3.724  16.473 -1.9008 -0.7634  1.1805
14517TIP3   OH264965   5.905   5.865  17.217  0.6329  0.0330  0.0647
14517TIP3    H164966   5.948   5.874  17.132 -0.5441 -0.6263 -0.6276
14517TIP3    H264967   5.814   5.844  17.195  0.5816 -1.3485  1.4982
14518TIP3   OH264968   0.822   2.934   4.979  0.0598 -0.2309  0.2174
14518TIP3    H164969   0.756   2.903   4.917 -2.1903 -0.1150  2.4709
14518TIP3    H264970   0.831   3.028   4.960 -1.0289 -0.0818  0.3953
14519TIP3   OH264971   3.069   6.103   5.614 -0.1085 -0.4457  0.3942
14519TIP3    H164972   3.150   6.124   5.661 -1.2507  0.1792  2.1556
14519TIP3    H264973   3.018   6.052   5.677 -1.3278 -0.3133 -0.4763
14520TIP3   OH264974   5.268   4.051  16.945  0.4610 -0.4030  0.1408
14520TIP3    H164975   5.296   4.048  17.037  2.6783  3.0643 -0.3242
14520TIP3    H264976   5.193   4.111  16.944  0.4045 -0.4787 -0.2951
14521TIP3   OH264977   1.095   2.011   6.171  0.2779  0.2137  0.2251
14521TIP3    H164978   1.024   2.043   6.227  0.3112  1.2237 -0.2883
14521TIP3    H264979   1.149   1.957   6.228  0.3468  1.2850  1.1793
14522TIP3   OH264980   1.704   0.323   4.546  0.0484  0.2712 -0.2880
14522TIP3    H164981   1.754   0.264   4.489  0.5798 -0.4343  0.9023
14522TIP3    H264982   1.613   0.295   4.535 -0.0056  0.9387 -1.7263
14523TIP3   OH264983   3.782   5.868   5.703 -0.3596  0.5599 -0.3003
14523TIP3    H164984   3.782   5.902   5.613  0.7116 -0.6400 -0.7635
14523TIP3    H264985   3.868   5.891   5.737 -0.3352 -0.0123  0.0250
14524TIP3   OH264986   0.707   1.517   5.807 -0.3578 -0.3524 -0.0058
14524TIP3    H164987   0.789   1.482   5.771  0.7085  2.9704 -1.0349
14524TIP3    H264988   0.645   1.512   5.734  0.0143  0.6230 -0.3896
14525TIP3   OH264989   3.899   1.239   4.031  0.5119 -0.6905 -0.1432
14525TIP3    H164990   3.933   1.232   3.941 -0.0626  1.9724 -0.6085
14525TIP3    H264991   3.847   1.319   4.031 -0.3392 -1.1955  2.3288
14526TIP3   OH264992   0.915   4.183  16.159 -0.1407 -0.4076  0.5426
14526TIP3    H164993   0.883   4.123  16.227 -2.8439 -0.2869 -0.5482
14526TIP3    H264994   0.912   4.132  16.078 -1.7459  0.9035 -0.2768
14527TIP3   OH264995   4.698   6.369  14.902 -0.6791 -0.2702 -0.7140
14527TIP3    H164996   4.784   6.327  14.909 -1.4944 -1.7763  0.6575
14527TIP3    H264997   4.716   6.463  14.912  0.5012 -0.7954  2.5346
14528TIP3   OH264998   5.190   1.745  14.366 -0.0830  0.2512 -0.3733
14528TIP3    H164999   5.232   1.824  14.399 -2.1193  0.3710  2.0944
14528TIP3    H265000   5.153   1.770  14.282  1.1633  1.3080 -0.6027
14529TIP3   OH265001   3.250   5.539  10.861  0.4690  0.5018  0.6584
14529TIP3    H165002   3.220   5.449  10.844  0.3863  0.7017 -0.3173
14529TIP3    H265003   3.173   5.583  10.897  0.6559  0.0534  1.6212
14530TIP3   OH265004   2.651   6.137  12.773  0.2380 -0.2785 -0.2503
14530TIP3    H165005   2.739   6.111  12.745  0.9061  0.9859  0.5769
14530TIP3    H265006   2.662   6.162  12.865 -0.2979  2.9708 -1.0045
14531TIP3   OH265007   3.429   5.780  10.586  0.4101  0.6058  0.1292
14531TIP3    H165008   3.344   5.824  10.579  0.2378  0.5584  1.7192
14531TIP3    H265009   3.446   5.748  10.498 -1.5133  0.0782 -0.0903
14532TIP3   OH265010   5.002   0.968  14.033  0.1144 -0.1765  0.3319
14532TIP3    H165011   4.913   0.980  14.067  0.0174  1.8740 -0.5892
14532TIP3    H265012   5.054   1.031  14.083  0.8975 -0.7655  0.2558
14533TIP3   OH265013   6.006   3.683  15.032  0.0907  0.3412 -0.4092
14533TIP3    H165014   5.984   3.722  14.947  0.6124 -2.2334 -1.7815
14533TIP3    H265015   5.946   3.608  15.040  1.4670 -0.6938  0.4981
14534TIP3   OH265016   0.330   5.790   4.650 -0.4938  0.2419 -0.5798
14534TIP3    H165017   0.411   5.823   4.688  0.5413 -1.3821 -1.3168
14534TIP3    H265018   0.261   5.844   4.688  1.0421  2.5560 -0.9903
14535TIP3   OH265019   0.175   4.698  11.404 -0.0099 -0.0847 -0.0950
14535TIP3    H165020   0.208   4.630  11.462  0.1489 -0.6805 -0.8813
14535TIP3    H265021   0.198   4.668  11.316  1.9131  1.9774 -0.3305
14536TIP3   OH265022   6.243   0.035  15.000  0.1591  0.0907 -0.8640
14536TIP3    H165023   6.296  -0.014  15.063 -0.3327  0.7684  0.0859
14536TIP3    H265024   6.154   0.003  15.015 -0.0089  0.5118 -0.9713
14537TIP3   OH265025   5.764   2.726   5.687 -0.4192  0.6875 -0.9301
14537TIP3    H165026   5.717   2.806   5.707 -0.0795  0.5981  0.2496
14537TIP3    H265027   5.850   2.738   5.728 -0.9610 -0.9869  0.7424
14538TIP3   OH265028   0.048   4.198  11.320 -0.2559  0.1318  0.4010
14538TIP3    H165029  -0.007   4.273  11.339  1.1317  0.7201  2.2864
14538TIP3    H265030   0.113   4.197  11.390  1.2983 -1.3338 -0.9867
14539TIP3   OH265031   1.025   4.038   6.456  0.6541 -0.6088 -0.1999
14539TIP3    H165032   1.073   4.111   6.417 -1.2899  0.9434  0.2167
14539TIP3    H265033   0.934   4.051   6.428 -0.2622 -1.1437  2.3430
14540TIP3   OH265034   2.370   2.309  13.616  0.7392  0.0080  0.2727
14540TIP3    H165035   2.346   2.364  13.541  2.2693 -1.7447 -1.5666
14540TIP3    H265036   2.422   2.366  13.672  0.2269  1.1306 -0.3749
14541TIP3   OH265037   4.125   0.444   4.988  0.5721 -0.5393  0.2099
14541TIP3    H165038   4.146   0.465   5.078  0.7025 -0.8280  0.2474
14541TIP3    H265039   4.190   0.491   4.936 -0.9596  1.6077  0.1267
14542TIP3   OH265040   2.060   2.404  14.204 -0.5721 -0.1628 -0.2750
14542TIP3    H165041   2.117   2.443  14.138  0.4240  0.3418  0.8729
14542TIP3    H265042   2.117   2.346  14.254 -1.1142  0.1490  0.7232
14543TIP3   OH265043   6.077   1.219   5.892  0.4685 -0.1229 -0.5518
14543TIP3    H165044   6.066   1.312   5.912 -1.9212 -0.4363 -0.2562
14543TIP3    H265045   6.092   1.178   5.978 -1.0074 -0.3168 -0.3695
14544TIP3   OH265046   3.285   0.388   1.048  0.3090 -0.4717 -0.1307
14544TIP3    H165047   3.272   0.413   0.957  0.6565  2.3473  0.5478
14544TIP3    H265048   3.379   0.373   1.057  0.5979  1.4481  0.2558
14545TIP3   OH265049   0.049   1.314  14.397  0.0921 -0.6908 -0.0419
14545TIP3    H165050   0.087   1.339  14.312 -0.6365  1.0916  0.1533
14545TIP3    H265051  -0.017   1.249  14.374  1.8707 -2.3944 -0.5631
14546TIP3   OH265052   5.013   2.109  11.763 -0.5775  0.3507 -0.5019
14546TIP3    H165053   5.051   2.195  11.784 -0.2132 -0.1512  0.9474
14546TIP3    H265054   4.919   2.121  11.773 -0.7820  1.3301 -3.1178
14547TIP3   OH265055   2.604   2.064   0.013  0.3163 -0.0355  0.1463
14547TIP3    H165056   2.511   2.086   0.008 -0.0991 -1.6187  0.4340
14547TIP3    H265057   2.622   2.059   0.107  0.6385  0.0414  0.0891
14548TIP3   OH265058   5.808   1.621  15.075 -0.2060 -0.6054  0.0446
14548TIP3    H165059   5.781   1.540  15.033  1.1898 -0.5099 -1.0836
14548TIP3    H265060   5.731   1.677  15.073 -0.4772 -1.0145 -1.3801
14549TIP3   OH265061   2.405   4.396   6.684  0.2469 -0.7330 -0.2803
14549TIP3    H165062   2.360   4.311   6.683 -0.4235 -0.4605  2.6712
14549TIP3    H265063   2.356   4.449   6.622 -0.2154 -2.0730 -1.0940
14550TIP3   OH265064   0.749   3.297  15.897 -0.0313  0.2360  0.3877
14550TIP3    H165065   0.805   3.219  15.890  0.9336  0.7364  2.2423
14550TIP3    H265066   0.688   3.276  15.968  1.0778  1.6633  1.7876
14551TIP3   OH265067   4.792   0.764  12.453 -0.0651 -0.1292 -0.2491
14551TIP3    H165068   4.800   0.672  12.475 -0.0003 -0.5906 -2.0887
14551TIP3    H265069   4.833   0.811  12.526  0.3520 -1.5651  0.4446
14552TIP3   OH265070   3.459   6.093  12.681  0.2538  0.5842 -0.4324
14552TIP3    H165071   3.500   6.007  12.683 -0.0940  0.4232 -0.1887
14552TIP3    H265072   3.454   6.119  12.773  0.2086  0.7955 -0.4943
14553TIP3   OH265073   0.712   3.569  13.339  0.4793 -0.4512  0.5700
14553TIP3    H165074   0.717   3.474  13.337  2.9885 -0.3302 -0.9607
14553TIP3    H265075   0.761   3.594  13.418 -0.5582 -0.4120  1.2210
14554TIP3   OH265076   2.935   0.991   4.378 -0.3443  0.2458 -0.0130
14554TIP3    H165077   3.011   1.017   4.325 -1.7547 -2.4991 -3.5910
14554TIP3    H265078   2.925   1.062   4.442  4.2847  1.4164 -0.4050
14555TIP3   OH265079   0.555   2.926   0.864  0.1213  0.0857 -0.3483
14555TIP3    H165080   0.507   2.926   0.946 -0.7599 -0.7147 -0.8559
14555TIP3    H265081   0.635   2.878   0.883  0.8886  1.6609  0.5733
14556TIP3   OH265082   0.754   0.487  14.876  0.4945 -0.5052 -0.1469
14556TIP3    H165083   0.843   0.512  14.901 -0.3653  1.8167  0.8047
14556TIP3    H265084   0.699   0.527  14.944 -1.3165 -1.1614 -1.2102
14557TIP3   OH265085   3.679   3.258  11.462 -0.2380  0.0405  0.1705
14557TIP3    H165086   3.594   3.285  11.428 -0.1698 -0.5338 -0.4569
14557TIP3    H265087   3.740   3.275  11.390  0.3898  1.6602  1.0557
14558TIP3   OH265088   6.391   3.941  15.831  0.5077  0.1178  0.2716
14558TIP3    H165089   6.310   3.893  15.813 -0.1921  1.2087  0.4897
14558TIP3    H265090   6.451   3.874  15.865 -0.5641 -0.5487  0.9017
14559TIP3   OH265091   4.067   2.711  15.095 -0.1738  0.1042 -0.1765
14559TIP3    H165092   4.035   2.729  15.184 -1.1164 -0.7128 -0.3397
14559TIP3    H265093   4.078   2.798  15.056  1.3298  0.5228  1.0921
14560TIP3   OH265094   1.779   0.774  14.539 -0.5597 -0.7197 -0.1598
14560TIP3    H165095   1.820   0.820  14.612 -0.5011 -0.3278 -0.4373
14560TIP3    H265096   1.843   0.708  14.514 -0.3603 -0.5222 -0.1819
14561TIP3   OH265097   1.837   2.963  11.184  0.7855 -0.4464 -0.8516
14561TIP3    H165098   1.875   3.051  11.184  0.6260 -0.3775 -0.4763
14561TIP3    H265099   1.745   2.976  11.160  0.5754 -0.4254 -0.0705
14562TIP3   OH265100   6.684   3.045   0.494 -0.2743  0.4348 -0.1799
14562TIP3    H165101   6.717   3.056   0.583  2.3603 -0.6774 -0.9774
14562TIP3    H265102   6.623   2.971   0.500 -2.0794  1.9614  1.1357
14563TIP3   OH265103   1.498   5.894  14.797 -0.3377 -0.2055 -0.0317
14563TIP3    H165104   1.509   5.813  14.848  1.6807  0.9764  1.5336
14563TIP3    H265105   1.423   5.937  14.836 -1.1148 -1.0898 -0.5427
14564TIP3   OH265106   3.878   1.747  15.442 -0.0105 -0.1589  0.1737
14564TIP3    H165107   3.810   1.688  15.410 -0.8260  1.4921 -1.1999
14564TIP3    H265108   3.957   1.720  15.395 -0.2376 -0.5415  0.0066
14565TIP3   OH265109   4.719   4.814  16.188  0.3280  0.1991 -0.4771
14565TIP3    H165110   4.785   4.750  16.161  0.5880  1.1905 -2.3095
14565TIP3    H265111   4.762   4.899  16.173 -0.5527  0.8195  0.4739
14566TIP3   OH265112   0.344   5.785  10.635 -0.0734  0.1722  0.2587
14566TIP3    H165113   0.389   5.710  10.595 -0.7491  0.5780 -1.3006
14566TIP3    H265114   0.412   5.830  10.685  0.7696 -0.4006 -0.3575
14567TIP3   OH265115   6.687   0.182  15.688 -0.5450  0.1038 -0.0287
14567TIP3    H165116   6.631   0.257  15.707 -1.0629  0.3867 -2.6080
14567TIP3    H265117   6.645   0.138  15.615  1.7636 -0.5886 -0.9815
14568TIP3   OH265118   2.368   1.695   0.267 -0.2894 -0.1222  0.0220
14568TIP3    H165119   2.295   1.669   0.211  0.0913  1.8878 -1.4613
14568TIP3    H265120   2.367   1.791   0.265  0.1314 -0.0038  2.9547
14569TIP3   OH265121   3.244   6.429   2.787  0.1829 -0.2616  0.6579
14569TIP3    H165122   3.155   6.438   2.752  0.7988  0.3920 -0.7902
14569TIP3    H265123   3.252   6.335   2.807 -0.8502 -0.3144  0.8658
14570TIP3   OH265124   5.720   3.400  14.172 -0.8053 -0.1035  1.0037
14570TIP3    H165125   5.647   3.378  14.115  0.9533  2.1874 -2.3434
14570TIP3    H265126   5.777   3.323  14.170 -1.6598 -0.7365  1.1488
14571TIP3   OH265127   5.959   3.154   6.125  0.2816  0.0972 -0.2108
14571TIP3    H165128   6.012   3.133   6.048  0.0101  2.8944 -1.2241
14571TIP3    H265129   5.880   3.102   6.115  0.0892  0.7058 -2.0333
14572TIP3   OH265130   4.208   6.281  13.277  0.1438  0.7344 -0.1449
14572TIP3    H165131   4.252   6.262  13.359 -1.3325 -1.0247  0.2650
14572TIP3    H265132   4.235   6.210  13.218 -1.0315  0.4281 -0.3133
14573TIP3   OH265133   2.834   1.743   2.607  0.4409 -0.3836 -0.6696
14573TIP3    H165134   2.837   1.652   2.636  1.8801 -0.3423 -0.6595
14573TIP3    H265135   2.741   1.766   2.609  0.2271 -1.3452  0.9073
14574TIP3   OH265136   4.557   2.957   3.745  0.5517  0.6937  0.1131
14574TIP3    H165137   4.576   2.874   3.790 -1.3076  0.4136  0.4308
14574TIP3    H265138   4.636   2.975   3.694  1.1453 -1.0705  0.3613
14575TIP3   OH265139   0.552   1.338   6.523 -0.7428  0.3377 -0.1457
14575TIP3    H165140   0.541   1.432   6.508  1.1657  0.5831 -0.0833
14575TIP3    H265141   0.492   1.319   6.595 -0.6819  1.6292  0.2666
14576TIP3   OH265142   3.615   3.417  10.960  0.1869 -0.6490  0.4648
14576TIP3    H165143   3.706   3.443  10.971  0.3956 -0.5577 -1.4369
14576TIP3    H265144   3.618   3.322  10.947  0.2189 -0.3434 -1.8824
14577TIP3   OH265145   4.120   1.093  16.347 -0.4987  0.2213 -0.2226
14577TIP3    H165146   4.155   1.081  16.259 -0.9581  0.0669 -0.3855
14577TIP3    H265147   4.181   1.153  16.389 -0.8040  1.0771 -0.9710
14578TIP3   OH265148   1.854   4.844   5.643  0.6905 -0.2239  0.1077
14578TIP3    H165149   1.883   4.887   5.563  0.1614 -2.1694 -1.1489
14578TIP3    H265150   1.916   4.873   5.710  1.4064  1.0518 -1.1047
14579TIP3   OH265151   1.271   6.208  13.486  0.1922  0.3054  0.4239
14579TIP3    H165152   1.298   6.294  13.454  0.2287 -0.2641 -1.1307
14579TIP3    H265153   1.184   6.222  13.522  0.3464  1.0664  0.5013
14580TIP3   OH265154   6.549   0.482   1.372  0.0328 -0.4568  0.1665
14580TIP3    H165155   6.526   0.561   1.324  0.7871  0.3038  1.0385
14580TIP3    H265156   6.532   0.504   1.464  3.3684 -0.1532  0.7804
14581TIP3   OH265157   2.418   1.446  10.432 -0.1985 -0.3774 -0.6552
14581TIP3    H165158   2.339   1.395  10.449  0.8449 -1.6428  0.5986
14581TIP3    H265159   2.398   1.497  10.354 -2.8713  0.6508  0.6178
14582TIP3   OH265160   2.942   2.524  15.537  0.2751  0.1091 -0.7835
14582TIP3    H165161   2.942   2.434  15.569  0.8200  0.4314  0.1318
14582TIP3    H265162   2.875   2.525  15.469  0.1240 -0.9375 -0.6577
14583TIP3   OH265163   5.375   1.103  12.678 -0.4441 -0.4036 -0.2728
14583TIP3    H165164   5.345   1.013  12.661 -0.5740 -0.6933  1.3686
14583TIP3    H265165   5.467   1.103  12.652  0.0154 -1.4978  1.2684
14584TIP3   OH265166   3.738   6.491  12.534 -0.0516  0.3871 -0.1244
14584TIP3    H165167   3.710   6.547  12.606  1.5848 -0.2962  1.0779
14584TIP3    H265168   3.712   6.538  12.455 -1.2787  1.4591  0.8960
14585TIP3   OH265169   5.048   4.700   0.465  0.0165 -0.0702  0.2384
14585TIP3    H165170   5.005   4.783   0.482  2.4298  0.9404  1.6422
14585TIP3    H265171   5.122   4.722   0.408 -1.8898 -1.9248 -3.1067
14586TIP3   OH265172   6.478   5.410  16.680 -0.3474 -0.0298 -0.2199
14586TIP3    H165173   6.400   5.380  16.728  0.2267 -1.1807  0.0305
14586TIP3    H265174   6.511   5.483  16.731 -0.8036 -0.0557  0.1196
14587TIP3   OH265175   0.655   0.537   4.039  0.3984  0.4426 -0.2762
14587TIP3    H165176   0.692   0.584   4.113 -1.0142 -0.2869  0.9261
14587TIP3    H265177   0.585   0.593   4.006 -0.6958 -0.3849  0.5979
14588TIP3   OH265178   0.224   5.948  14.917 -0.1292  0.8928 -0.0011
14588TIP3    H165179   0.251   5.923  15.005 -2.4322 -2.2444 -0.0964
14588TIP3    H265180   0.304   5.941  14.864  0.6950  0.1373  1.3169
14589TIP3   OH265181   1.956   3.578  16.127 -0.3542 -0.4327  0.1905
14589TIP3    H165182   1.912   3.663  16.124  1.2622  0.4017 -0.6752
14589TIP3    H265183   2.047   3.598  16.107 -0.1377 -2.4982 -1.0208
14590TIP3   OH265184   3.489   3.048  11.241 -0.2235  0.2977 -0.1358
14590TIP3    H165185   3.512   3.064  11.332  0.8666 -2.2209  0.0577
14590TIP3    H265186   3.570   3.064  11.192 -0.5532  0.7042 -0.5608
14591TIP3   OH265187   1.336   6.453  13.403  0.2534  0.1837  0.1952
14591TIP3    H165188   1.277   6.509  13.353  0.3638  0.3952  0.2980
14591TIP3    H265189   1.424   6.480  13.375  0.2998 -0.2063 -0.0427
14592TIP3   OH265190   2.316   1.329  11.091  0.1704 -0.0648 -0.0954
14592TIP3    H165191   2.261   1.251  11.079  1.1416 -0.7600 -0.0470
14592TIP3    H265192   2.254   1.402  11.089 -0.6276 -0.7488 -1.2510
14593TIP3   OH265193   0.385   1.536  12.796 -0.2562  0.1293  0.1372
14593TIP3    H165194   0.406   1.604  12.732 -0.0451  1.1481  1.2659
14593TIP3    H265195   0.467   1.487  12.806 -0.0071  0.5847  0.3519
14594TIP3   OH265196   3.857   6.114   1.671  0.4344  0.4124 -1.0962
14594TIP3    H165197   3.807   6.045   1.628  0.1411  0.5119 -0.9179
14594TIP3    H265198   3.805   6.137   1.748  0.0414  1.5139 -1.6869
14595TIP3   OH265199   6.312   0.548   4.081  0.4009  0.2459  0.3649
14595TIP3    H165200   6.244   0.513   4.138  0.8452 -0.9253  0.2039
14595TIP3    H265201   6.393   0.535   4.131  0.8843 -1.5193 -0.8467
14596TIP3   OH265202   5.514   2.860   1.944 -0.9752  0.3204 -0.9601
14596TIP3    H165203   5.456   2.834   1.873 -0.7916 -0.8847 -0.6859
14596TIP3    H265204   5.586   2.796   1.941 -0.7986  0.4569  0.0867
14597TIP3   OH265205   4.209   2.187  14.424  0.1562  0.4336 -0.0822
14597TIP3    H165206   4.157   2.106  14.420  0.2238  0.3653  0.3671
14597TIP3    H265207   4.300   2.158  14.413  0.3089  0.2858  1.3858
14598TIP3   OH265208   6.643   5.367  16.154 -0.3742 -0.2698  0.7040
14598TIP3    H165209   6.675   5.283  16.120 -1.2939 -0.1979 -0.3794
14598TIP3    H265210   6.623   5.418  16.075 -0.1380  0.8522  1.3535
14599TIP3   OH265211   5.881   5.276  15.412 -0.1184 -0.2913 -0.7580
14599TIP3    H165212   5.874   5.328  15.492 -1.2974 -0.9787 -0.3927
14599TIP3    H265213   5.931   5.331  15.351  1.4324 -0.0658  0.6853
14600TIP3   OH265214   5.667   6.618   2.272 -0.3469  0.0418  0.6716
14600TIP3    H165215   5.622   6.595   2.353 -0.9483  2.5745  1.1060
14600TIP3    H265216   5.724   6.691   2.297 -1.2557  1.4874 -1.3661
14601TIP3   OH265217   6.194   2.591  11.047  0.4012 -0.2983 -0.5472
14601TIP3    H165218   6.236   2.609  10.963 -1.1654  0.4218 -1.2055
14601TIP3    H265219   6.105   2.563  11.024 -0.2309  0.4447  0.8806
14602TIP3   OH265220   1.296   1.994  14.105 -0.2959 -0.5666  0.5230
14602TIP3    H165221   1.356   1.933  14.148 -1.2322 -2.8616 -1.3082
14602TIP3    H265222   1.208   1.963  14.130 -0.7907 -0.3790 -0.9190
14603TIP3   OH265223   3.972   2.710  12.671 -0.4228  0.0495  0.0700
14603TIP3    H165224   3.942   2.746  12.588 -2.5052  0.8807  1.1428
14603TIP3    H265225   3.959   2.781  12.734 -0.7458 -1.2147  1.4640
14604TIP3   OH265226   4.511   5.691   2.100  0.4719  0.2500 -0.3995
14604TIP3    H165227   4.434   5.723   2.053 -0.0994 -1.2333 -0.4878
14604TIP3    H265228   4.582   5.746   2.068 -0.7333  2.4643  0.5928
14605TIP3   OH265229   4.362   1.542   0.357 -0.1719  0.4731  0.6410
14605TIP3    H165230   4.282   1.582   0.322 -0.1882 -0.6865 -0.6692
14605TIP3    H265231   4.432   1.602   0.332 -0.4160  0.6008  0.2536
14606TIP3   OH265232   3.239   3.038   3.485  0.3259  0.5167  0.4048
14606TIP3    H165233   3.237   3.034   3.390 -2.8419  0.9744  0.3983
14606TIP3    H265234   3.213   2.951   3.514  2.3834  0.0387  0.8896
14607TIP3   OH265235   4.939   3.300  13.650  0.7347  0.6788  0.3493
14607TIP3    H165236   4.937   3.294  13.555  0.0272  0.7644  0.3510
14607TIP3    H265237   4.959   3.392  13.668 -1.1080  1.1205  0.2652
14608TIP3   OH265238   2.474   2.714  15.216  0.0913  0.3546 -0.5691
14608TIP3    H165239   2.507   2.774  15.149 -0.8861  0.4412 -0.9905
14608TIP3    H265240   2.389   2.751  15.241  0.2771  0.1121  0.4471
14609TIP3   OH265241   5.555   1.125  15.395  0.6361 -1.1335 -0.0845
14609TIP3    H165242   5.564   1.139  15.300 -0.3068  1.5976  0.2014
14609TIP3    H265243   5.645   1.116  15.426  1.0648 -0.1307 -0.9821
14610TIP3   OH265244   6.653   2.070  12.883  0.2897  0.2067 -0.3434
14610TIP3    H165245   6.590   2.099  12.817  0.0987  1.7363  0.4713
14610TIP3    H265246   6.736   2.067  12.837 -0.0075  0.3303 -0.8955
14611TIP3   OH265247   3.883   1.249  13.064 -0.3225  0.3150  0.4547
14611TIP3    H165248   3.900   1.158  13.040 -0.1658  0.3641  0.3748
14611TIP3    H265249   3.917   1.300  12.990  0.2100  0.4697  0.8038
14612TIP3   OH265250   4.518   3.395  12.918 -0.0044 -0.4710 -0.1429
14612TIP3    H165251   4.468   3.419  12.995 -1.0870  0.6393 -1.1719
14612TIP3    H265252   4.547   3.478  12.881 -0.4742 -0.9234 -1.5575
14613TIP3   OH265253   5.628   0.162  17.079  0.1384  0.3431  0.1647
14613TIP3    H165254   5.650   0.255  17.071  1.8733 -0.2035 -1.9195
14613TIP3    H265255   5.554   0.150  17.020 -0.9378  0.6390  1.4266
14614TIP3   OH265256   2.595   6.558   2.433  1.1423  0.2835 -0.3719
14614TIP3    H165257   2.657   6.508   2.380  2.5763  1.7808 -0.1283
14614TIP3    H265258   2.609   6.649   2.408  0.5261  0.8354  1.2183
14615TIP3   OH265259   0.485   2.013   5.395 -0.1655 -0.2597 -0.4377
14615TIP3    H165260   0.427   1.975   5.461 -0.0670  1.1339  0.4723
14615TIP3    H265261   0.493   2.105   5.421 -0.3103  0.3672 -2.5263
14616TIP3   OH265262   2.840   1.459  14.762  0.0703 -0.4581 -0.3708
14616TIP3    H165263   2.843   1.438  14.668  0.9995  1.0580 -0.6973
14616TIP3    H265264   2.813   1.377  14.803  0.5115 -1.4050 -1.8894
14617TIP3   OH265265   1.983   6.586  15.066 -0.3313  0.5061  0.2811
14617TIP3    H165266   2.038   6.517  15.029 -0.1399  0.8986 -0.1731
14617TIP3    H265267   1.894   6.553  15.055 -0.1869 -0.2612  1.2822
14618TIP3   OH265268   2.713   2.293   5.582 -0.2816 -0.4957 -0.2307
14618TIP3    H165269   2.658   2.215   5.578 -0.3888 -0.4540  0.4575
14618TIP3    H265270   2.715   2.325   5.491 -1.7110 -0.2772 -0.2084
14619TIP3   OH265271   6.176   4.540   4.612  0.2077  0.4623  0.0367
14619TIP3    H165272   6.134   4.603   4.552 -1.1423  0.0859  0.5523
14619TIP3    H265273   6.102   4.500   4.658  1.0911 -1.2293 -0.0136
14620TIP3   OH265274   6.266   2.716   4.549 -0.0005 -0.2191 -0.0803
14620TIP3    H165275   6.254   2.762   4.632 -0.4947  0.9886 -0.8094
14620TIP3    H265276   6.267   2.623   4.573 -0.9397  0.0832  1.1770
14621TIP3   OH265277   5.415   1.608  17.121 -0.0194 -0.1167 -0.6541
14621TIP3    H165278   5.402   1.536  17.060 -0.7376 -0.4325 -0.1331
14621TIP3    H265279   5.330   1.620  17.163  0.4973  0.0118  0.3867
14622TIP3   OH265280   5.382   4.180   0.271  0.6312 -0.2716 -0.3268
14622TIP3    H165281   5.401   4.087   0.263  1.0635 -0.3709  1.5454
14622TIP3    H265282   5.454   4.224   0.226  3.3094 -0.7450  3.2780
14623TIP3   OH265283   0.426   1.614   0.986 -0.2163 -0.7833 -0.2069
14623TIP3    H165284   0.425   1.581   0.896  1.1862  0.3883 -0.6843
14623TIP3    H265285   0.494   1.682   0.985 -1.8269  0.8695  1.1669
14624TIP3   OH265286   6.709   4.339   2.620 -0.0789 -0.0502 -0.5023
14624TIP3    H165287   6.771   4.310   2.553 -0.7355  0.6064 -1.4059
14624TIP3    H265288   6.624   4.338   2.577 -0.2975  1.9333 -0.1889
14625TIP3   OH265289   2.228   2.961  14.609  0.2722 -0.3427 -0.7301
14625TIP3    H165290   2.322   2.950  14.594 -0.1169 -0.8849 -2.8981
14625TIP3    H265291   2.187   2.930  14.529 -1.8077 -0.6439  0.4160
14626TIP3   OH265292   6.158   6.188   0.360  0.5581 -0.2880  0.2751
14626TIP3    H165293   6.137   6.137   0.439  2.4564 -0.4246  0.7149
14626TIP3    H265294   6.148   6.126   0.288  1.1373 -0.8245  0.6461
14627TIP3   OH265295   0.845   3.063  14.236 -0.3395 -0.1547  0.0953
14627TIP3    H165296   0.815   3.015  14.158  0.4393 -2.4426  1.1548
14627TIP3    H265297   0.930   3.100  14.210  0.9792 -2.7662  0.4950
14628TIP3   OH265298   1.405   2.812  15.167 -0.1057  0.0395 -0.4565
14628TIP3    H165299   1.333   2.861  15.127  2.2585  0.8506 -3.9106
14628TIP3    H265300   1.406   2.729  15.120  0.3440 -0.5396  0.5674
14629TIP3   OH265301   2.307   3.602   3.659 -0.4665  0.1939  0.3111
14629TIP3    H165302   2.390   3.558   3.676  0.4860  1.5795 -0.6919
14629TIP3    H265303   2.243   3.531   3.651  0.3152 -0.8252  2.6223
14630TIP3   OH265304   1.339   3.886  11.987 -0.0024 -0.2722  0.2103
14630TIP3    H165305   1.313   3.794  11.994 -0.1099 -0.2698 -0.1697
14630TIP3    H265306   1.311   3.925  12.070 -0.4095 -0.4707  0.1709
14631TIP3   OH265307   0.591   0.018   0.558 -0.7247 -0.4601  0.6292
14631TIP3    H165308   0.582   0.097   0.613  0.9516 -0.5836  1.1229
14631TIP3    H265309   0.606  -0.052   0.621  0.8541 -0.6661  0.0450
14632TIP3   OH265310   1.968   2.741  15.213 -0.2761 -0.1219 -0.4729
14632TIP3    H165311   1.884   2.778  15.241  0.7876  1.4687  0.6840
14632TIP3    H265312   2.006   2.809  15.157  1.6979  0.5613  1.6576
14633TIP3   OH265313   4.353   2.003   1.157  0.0805  0.5245  0.7831
14633TIP3    H165314   4.291   2.015   1.084  1.5101  0.7782 -0.4137
14633TIP3    H265315   4.398   1.921   1.137 -1.9397 -1.2351  3.2286
14634TIP3   OH265316   0.859   5.168  12.787 -0.4653 -0.2940 -0.1641
14634TIP3    H165317   0.917   5.104  12.746 -0.5643 -0.9395  0.6782
14634TIP3    H265318   0.887   5.170  12.879  0.2920  1.7243 -0.4203
14635TIP3   OH265319   3.610   6.520   3.811  0.5138  0.4788  0.2669
14635TIP3    H165320   3.520   6.531   3.779  0.1914  1.0961  1.3477
14635TIP3    H265321   3.630   6.427   3.796  0.2240  0.6418 -1.2809
14636TIP3   OH265322   5.914   5.219  16.081 -0.2173  0.6974 -0.3842
14636TIP3    H165323   5.853   5.279  16.124 -0.1205  0.8960 -0.5265
14636TIP3    H265324   6.001   5.247  16.110 -0.1509  0.8332 -0.7104
14637TIP3   OH265325   6.647   1.252  12.308 -0.1791 -0.6271  0.0462
14637TIP3    H165326   6.736   1.249  12.344 -1.4455  0.7806  3.4237
14637TIP3    H265327   6.638   1.169  12.261  2.3478 -1.5111  1.0040
14638TIP3   OH265328   4.129   3.457  12.765  0.6399  0.6172  0.3016
14638TIP3    H165329   4.046   3.430  12.725  1.7326  0.8616 -2.2184
14638TIP3    H265330   4.107   3.473  12.856 -2.0863  0.6384 -0.3137
14639TIP3   OH265331   0.034   3.233   1.657  0.6289  0.3846  0.6257
14639TIP3    H165332  -0.028   3.175   1.702 -0.9550  3.0474  1.9983
14639TIP3    H265333   0.087   3.269   1.728  0.7101  1.6310 -0.0664
14640TIP3   OH265334   4.794   4.302  14.027  0.2092 -0.6348  0.1552
14640TIP3    H165335   4.774   4.396  14.030 -0.1019 -0.6494 -1.2038
14640TIP3    H265336   4.888   4.297  14.016  0.5202 -0.5215  2.4925
14641TIP3   OH265337   0.457   4.720   0.957  0.1302 -0.1627  0.4044
14641TIP3    H165338   0.412   4.795   0.994  1.2592  0.0306  1.4289
14641TIP3    H265339   0.428   4.716   0.866 -0.1128  1.3680  0.4116
14642TIP3   OH265340   3.716   1.690   0.145  0.2994 -0.1212 -0.1433
14642TIP3    H165341   3.787   1.648   0.095 -0.1207  1.2115 -1.9168
14642TIP3    H265342   3.673   1.618   0.191 -0.7174 -1.7718 -3.5155
14643TIP3   OH265343   4.547   0.392  10.203 -0.1103  0.2078 -0.0958
14643TIP3    H165344   4.535   0.481  10.238 -4.5744 -0.7418  1.0805
14643TIP3    H265345   4.559   0.337  10.280  2.8281 -0.2990 -0.8342
14644TIP3   OH265346   0.015   6.283  13.649  0.1674 -0.5675 -0.5144
14644TIP3    H165347   0.103   6.246  13.650  0.7634  0.8168 -0.4630
14644TIP3    H265348  -0.040   6.216  13.690  1.4613 -0.8045  0.8675
14645TIP3   OH265349   5.937   5.274  11.114 -0.8485 -0.7597  0.3134
14645TIP3    H165350   5.866   5.334  11.091 -1.0662 -0.7473  0.9904
14645TIP3    H265351   6.016   5.327  11.106 -1.1485  0.0222  2.2104
14646TIP3   OH265352   4.283   4.927  12.255  0.4629  0.7370  0.1721
14646TIP3    H165353   4.321   4.965  12.176  2.5214  0.2946  0.8930
14646TIP3    H265354   4.297   4.833  12.245 -0.7722  0.5408  0.3067
14647TIP3   OH265355   2.818   1.351  15.474 -0.2978 -0.0288  0.3016
14647TIP3    H165356   2.870   1.290  15.527 -2.3886 -0.0646  2.3641
14647TIP3    H265357   2.859   1.347  15.387  2.6907 -0.5872  1.6579
14648TIP3   OH265358   5.556   6.777  13.458 -0.3050 -0.3028  0.4332
14648TIP3    H165359   5.604   6.694  13.460 -0.0902 -0.2189 -0.7701
14648TIP3    H265360   5.608   6.834  13.402 -1.5188 -0.0205 -0.4321
14649TIP3   OH265361   2.229   1.330  11.556 -0.7108 -0.3614  0.0141
14649TIP3    H165362   2.181   1.332  11.639  1.2186  0.2347  1.1524
14649TIP3    H265363   2.298   1.395  11.567 -2.2792  1.9587 -3.2523
14650TIP3   OH265364   0.183   0.812  13.667  0.4974  0.1101  0.1027
14650TIP3    H165365   0.232   0.811  13.585 -0.3585  2.2959 -0.4742
14650TIP3    H265366   0.114   0.877  13.653 -1.6475 -1.7964  1.4276
14651TIP3   OH265367   3.939   0.373  14.201 -0.0616  0.6430  0.0595
14651TIP3    H165368   3.994   0.435  14.153 -1.1994  0.4833 -1.4808
14651TIP3    H265369   3.923   0.302  14.139 -1.0863  0.1531  0.8719
14652TIP3   OH265370   0.985   2.864  14.417  0.2792 -0.5727  0.3351
14652TIP3    H165371   1.048   2.929  14.447 -0.3797 -0.9057  2.5589
14652TIP3    H265372   0.911   2.915  14.385  0.0062 -0.1979  1.5246
14653TIP3   OH265373   4.305   2.230  15.699 -0.2327 -0.1608 -0.5004
14653TIP3    H165374   4.378   2.286  15.724 -0.8598 -0.0132  1.0458
14653TIP3    H265375   4.269   2.271  15.621 -0.6912  1.6145  0.6155
14654TIP3   OH265376   6.686   5.596   1.594  0.0055 -0.0275  0.2380
14654TIP3    H165377   6.597   5.617   1.566 -0.2978  0.2710  1.3867
14654TIP3    H265378   6.732   5.572   1.514 -0.5068  1.9421 -0.6643
14655TIP3   OH265379   6.737   0.228   5.340  0.1648  0.0127  0.5051
14655TIP3    H165380   6.704   0.313   5.370  0.1636  1.0767 -2.2952
14655TIP3    H265381   6.808   0.251   5.279  0.4225 -2.0018  0.0196
14656TIP3   OH265382   3.566   3.973   5.380  0.5341 -0.0208 -0.3103
14656TIP3    H165383   3.559   3.908   5.309 -0.4045 -0.7016  0.3929
14656TIP3    H265384   3.508   4.044   5.353 -1.3189 -1.1240  0.6541
14657TIP3   OH265385   2.320   5.825   0.736 -0.5784  0.0700  0.6206
14657TIP3    H165386   2.282   5.744   0.770  1.8750 -1.2696  0.2928
14657TIP3    H265387   2.311   5.818   0.641  0.2531 -0.1188  0.5587
14658TIP3   OH265388   4.244   3.953  13.637  0.6920  0.7316 -0.1510
14658TIP3    H165389   4.315   4.008  13.671  0.7631  1.6162 -1.6750
14658TIP3    H265390   4.276   3.863  13.649  0.5491  0.9871  2.4097
14659TIP3   OH265391   5.976   0.644  14.249  0.0803  0.8258  0.3168
14659TIP3    H165392   6.050   0.660  14.308 -0.7139  0.5561  1.3976
14659TIP3    H265393   5.928   0.572  14.290  0.5634 -0.6486 -1.6471
14660TIP3   OH265394   3.285   5.579   2.135 -0.1225 -0.0353  0.2424
14660TIP3    H165395   3.342   5.653   2.154  0.3884 -0.2152 -0.5607
14660TIP3    H265396   3.318   5.544   2.052 -0.5874 -0.9368  0.4310
14661TIP3   OH265397   5.695   0.680  12.124  0.5265  0.1111 -0.3998
14661TIP3    H165398   5.624   0.688  12.060 -0.7797  1.0423  1.0946
14661TIP3    H265399   5.761   0.742  12.094  0.9121 -1.0631 -2.0396
14662TIP3   OH265400   6.729   2.413   5.236  0.0203 -0.3448 -0.3158
14662TIP3    H165401   6.734   2.322   5.268 -0.8590  0.3744  1.9792
14662TIP3    H265402   6.642   2.443   5.264  0.9277  1.7167  0.3464
14663TIP3   OH265403   4.231   2.998  13.262 -0.6378 -0.2828 -0.4760
14663TIP3    H165404   4.207   3.055  13.189 -1.4694  1.2921  0.9968
14663TIP3    H265405   4.156   2.940  13.274 -0.5624 -0.4410 -0.7695
14664TIP3   OH265406   5.324   3.140   1.364 -0.1342 -0.0042  0.0238
14664TIP3    H165407   5.359   3.085   1.294  0.5499  0.8601 -0.3261
14664TIP3    H265408   5.354   3.099   1.445  0.7001  0.0739 -0.2454
14665TIP3   OH265409   2.716   4.931   2.079 -0.7259  0.5094  0.4540
14665TIP3    H165410   2.801   4.928   2.036 -0.1324 -0.1214  1.6459
14665TIP3    H265411   2.669   4.856   2.045 -0.3265  0.1187  0.7601
14666TIP3   OH265412   6.709   0.414  15.118 -0.1168  0.5354  0.2016
14666TIP3    H165413   6.721   0.448  15.029  2.9534 -1.6626 -0.3034
14666TIP3    H265414   6.681   0.324  15.106 -0.7362  0.5451  1.4797
14667TIP3   OH265415   3.535   4.775   5.333  0.0571  0.4829 -0.0175
14667TIP3    H165416   3.541   4.747   5.242  2.4077  2.2076 -0.4257
14667TIP3    H265417   3.613   4.741   5.375 -0.8620 -0.0450  1.2984
14668TIP3   OH265418   4.784   1.325  14.819 -0.3718  0.0636 -0.3027
14668TIP3    H165419   4.716   1.365  14.874  0.4508  1.5141 -0.3197
14668TIP3    H265420   4.764   1.355  14.731  0.2224  0.4128 -0.3231
14669TIP3   OH265421   2.383   5.699   2.698 -0.0363  0.3125  0.3726
14669TIP3    H165422   2.474   5.680   2.676  0.2769  1.4692  0.6643
14669TIP3    H265423   2.373   5.667   2.788  0.6023  1.8637  1.0067
14670TIP3   OH265424   3.556   2.685  12.914  0.3295  0.3936 -0.0907
14670TIP3    H165425   3.544   2.622  12.843 -0.3545  1.0457 -0.5701
14670TIP3    H265426   3.469   2.693  12.954  0.3532  1.1960 -0.1854
14671TIP3   OH265427   0.309   0.891   5.847  0.1297  0.2754  0.7716
14671TIP3    H165428   0.247   0.819   5.839  0.8395 -0.0968 -1.5423
14671TIP3    H265429   0.395   0.850   5.846  0.4913  0.8679  3.1052
14672TIP3   OH265430   0.739   2.007  11.354  0.4204 -0.8956  0.2519
14672TIP3    H165431   0.666   1.949  11.377  0.7864 -2.0084 -1.3128
14672TIP3    H265432   0.703   2.095  11.363 -1.4725 -1.4257 -1.5216
14673TIP3   OH265433   4.521   4.065  15.594  0.7901  0.2879  0.7888
14673TIP3    H165434   4.529   3.973  15.618 -0.0471 -0.7944 -2.6881
14673TIP3    H265435   4.610   4.099  15.601  1.4970 -1.3548  0.1723
14674TIP3   OH265436   5.467   3.931   6.047 -0.2797 -0.4875 -0.1242
14674TIP3    H165437   5.381   3.922   6.088 -0.5368  0.6834 -0.4052
14674TIP3    H265438   5.485   3.844   6.011  0.4648 -1.9290  3.4401
14675TIP3   OH265439   4.054   1.404   4.581 -0.4771 -0.0852 -0.0876
14675TIP3    H165440   4.015   1.324   4.616 -2.7399  0.1019 -2.0547
14675TIP3    H265441   4.138   1.376   4.545 -0.4401 -1.2244  0.8418
14676TIP3   OH265442   1.206   0.252  14.640  0.5889  0.3208 -0.5588
14676TIP3    H165443   1.298   0.263  14.615  1.4728 -1.6198  1.6107
14676TIP3    H265444   1.209   0.188  14.711 -2.2067  2.2901  1.4045
14677TIP3   OH265445   4.578   0.574   0.432  0.2945 -0.0360 -0.3104
14677TIP3    H165446   4.659   0.607   0.394  0.6835 -0.5102  0.1110
14677TIP3    H265447   4.606   0.515   0.502 -0.3983  1.3903  1.2059
14678TIP3   OH265448   2.447   5.512  13.057  0.1254 -0.2463 -0.2377
14678TIP3    H165449   2.440   5.597  13.100  0.1055 -1.0442  1.3803
14678TIP3    H265450   2.510   5.463  13.110  0.6529 -1.0046 -1.5464
14679TIP3   OH265451   3.277   1.200  15.583 -0.3888  0.1142  0.3093
14679TIP3    H165452   3.196   1.190  15.533 -0.4749 -0.5366  0.5831
14679TIP3    H265453   3.296   1.113  15.616  1.8619 -0.2943 -1.9367
14680TIP3   OH265454   2.690   4.767  15.713 -0.0807 -0.1307 -0.2495
14680TIP3    H165455   2.772   4.742  15.757 -1.1350 -0.3502  1.6468
14680TIP3    H265456   2.665   4.689  15.663 -0.4254 -0.9331  1.1637
14681TIP3   OH265457   3.686   4.961  10.614 -1.0842  0.4187  0.5828
14681TIP3    H165458   3.628   4.901  10.660  0.3053 -1.2817  0.1927
14681TIP3    H265459   3.724   4.909  10.544 -0.4448  1.9901 -0.2761
14682TIP3   OH265460   5.389   2.424  11.343 -0.2768  0.0514  0.3986
14682TIP3    H165461   5.413   2.368  11.416  0.7065 -1.5221 -1.0967
14682TIP3    H265462   5.387   2.366  11.267 -0.3951  1.8094 -0.9945
14683TIP3   OH265463   3.527   4.403  15.682  0.5502  0.1776 -0.3464
14683TIP3    H165464   3.605   4.369  15.725  0.0348  0.8726  1.1651
14683TIP3    H265465   3.474   4.325  15.663  0.6417 -0.1136  0.5712
14684TIP3   OH265466   5.192   5.598   3.276  0.2221  0.1988  0.9795
14684TIP3    H165467   5.241   5.668   3.234 -0.2967 -0.3242 -0.5069
14684TIP3    H265468   5.185   5.529   3.210 -2.0099  0.0304  1.3459
14685TIP3   OH265469   5.405   5.060   2.295  0.0376  0.1705 -0.1479
14685TIP3    H165470   5.433   5.024   2.211  1.6766  1.3558 -0.1398
14685TIP3    H265471   5.477   5.118   2.321 -1.1568  1.0327  1.3078
14686TIP3   OH265472   2.679   1.514  11.153  0.0136 -0.0058  0.1829
14686TIP3    H165473   2.766   1.529  11.191 -0.4813  1.9978  0.5927
14686TIP3    H265474   2.682   1.559  11.069 -0.8884  0.7700  0.5597
14687TIP3   OH265475   1.341   3.449  16.174  0.0864 -0.5266 -0.2141
14687TIP3    H165476   1.361   3.459  16.081  2.2955 -0.9742  0.1867
14687TIP3    H265477   1.246   3.434  16.177  0.3913 -3.3992 -2.6256
14688TIP3   OH265478   2.552   6.552   0.260  0.6718 -0.1627 -0.0557
14688TIP3    H165479   2.644   6.530   0.269  0.9005  0.4110 -0.8330
14688TIP3    H265480   2.506   6.491   0.317  1.3761 -1.7243 -1.1332
14689TIP3   OH265481   4.586   5.292  13.387 -0.4795 -0.0978 -0.4396
14689TIP3    H165482   4.545   5.301  13.301  0.0730  2.8021 -0.4536
14689TIP3    H265483   4.513   5.293  13.449 -0.7271  0.0018 -0.7340
14690TIP3   OH265484   5.033   6.446  11.904 -0.4337 -0.2820 -0.1385
14690TIP3    H165485   5.044   6.351  11.893 -2.0003 -0.7200  1.8415
14690TIP3    H265486   4.950   6.455  11.951  0.0754  2.0494  0.3405
14691TIP3   OH265487   3.422   1.892  14.115  0.2012 -0.1670  0.0797
14691TIP3    H165488   3.368   1.815  14.099  1.2247 -0.7843 -0.5300
14691TIP3    H265489   3.510   1.857  14.129  0.2625  0.7474  2.0843
14692TIP3   OH265490   6.381   3.283   4.017 -0.2999 -0.3161 -0.1336
14692TIP3    H165491   6.448   3.288   4.085 -2.1572  0.9874  1.6716
14692TIP3    H265492   6.430   3.271   3.936  2.0945  0.4901  1.1460
14693TIP3   OH265493   4.098   2.967  11.769  0.0046 -0.1767 -0.0035
14693TIP3    H165494   4.102   2.986  11.675 -0.6982 -0.2513 -0.0475
14693TIP3    H265495   4.023   3.017  11.801  0.3956  0.0503  0.5665
14694TIP3   OH265496   6.535   4.029   2.573 -0.9663 -0.2904 -0.3585
14694TIP3    H165497   6.579   4.101   2.618 -0.0898 -0.4536 -0.9471
14694TIP3    H265498   6.512   3.968   2.644  0.8358 -0.7751 -0.1482
14695TIP3   OH265499   0.374   3.346  15.720  0.4078  0.1212 -0.3740
14695TIP3    H165500   0.464   3.376  15.735  0.1208  0.2757  1.0920
14695TIP3    H265501   0.326   3.426  15.699  0.4384  0.1544 -0.3195
14696TIP3   OH265502   2.068   0.273  16.897  0.0128 -0.1048 -0.1757
14696TIP3    H165503   2.027   0.350  16.858  1.2349  0.1124 -1.0683
14696TIP3    H265504   2.026   0.264  16.982  1.0810  2.5970  0.6873
14697TIP3   OH265505   5.306   5.228   1.687  0.1007  0.7173  0.3132
14697TIP3    H165506   5.330   5.276   1.766 -1.1442  2.0318 -0.0884
14697TIP3    H265507   5.216   5.199   1.703  0.6229 -0.9674  0.2950
14698TIP3   OH265508   6.477   0.964  15.695 -0.1708 -0.0372 -0.1612
14698TIP3    H165509   6.560   1.000  15.727  0.6335 -1.1120 -1.0109
14698TIP3    H265510   6.479   0.979  15.600 -0.6223 -0.6933 -0.2809
14699TIP3   OH265511   1.829   5.709  12.362 -0.2766 -0.1293  0.4358
14699TIP3    H165512   1.833   5.797  12.327  0.8605 -1.0919 -1.9817
14699TIP3    H265513   1.742   5.677  12.338  0.0425 -0.3412 -0.4850
14700TIP3   OH265514   0.479   2.274   0.276  0.3379  0.2654  0.1754
14700TIP3    H165515   0.428   2.234   0.345 -0.9142  0.5951 -0.5452
14700TIP3    H265516   0.456   2.367   0.279 -0.7544  0.0707 -1.5418
14701TIP3   OH265517   4.303   4.901   2.860 -0.6869 -0.1168  0.1326
14701TIP3    H165518   4.308   4.996   2.854  0.6173 -0.0738  1.5932
14701TIP3    H265519   4.300   4.883   2.953 -0.8961 -1.5231 -0.1375
14702TIP3   OH265520   1.708   2.230   1.379 -0.5214  0.2366  0.0550
14702TIP3    H165521   1.794   2.218   1.419 -0.9785  1.3291  1.4149
14702TIP3    H265522   1.676   2.312   1.416 -1.6880  0.4109 -1.2901
14703TIP3   OH265523   2.084   3.417   0.508  0.1853  0.6062  0.5040
14703TIP3    H165524   2.111   3.502   0.542  0.5830  1.3524 -1.6154
14703TIP3    H265525   2.057   3.368   0.586 -1.0207  2.9930  1.6335
14704TIP3   OH265526   3.183   6.251   1.474 -0.0524  0.4804  0.4118
14704TIP3    H165527   3.254   6.215   1.528 -0.7891  0.3705  1.3271
14704TIP3    H265528   3.161   6.181   1.413  0.0212  0.1843  0.7219
14705TIP3   OH265529   2.136   0.113   5.696 -0.0698  0.0302  0.0306
14705TIP3    H165530   2.157   0.064   5.616 -0.1989 -1.3919  0.8506
14705TIP3    H265531   2.074   0.180   5.667  0.1332 -0.2669 -1.1186
14706TIP3   OH265532   2.997   6.008   5.101 -0.3849  0.6344 -0.1265
14706TIP3    H165533   2.969   6.072   5.036 -1.1499 -0.3675 -0.7860
14706TIP3    H265534   2.986   6.053   5.185  0.8258  2.0035 -0.6841
14707TIP3   OH265535   4.942   4.508  15.292 -0.0326 -0.0093  0.3369
14707TIP3    H165536   4.914   4.576  15.231  0.6731 -0.3598 -0.4001
14707TIP3    H265537   4.873   4.442  15.287 -0.3651  0.3284  0.5058
14708TIP3   OH265538   5.533   1.889   1.162 -0.2744  0.3833  0.7912
14708TIP3    H165539   5.478   1.820   1.199  0.5258  0.4534  2.1296
14708TIP3    H265540   5.543   1.864   1.070 -3.2521  0.8293  0.2911
14709TIP3   OH265541   1.018   3.472  11.005  0.8515  0.0457  0.5563
14709TIP3    H165542   1.082   3.422  11.056  1.5652 -0.2544 -0.6234
14709TIP3    H265543   0.937   3.464  11.055  1.1713 -1.5173  0.8532
14710TIP3   OH265544   6.330   2.166   4.342 -0.5064 -0.8022  0.1123
14710TIP3    H165545   6.275   2.201   4.272 -0.7910 -0.1641  0.6487
14710TIP3    H265546   6.397   2.115   4.297  0.5829  1.3595 -0.7719
14711TIP3   OH265547   2.805   3.995   6.268  0.1426  0.6247  0.4425
14711TIP3    H165548   2.821   4.079   6.226 -0.6993  0.7142  0.2921
14711TIP3    H265549   2.725   4.009   6.320  0.8224  0.3477  1.5928
14712TIP3   OH265550   3.860   4.227   2.709 -0.2731 -0.2147 -0.0445
14712TIP3    H165551   3.937   4.204   2.658 -0.5584 -2.1216  0.3611
14712TIP3    H265552   3.805   4.149   2.706 -2.5774  1.3871 -1.0289
14713TIP3   OH265553   1.672   4.022  11.634  0.7196 -0.5672 -0.0447
14713TIP3    H165554   1.589   4.042  11.677  0.0700 -2.5890 -0.2898
14713TIP3    H265555   1.668   4.069  11.550  1.0811  1.6468  1.1515
14714TIP3   OH265556   4.488   5.460  16.341  0.5107 -0.5426  0.0566
14714TIP3    H165557   4.400   5.458  16.379  1.7586 -1.1812  2.9646
14714TIP3    H265558   4.514   5.552  16.347  1.3515 -0.9136  2.2922
14715TIP3   OH265559   0.904   0.981  11.642  0.4289  0.6782  0.0759
14715TIP3    H165560   0.994   0.987  11.673  0.7199 -0.1713 -0.5818
14715TIP3    H265561   0.907   1.019  11.554  0.2236  0.2989 -0.0960
14716TIP3   OH265562   4.506   4.134  13.440  0.1831  0.5956 -0.0178
14716TIP3    H165563   4.552   4.103  13.362  0.4303  3.5741 -1.0971
14716TIP3    H265564   4.526   4.069  13.507  1.0211 -1.3226 -2.0730
14717TIP3   OH265565   0.028   4.210  10.907 -0.6685  0.4376  0.6233
14717TIP3    H165566  -0.001   4.146  10.972 -2.1069  1.1702  0.7496
14717TIP3    H265567  -0.042   4.276  10.907  1.5509  2.8718  1.7123
14718TIP3   OH265568   4.039   1.436   5.048  0.6629  0.5635  0.0865
14718TIP3    H165569   4.099   1.481   4.989 -0.0255  0.6921 -0.5233
14718TIP3    H265570   3.997   1.507   5.097 -1.3719  0.7204 -1.7763
14719TIP3   OH265571   4.234   4.208  13.802 -0.1467  0.1048 -0.4935
14719TIP3    H165572   4.150   4.170  13.777 -1.1579  1.1309  1.1690
14719TIP3    H265573   4.272   4.145  13.863 -0.1575  0.0717 -0.5208
14720TIP3   OH265574   2.548   0.082  11.494 -0.3781 -0.4721 -0.0294
14720TIP3    H165575   2.581   0.084  11.405  0.9848 -1.0468  0.4463
14720TIP3    H265576   2.549   0.174  11.522 -0.9728 -0.2704 -0.6457
14721TIP3   OH265577   3.775   1.145   0.862 -0.2405  0.2015  0.0083
14721TIP3    H165578   3.704   1.205   0.838 -1.0908 -0.0882  1.7193
14721TIP3    H265579   3.746   1.060   0.829 -0.8613  0.0205  0.9987
14722TIP3   OH265580   1.076   6.010  13.795  0.5794 -0.3492 -0.1663
14722TIP3    H165581   1.161   6.025  13.755  1.0910  0.7059  1.2813
14722TIP3    H265582   1.019   6.076  13.756  1.0105  0.4964  0.6163
14723TIP3   OH265583   3.140   0.411   1.382  0.0608 -0.1075 -0.2658
14723TIP3    H165584   3.178   0.496   1.403 -0.1926 -0.5512  2.0833
14723TIP3    H265585   3.213   0.350   1.386 -0.3144 -0.4833  1.2447
14724TIP3   OH265586   2.070   6.110   1.657 -0.0661 -0.4140  0.3346
14724TIP3    H165587   2.047   6.038   1.717  0.3461 -0.7315  0.1136
14724TIP3    H265588   2.071   6.069   1.570  0.0639 -0.1164  0.1967
14725TIP3   OH265589   1.761   4.337  13.271  0.4973 -0.5345 -0.3248
14725TIP3    H165590   1.706   4.329  13.193  0.5772  0.1063 -0.4459
14725TIP3    H265591   1.848   4.310  13.242  1.0029  1.7672 -1.0058
14726TIP3   OH265592   6.466   2.489  12.259 -0.1893  0.1310 -0.1331
14726TIP3    H165593   6.485   2.405  12.217  0.1373  0.5747 -0.8887
14726TIP3    H265594   6.386   2.474  12.309  1.3734 -1.4040  1.9809
14727TIP3   OH265595   3.814   2.477  13.487  0.3841  0.3394  0.2446
14727TIP3    H165596   3.886   2.539  13.478  1.6849 -0.9453  1.5071
14727TIP3    H265597   3.800   2.471  13.581 -1.0847  0.2185  0.0293
14728TIP3   OH265598   4.941   5.404  17.114 -0.0716  0.1990  0.1404
14728TIP3    H165599   4.938   5.498  17.135 -2.9921 -0.0627  1.2006
14728TIP3    H265600   4.859   5.370  17.149  1.7545 -3.1155  1.3121
14729TIP3   OH265601   1.849   4.803  15.180  0.2277  0.6760  0.0353
14729TIP3    H165602   1.880   4.713  15.185 -1.7052  0.0359  0.8549
14729TIP3    H265603   1.782   4.802  15.112  0.5855  1.6305 -0.3504
14730TIP3   OH265604   1.146   3.277  13.871  0.1898 -0.4911  0.2147
14730TIP3    H165605   1.226   3.282  13.924 -0.2005 -1.5271  0.9209
14730TIP3    H265606   1.088   3.219  13.921 -0.7939 -0.1894 -0.5665
14731TIP3   OH265607   3.350   6.544   1.475  0.4688 -0.1344 -0.1481
14731TIP3    H165608   3.372   6.474   1.536 -1.7156 -0.5513  0.2041
14731TIP3    H265609   3.348   6.502   1.389 -0.2123 -0.3699 -0.0184
14732TIP3   OH265610   6.329   4.804  15.019 -0.8804  0.3599  0.5863
14732TIP3    H165611   6.423   4.813  15.002 -0.9965  0.9160  0.2408
14732TIP3    H265612   6.304   4.722  14.977 -0.6757  0.5237  0.1428
14733TIP3   OH265613   0.671   3.792  11.136 -0.2399  0.5319  0.3815
14733TIP3    H165614   0.595   3.755  11.182 -1.6017 -1.0207 -2.9285
14733TIP3    H265615   0.634   3.854  11.074  1.1632 -0.2223 -1.2693
14734TIP3   OH265616   5.473   2.301   3.819  0.0990  0.4453  0.4260
14734TIP3    H165617   5.516   2.221   3.791 -0.0395  1.0764 -1.7299
14734TIP3    H265618   5.433   2.280   3.903  2.3424 -0.9309  1.1679
14735TIP3   OH265619   1.236   0.793  11.193 -0.0682  0.0172 -0.0186
14735TIP3    H165620   1.323   0.788  11.232 -0.8599 -2.4321  1.5753
14735TIP3    H265621   1.234   0.721  11.129 -0.7173  0.4545 -0.5020
14736TIP3   OH265622   0.933   0.772  13.789  0.2966 -0.0161 -0.3375
14736TIP3    H165623   0.996   0.724  13.736 -0.6568 -1.9196  0.1673
14736TIP3    H265624   0.968   0.767  13.878  0.1608  0.1695 -0.2728
14737TIP3   OH265625   0.445   5.768   5.104 -0.1826 -0.2042  0.0357
14737TIP3    H165626   0.375   5.794   5.163  0.7578  1.5427  0.4052
14737TIP3    H265627   0.517   5.741   5.161  0.2130  0.0943 -0.3137
14738TIP3   OH265628   6.708   0.628   3.953  0.1132  0.7091 -0.1861
14738TIP3    H165629   6.734   0.548   3.908  0.4454  0.2055  0.8947
14738TIP3    H265630   6.616   0.639   3.929  0.2588  0.4093 -0.9234
14739TIP3   OH265631   4.285   3.337   2.816 -0.0171 -0.4243  0.0344
14739TIP3    H165632   4.375   3.365   2.798  0.5429 -1.2858  1.4169
14739TIP3    H265633   4.260   3.287   2.738 -0.1771  1.8476 -1.4042
14740TIP3   OH265634   2.824   1.311  10.858 -0.3494  0.0857  0.0235
14740TIP3    H165635   2.796   1.249  10.926  0.3103  0.0648  0.2785
14740TIP3    H265636   2.751   1.313  10.796 -0.6371 -0.4743  0.3416
14741TIP3   OH265637   6.161   6.388   1.078  0.6260 -0.2495  0.2193
14741TIP3    H165638   6.230   6.438   1.036 -0.4178  0.9940 -0.0597
14741TIP3    H265639   6.084   6.403   1.023 -0.4942  0.5358  1.9550
14742TIP3   OH265640   1.599   4.779  12.989  0.4349  0.2152 -0.2682
14742TIP3    H165641   1.546   4.754  13.065  0.6719 -0.4433 -0.3169
14742TIP3    H265642   1.614   4.696  12.942  0.8138  0.5254 -0.6998
14743TIP3   OH265643   3.423   1.210   0.973  0.2457  1.2594 -0.1033
14743TIP3    H165644   3.413   1.119   1.000  0.9253  0.9384 -0.9363
14743TIP3    H265645   3.472   1.251   1.045 -0.9397  1.2170  0.7469
14744TIP3   OH265646   4.863   3.291  12.338 -0.4057 -0.3558 -0.3702
14744TIP3    H165647   4.918   3.224  12.378  0.9425 -0.2867 -2.0621
14744TIP3    H265648   4.779   3.283  12.384 -0.0103 -2.6457  0.0225
14745TIP3   OH265649   4.616   4.893   3.338 -0.1762  0.5892  0.4361
14745TIP3    H165650   4.690   4.954   3.341  0.0856  0.2953  0.0055
14745TIP3    H265651   4.597   4.884   3.245 -0.7545  0.6559  0.5445
14746TIP3   OH265652   5.339   0.742   4.129 -0.1339  0.2139  0.6016
14746TIP3    H165653   5.370   0.771   4.044  1.7610  0.4776  1.3570
14746TIP3    H265654   5.298   0.657   4.112 -0.0330  0.3991 -0.6025
14747TIP3   OH265655   0.028   1.747  11.989 -0.5456 -0.4803 -0.3041
14747TIP3    H165656  -0.025   1.755  11.910 -0.5531 -0.3861 -0.2901
14747TIP3    H265657   0.029   1.654  12.009 -0.7018 -0.4828 -0.3091
14748TIP3   OH265658   2.981   2.834   4.769  0.4104 -0.2158  0.0428
14748TIP3    H165659   2.979   2.913   4.824 -2.2508  0.0350 -0.3854
14748TIP3    H265660   2.921   2.773   4.811 -0.2351 -0.7119 -1.5671
14749TIP3   OH265661   5.269   2.246   2.705 -0.3024 -0.1868  0.2497
14749TIP3    H165662   5.193   2.187   2.706 -1.4383  1.2247 -1.3660
14749TIP3    H265663   5.335   2.199   2.655 -0.5616 -0.8557  0.5297
14750TIP3   OH265664   3.925   0.556  15.527 -0.1307  0.1683 -0.1497
14750TIP3    H165665   3.943   0.502  15.604  2.4217  1.6711  0.3766
14750TIP3    H265666   3.954   0.644  15.551 -1.6581  1.2077 -1.9463
14751TIP3   OH265667   6.049   1.956   5.737 -0.0374 -0.0077 -0.1723
14751TIP3    H165668   6.106   1.992   5.805  1.0959 -0.4829 -0.8497
14751TIP3    H265669   6.109   1.912   5.676 -1.0036  0.6016 -1.6066
14752TIP3   OH265670   1.096   6.167   1.953  0.2697 -0.0678  0.4446
14752TIP3    H165671   1.059   6.093   1.904 -0.4572  1.9871 -2.2073
14752TIP3    H265672   1.028   6.190   2.016 -0.6943  0.1439 -0.6554
14753TIP3   OH265673   3.625   4.744   1.048  0.1960 -0.0679 -0.3887
14753TIP3    H165674   3.539   4.771   1.017  0.1093  0.1911  0.0696
14753TIP3    H265675   3.656   4.817   1.101 -0.2527 -1.0396  1.2469
14754TIP3   OH265676   2.913   2.530   3.079  0.0368 -0.3959  0.2721
14754TIP3    H165677   3.007   2.545   3.070 -0.2256  0.0691 -1.9397
14754TIP3    H265678   2.902   2.436   3.064  0.2373 -0.6337  1.5249
14755TIP3   OH265679   0.906   1.420  12.473 -0.3371  0.3523 -0.6268
14755TIP3    H165680   0.825   1.378  12.501 -0.8285 -0.8278 -3.7255
14755TIP3    H265681   0.907   1.503  12.521 -2.8674 -0.0383  0.1860
14756TIP3   OH265682   0.389   0.363  13.585 -0.7269 -0.3304 -0.1068
14756TIP3    H165683   0.445   0.285  13.593  0.2096  0.2261 -1.1293
14756TIP3    H265684   0.361   0.381  13.675  1.9799  0.2804  0.6591
14757TIP3   OH265685   1.218   3.998   3.901  0.2996  0.6640 -0.1822
14757TIP3    H165686   1.182   4.087   3.905 -1.1202  0.0990 -0.2637
14757TIP3    H265687   1.160   3.946   3.955  1.6644 -0.0584  0.6147
14758TIP3   OH265688   3.211   4.605  11.829  0.1660  0.1035  0.0552
14758TIP3    H165689   3.274   4.675  11.843 -0.7515  1.0070 -0.3046
14758TIP3    H265690   3.154   4.638  11.760 -1.6338 -0.0882  1.4284
14759TIP3   OH265691   1.802   1.394  11.863  0.4911  0.2128 -0.0752
14759TIP3    H165692   1.763   1.428  11.783  0.2793 -0.2550 -0.1705
14759TIP3    H265693   1.820   1.472  11.916 -1.0669  0.4067  0.1945
14760TIP3   OH265694   4.984   3.033  13.064 -0.4925  0.5452 -0.2981
14760TIP3    H165695   4.896   3.001  13.041  0.3242 -1.4876 -0.6934
14760TIP3    H265696   5.043   2.963  13.037  1.1610  1.3591  1.1056
14761TIP3   OH265697   0.513   2.879  12.267  0.4298  0.0729  0.0835
14761TIP3    H165698   0.545   2.931  12.193  0.6859 -2.0782 -1.3680
14761TIP3    H265699   0.590   2.868  12.323 -0.3714  3.9650  2.1255
14762TIP3   OH265700   1.376   0.305  17.190  0.5302  0.5727 -0.5025
14762TIP3    H165701   1.425   0.245  17.246 -1.3168  0.4705  1.0608
14762TIP3    H265702   1.365   0.258  17.107  1.0354 -0.3330 -0.0616
14763TIP3   OH265703   5.093   4.575   5.303 -0.4370 -0.3383  0.4587
14763TIP3    H165704   5.142   4.574   5.220 -2.4142 -0.4322 -0.7263
14763TIP3    H265705   5.107   4.662   5.338  0.5698 -0.3547  0.1270
14764TIP3   OH265706   6.522   3.175  16.189  0.5477 -0.2225 -0.3541
14764TIP3    H165707   6.562   3.168  16.276  0.4666  1.5008 -0.1658
14764TIP3    H265708   6.576   3.118  16.133  1.1596 -0.6099  0.6177
14765TIP3   OH265709   3.428   5.060  16.009 -0.1291 -1.1677  0.1499
14765TIP3    H165710   3.516   5.041  16.043  0.2565  0.2976  0.0333
14765TIP3    H265711   3.443   5.082  15.917 -0.4582  0.1830  0.4076
14766TIP3   OH265712   3.679   4.556  12.383  0.1549 -0.7283  0.1380
14766TIP3    H165713   3.768   4.582  12.407 -0.2131  0.7184 -0.0126
14766TIP3    H265714   3.682   4.546  12.288 -0.1339  0.5390 -0.0159
14767TIP3   OH265715   5.638   3.935   5.565  0.3579 -0.5806 -0.2102
14767TIP3    H165716   5.676   4.022   5.551  0.4833 -0.5691  0.1870
14767TIP3    H265717   5.651   3.919   5.659  1.1832 -1.4334 -0.4635
14768TIP3   OH265718   1.442   2.195  12.889  0.0748 -0.1568  0.2151
14768TIP3    H165719   1.484   2.153  12.813  0.5670 -0.2157  0.5155
14768TIP3    H265720   1.498   2.270  12.908 -0.6353  0.4631 -0.1306
14769TIP3   OH265721   4.696   0.151   0.666  0.4551 -0.3640  0.1260
14769TIP3    H165722   4.668   0.066   0.630 -0.4677  0.5286 -1.2971
14769TIP3    H265723   4.767   0.179   0.609 -1.9055  1.6985 -1.9304
14770TIP3   OH265724   6.631   2.957   2.611 -0.2262 -0.2029  0.4566
14770TIP3    H165725   6.645   2.938   2.704 -1.1197 -3.6757 -0.0891
14770TIP3    H265726   6.538   2.978   2.604 -0.4361 -1.2109  0.1562
14771TIP3   OH265727   5.805   4.409   0.622  0.2117 -0.5658  0.5681
14771TIP3    H165728   5.779   4.320   0.598 -1.2247 -0.5166  1.8150
14771TIP3    H265729   5.869   4.434   0.555 -0.2650 -2.0773 -0.5010
14772TIP3   OH265730   0.942   3.805  12.426  0.0951 -0.3230 -0.1250
14772TIP3    H165731   0.869   3.763  12.380  0.4502  0.8815 -1.8329
14772TIP3    H265732   0.909   3.818  12.515 -1.6957 -0.0431 -0.7906
14773TIP3   OH265733   4.192   3.447   0.222  0.0164  0.3739 -0.8370
14773TIP3    H165734   4.213   3.366   0.269  1.9575  0.7736 -0.9763
14773TIP3    H265735   4.191   3.421   0.129  0.6216  0.4829 -0.8803
14774TIP3   OH265736   2.191   0.546  12.442  0.2393 -0.2920 -0.2026
14774TIP3    H165737   2.140   0.466  12.456  1.8377 -1.2036  0.6496
14774TIP3    H265738   2.190   0.591  12.526  0.0971  0.1375 -0.4329
14775TIP3   OH265739   5.359   5.236  13.886 -0.1483 -0.1723  0.5536
14775TIP3    H165740   5.437   5.212  13.837 -1.3586 -0.0628 -1.4503
14775TIP3    H265741   5.393   5.268  13.970  1.9359 -0.2735 -0.2179
14776TIP3   OH265742   3.451   1.451  16.210  0.2301 -0.3698  0.6667
14776TIP3    H165743   3.418   1.534  16.175  0.7161  0.4684  2.1121
14776TIP3    H265744   3.532   1.435  16.161  0.2101  0.0944  0.4812
14777TIP3   OH265745   5.448   6.392   3.500 -0.2934 -0.7473 -0.0552
14777TIP3    H165746   5.454   6.377   3.406 -1.2291 -0.5830 -0.1447
14777TIP3    H265747   5.496   6.319   3.539  0.4937 -0.5623 -0.6682
14778TIP3   OH265748   0.944   5.456  11.558  0.0882 -0.4215  0.2818
14778TIP3    H165749   0.889   5.436  11.633  1.4635 -0.0631  1.3983
14778TIP3    H265750   0.947   5.374  11.508 -2.4159 -0.1007 -0.4296
14779TIP3   OH265751   5.615   6.726  12.138 -0.1175 -0.3763  0.0031
14779TIP3    H165752   5.649   6.669  12.068  0.7406  0.4249 -0.2412
14779TIP3    H265753   5.527   6.750  12.108 -0.7572 -2.0896  0.4252
14780TIP3   OH265754   2.164   3.878   0.793 -0.3388 -0.4237 -0.1279
14780TIP3    H165755   2.152   3.931   0.714  0.8365  2.7487  1.7455
14780TIP3    H265756   2.258   3.876   0.808 -0.4974 -1.5269  0.8561
14781TIP3   OH265757   5.243   1.039  13.581 -0.0805 -0.6312  0.3649
14781TIP3    H165758   5.235   1.041  13.485  0.3179 -0.4794  0.3306
14781TIP3    H265759   5.246   0.946  13.603  2.6825 -0.7027 -0.0479
14782TIP3   OH265760   3.408   5.817   1.554  0.2488  0.1877 -0.4122
14782TIP3    H165761   3.426   5.828   1.461 -0.0495 -0.9992 -0.6142
14782TIP3    H265762   3.332   5.872   1.571 -0.1226 -0.1248 -1.0274
14783TIP3   OH265763   4.117   0.925  11.184 -0.6509 -0.7235  0.3348
14783TIP3    H165764   4.038   0.975  11.204 -0.5616 -0.5726  0.3048
14783TIP3    H265765   4.091   0.834  11.199 -0.3777 -0.5600  1.7954
14784TIP3   OH265766   1.858   2.031  11.453  0.2257 -0.9481 -0.1804
14784TIP3    H165767   1.931   1.974  11.477  1.0249  0.4364  0.7439
14784TIP3    H265768   1.882   2.067  11.367  1.3062  0.5803  0.7398
14785TIP3   OH265769   0.682   1.608  13.001 -0.7633 -0.2756 -0.3193
14785TIP3    H165770   0.777   1.608  12.995 -0.6708  0.2504  0.9281
14785TIP3    H265771   0.652   1.640  12.916  0.0395 -4.0481 -2.1298
14786TIP3   OH265772   5.622   3.703  16.751  0.6874  0.2275  0.1898
14786TIP3    H165773   5.644   3.755  16.673  2.0845  0.8164  0.9596
14786TIP3    H265774   5.622   3.766  16.823 -1.6009 -0.1213  0.5437
14787TIP3   OH265775   2.403   1.796  14.069  0.3094  0.0115 -0.2147
14787TIP3    H165776   2.446   1.848  14.001  0.3295 -1.2171 -1.1631
14787TIP3    H265777   2.312   1.789  14.040 -0.0037  0.6370  0.5972
14788TIP3   OH265778   5.950   1.097  16.660  0.2350 -0.7898 -0.2428
14788TIP3    H165779   5.984   1.184  16.682 -0.0248 -0.7506 -0.0007
14788TIP3    H265780   6.009   1.037  16.706 -1.1929 -0.6719  1.7936
14789TIP3   OH265781   0.257   3.116   0.872 -0.4821 -0.5408  0.2739
14789TIP3    H165782   0.255   3.198   0.921 -1.7349 -0.7786  0.6245
14789TIP3    H265783   0.296   3.053   0.933 -1.5688 -0.7168  0.8047
14790TIP3   OH265784   3.977   0.761   1.766  0.0177  0.4886  0.0533
14790TIP3    H165785   3.971   0.818   1.689  1.7882 -0.1724 -0.6072
14790TIP3    H265786   3.987   0.673   1.729  0.7582  0.1482  1.0388
14791TIP3   OH265787   2.970   0.971  17.075 -1.0520 -0.2586 -0.2609
14791TIP3    H165788   2.995   0.982  17.166 -0.6176 -0.3409 -0.3699
14791TIP3    H265789   2.960   1.060  17.042 -3.3960 -0.2137  0.4687
14792TIP3   OH265790   5.743   2.837  11.566 -0.6921  0.3835  0.2485
14792TIP3    H165791   5.730   2.920  11.520 -2.0063 -0.7432 -1.4409
14792TIP3    H265792   5.827   2.848  11.610  2.5295  0.1794 -5.4219
14793TIP3   OH265793   4.578   4.317   4.813  0.5761  0.1432 -0.2725
14793TIP3    H165794   4.514   4.253   4.783  0.0188  0.5266  0.0870
14793TIP3    H265795   4.526   4.392   4.842  1.1274  0.0374  1.0380
14794TIP3   OH265796   4.391   1.932  10.772  0.3716 -0.8361 -0.4615
14794TIP3    H165797   4.439   2.004  10.730 -1.3204 -0.4486 -1.8347
14794TIP3    H265798   4.422   1.853  10.727  0.1216 -0.6424 -0.9811
14795TIP3   OH265799   3.383   3.845  12.628  0.2508  0.0006 -0.3187
14795TIP3    H165800   3.462   3.858  12.681  0.2605 -0.1115 -0.3052
14795TIP3    H265801   3.350   3.934  12.612 -0.6654 -0.0500  1.2435
14796TIP3   OH265802   2.577   1.510   0.924  0.3427  0.4739  0.3566
14796TIP3    H165803   2.635   1.435   0.919 -1.8685 -1.3076  0.6419
14796TIP3    H265804   2.622   1.579   0.874  1.8556 -1.3832 -0.8913
14797TIP3   OH265805   5.195   5.682  13.258  0.1674 -0.2207 -0.5758
14797TIP3    H165806   5.239   5.619  13.315 -0.0850  0.6692  0.6239
14797TIP3    H265807   5.122   5.633  13.220  0.7751 -1.0297 -0.7210
14798TIP3   OH265808   3.771   1.468  12.645 -0.5455  0.0564 -0.4232
14798TIP3    H165809   3.837   1.537  12.636  0.1848 -0.5376  0.2552
14798TIP3    H265810   3.757   1.460  12.739 -0.8355 -0.5184 -0.5119
14799TIP3   OH265811   1.085   3.543  15.368 -0.3107  0.0139 -0.7489
14799TIP3    H165812   1.097   3.522  15.460 -0.3122  0.1990 -0.7054
14799TIP3    H265813   1.052   3.462  15.329  0.2776 -0.2469 -0.7096
14800TIP3   OH265814   3.130   5.754   2.658 -0.3431 -0.0189  0.1269
14800TIP3    H165815   3.128   5.773   2.752 -0.9619  3.9307 -0.5824
14800TIP3    H265816   3.220   5.727   2.641  0.1150  0.4856  1.6575
14801TIP3   OH265817   2.272   6.498  14.378 -0.0491 -0.5434 -0.1220
14801TIP3    H165818   2.337   6.434  14.409  1.1329  0.5898 -0.2492
14801TIP3    H265819   2.324   6.571  14.345 -1.4174  0.9428  0.9745
14802TIP3   OH265820   6.677   6.134  16.844 -0.0813 -0.4835 -0.1709
14802TIP3    H165821   6.594   6.133  16.893  0.7637  1.5894  1.4242
14802TIP3    H265822   6.680   6.222  16.805  1.4439 -0.4676 -0.0438
14803TIP3   OH265823   4.589   1.764  13.158 -0.2972  0.2873 -0.2705
14803TIP3    H165824   4.606   1.671  13.171 -0.3898  0.2477 -0.4354
14803TIP3    H265825   4.535   1.768  13.079  0.5619  0.5563 -0.8495
14804TIP3   OH265826   1.381   0.598  11.927  0.1290  0.5371  0.4214
14804TIP3    H165827   1.464   0.598  11.879  0.0369  0.8608  0.2610
14804TIP3    H265828   1.407   0.595  12.019  0.3471  1.7731  0.4141
14805TIP3   OH265829   0.254   4.888   4.751 -0.0144 -0.0283  0.4572
14805TIP3    H165830   0.269   4.822   4.683  1.1214  0.4357  0.2614
14805TIP3    H265831   0.265   4.840   4.833  0.0525 -0.2561  0.3158
14806TIP3   OH265832   5.962   0.377   1.422  0.2246  0.3728  1.0118
14806TIP3    H165833   5.977   0.283   1.430 -1.0001  0.1134  0.2711
14806TIP3    H265834   5.969   0.410   1.512  0.0267 -0.5097  1.3528
14807TIP3   OH265835   3.423   3.453  13.307 -0.6052 -0.2210  0.5537
14807TIP3    H165836   3.496   3.497  13.351 -0.9574  1.2827 -0.3218
14807TIP3    H265837   3.363   3.428  13.377 -0.6932  1.2559  1.0138
14808TIP3   OH265838   6.133   5.840   6.110 -0.2408 -0.4371  0.3423
14808TIP3    H165839   6.165   5.808   6.194 -1.4908  1.1800  1.4791
14808TIP3    H265840   6.043   5.808   6.103 -0.1234 -0.6216 -0.4046
14809TIP3   OH265841   2.845   0.022   5.209 -0.3621 -0.4970  0.4157
14809TIP3    H165842   2.892  -0.013   5.132  1.3473 -0.9104  1.6087
14809TIP3    H265843   2.882  -0.027   5.283 -0.8520  1.0212  1.6766
14810TIP3   OH265844   4.885   4.296   2.698 -0.2789 -0.1777  0.0339
14810TIP3    H165845   4.972   4.290   2.657  0.0316  0.5747  0.5552
14810TIP3    H265846   4.894   4.245   2.779 -0.8514 -1.5560 -0.7647
14811TIP3   OH265847   0.530   3.763   0.239  0.0391  0.1405 -0.3359
14811TIP3    H165848   0.601   3.799   0.186 -1.0272  1.3859 -0.9396
14811TIP3    H265849   0.570   3.748   0.325  1.5596 -1.1070 -1.2216
14812TIP3   OH265850   6.637   3.072   5.064  0.2793 -0.2319 -0.0254
14812TIP3    H165851   6.556   3.032   5.032 -0.0932  0.3880  0.1332
14812TIP3    H265852   6.703   3.003   5.055 -0.2487 -0.7148 -0.2266
14813TIP3   OH265853   3.510   0.923  16.119  0.3664  0.1964  0.1067
14813TIP3    H165854   3.540   0.996  16.065 -0.3133 -0.5225 -1.2852
14813TIP3    H265855   3.414   0.928  16.115  0.3125 -0.6493  0.1496
14814TIP3   OH265856   6.585   1.667  14.127  0.4316 -0.1289 -0.5296
14814TIP3    H165857   6.532   1.744  14.151  1.9975  0.7405  0.2511
14814TIP3    H265858   6.622   1.638  14.210  1.1494 -0.7427 -1.0673
14815TIP3   OH265859   3.874   0.405   2.506 -0.6420  0.5355 -0.0406
14815TIP3    H165860   3.933   0.366   2.442 -0.6819  2.8527 -1.5326
14815TIP3    H265861   3.928   0.419   2.584  0.1174  0.2768 -0.5270
14816TIP3   OH265862   4.074   0.757   2.763 -0.1374  0.1276  0.1225
14816TIP3    H165863   4.087   0.745   2.857  0.7490 -1.8403 -0.2167
14816TIP3    H265864   4.016   0.685   2.738 -0.9606  1.0658 -0.7307
14817TIP3   OH265865   5.381   6.197  16.235  0.2849  0.3293 -0.0518
14817TIP3    H165866   5.475   6.207  16.223  0.3719 -1.2082 -0.7643
14817TIP3    H265867   5.371   6.164  16.324  0.4243  0.4034 -0.0090
14818TIP3   OH265868   3.945   4.451   2.967  0.2116  0.3624 -0.2815
14818TIP3    H165869   3.978   4.411   3.047 -1.2139 -0.0393  0.1192
14818TIP3    H265870   3.877   4.512   2.996 -0.0004  0.5435 -1.1388
14819TIP3   OH265871   5.015   1.692   0.796 -0.1089 -0.0680  0.0972
14819TIP3    H165872   4.949   1.754   0.830 -0.5623 -0.3648 -0.2334
14819TIP3    H265873   5.039   1.728   0.711 -0.0628 -0.1200  0.0888
14820TIP3   OH265874   0.592   2.107  14.568 -0.4343 -0.1778 -0.0342
14820TIP3    H165875   0.513   2.054  14.559  0.7347 -2.3564  1.7578
14820TIP3    H265876   0.584   2.148  14.654 -0.1461  0.5287 -0.3405
14821TIP3   OH265877   0.181   1.636  15.515  0.1301 -0.8802  0.3181
14821TIP3    H165878   0.201   1.570  15.582  2.0357  0.0844  0.7328
14821TIP3    H265879   0.134   1.704  15.562  1.1198 -0.3895  0.6260
14822TIP3   OH265880   0.627   4.909  11.993  0.4024  0.0407  0.8048
14822TIP3    H165881   0.650   4.883  12.082  1.4826 -1.1707  0.1908
14822TIP3    H265882   0.610   4.826  11.948  1.3748  0.5450 -0.5204
14823TIP3   OH265883   4.840   2.149  16.558  0.4021 -0.0119  0.0968
14823TIP3    H165884   4.845   2.071  16.612  1.8677  0.0312  0.0569
14823TIP3    H265885   4.752   2.183  16.572  0.1226 -1.0644  0.9520
14824TIP3   OH265886   4.059   5.747  10.879 -0.5629  0.0899 -0.4104
14824TIP3    H165887   4.025   5.735  10.790 -1.9735 -3.2011  0.5005
14824TIP3    H265888   4.045   5.662  10.922  2.3380  0.8253  2.2140
14825TIP3   OH265889   0.698   1.945   4.009  0.1021 -0.4170  0.1931
14825TIP3    H165890   0.654   2.008   3.954 -0.2740 -0.2223  0.7162
14825TIP3    H265891   0.721   1.873   3.950  0.4866  0.1773 -0.3887
14826TIP3   OH265892   2.939   6.036   4.187 -0.5636 -1.0055  0.4015
14826TIP3    H165893   2.933   6.065   4.096 -2.8823  0.9850  1.1093
14826TIP3    H265894   2.917   5.943   4.184 -1.9030 -0.6809 -0.9539
14827TIP3   OH265895   2.741   6.783   0.232  0.0030  0.2992 -0.2625
14827TIP3    H165896   2.748   6.687   0.234 -1.2411  0.2202  0.2239
14827TIP3    H265897   2.662   6.803   0.281  0.5299  1.6197  0.0787
14828TIP3   OH265898   4.999   2.547  13.455 -0.2458  0.1450 -0.1671
14828TIP3    H165899   4.975   2.580  13.369 -1.2181  1.5272  0.6176
14828TIP3    H265900   4.949   2.600  13.516 -0.4947 -1.6243  1.2176
14829TIP3   OH265901   1.121   2.176   5.169  0.2640 -0.1611 -0.0500
14829TIP3    H165902   1.191   2.121   5.203  0.9275  0.2830 -0.7062
14829TIP3    H265903   1.041   2.125   5.184  1.0161 -2.0421 -2.1590
14830TIP3   OH265904   1.217   3.253   4.878 -0.7413  0.2132 -0.2547
14830TIP3    H165905   1.267   3.252   4.797  1.0783 -1.5716  0.8489
14830TIP3    H265906   1.274   3.299   4.941 -0.8615 -1.0132  0.7667
14831TIP3   OH265907   5.935   0.648  13.662 -0.2184 -0.1346 -0.3794
14831TIP3    H165908   5.860   0.590  13.652  0.3297 -1.3905  2.1688
14831TIP3    H265909   5.943   0.660  13.757  2.2119  0.7480 -0.6562
14832TIP3   OH265910   4.359   4.336   3.636  0.1459  0.8986 -0.3296
14832TIP3    H165911   4.419   4.379   3.697  1.1613 -2.6659  1.2998
14832TIP3    H265912   4.412   4.321   3.558  0.4602  0.5366 -0.0474
14833TIP3   OH265913   3.634   1.969  15.782  0.1435 -0.8604  0.1001
14833TIP3    H165914   3.605   1.933  15.865  0.5115  1.4794  1.2800
14833TIP3    H265915   3.553   1.985  15.733 -0.4250  2.0857  1.8772
14834TIP3   OH265916   2.994   5.682  12.788 -0.1680  0.1332  0.0258
14834TIP3    H165917   3.001   5.589  12.765 -0.9485  0.3419 -1.1091
14834TIP3    H265918   3.079   5.704  12.826  0.2457 -0.8939 -0.2885
14835TIP3   OH265919   4.682   5.648   0.237  0.5590 -0.1033 -0.6302
14835TIP3    H165920   4.663   5.702   0.313  1.0687  0.3214 -0.7998
14835TIP3    H265921   4.596   5.630   0.198  0.3027 -0.2872  0.0112
14836TIP3   OH265922   3.671   4.206  10.682 -0.4507 -0.2157  0.2814
14836TIP3    H165923   3.686   4.196  10.776  1.1306  1.0045  0.1949
14836TIP3    H265924   3.610   4.280  10.675 -1.3346 -0.9359  0.3874
14837TIP3   OH265925   5.522   1.494   1.667 -0.0631  0.3234 -0.3392
14837TIP3    H165926   5.577   1.531   1.736  0.1389  0.6905 -0.6881
14837TIP3    H265927   5.498   1.570   1.613  0.0155 -0.0001 -0.8276
14838TIP3   OH265928   6.017   1.186  13.162  0.2362  0.4034 -0.1000
14838TIP3    H165929   6.052   1.270  13.131  0.8951  0.7080  1.4536
14838TIP3    H265930   6.038   1.124  13.092 -1.0151  1.6850 -1.6529
14839TIP3   OH265931   1.827   2.822  13.912  0.2271  0.2382  0.0737
14839TIP3    H165932   1.879   2.901  13.895  0.7829  0.0681  0.9682
14839TIP3    H265933   1.797   2.832  14.002 -2.6177  1.0755 -0.8987
14840TIP3   OH265934   6.159   3.390   3.629 -0.4169 -0.0175  0.3579
14840TIP3    H165935   6.130   3.379   3.720  1.1463 -1.4960  0.7056
14840TIP3    H265936   6.252   3.370   3.631 -0.4110 -0.2601 -1.6162
14841TIP3   OH265937   4.791   6.429  12.767  0.3806  0.1035  0.4774
14841TIP3    H165938   4.745   6.374  12.703  1.6365 -0.3384 -0.0460
14841TIP3    H265939   4.747   6.514  12.762  0.1602 -0.0764 -0.6124
14842TIP3   OH265940   0.848   2.080   0.781  0.0512  0.5661 -0.8301
14842TIP3    H165941   0.848   1.984   0.780 -0.5735  0.5103  1.5221
14842TIP3    H265942   0.915   2.104   0.718  2.5824 -1.4887  0.9463
14843TIP3   OH265943   3.268   5.299   0.029 -0.2013  0.4797  0.1677
14843TIP3    H165944   3.257   5.386  -0.011 -0.7205  0.1750 -0.3691
14843TIP3    H265945   3.333   5.256  -0.026 -1.9878 -0.4734 -1.2799
14844TIP3   OH265946   6.426   5.044  14.610 -0.5245 -0.0417  0.2560
14844TIP3    H165947   6.377   5.028  14.529 -1.6651  1.8924  0.5310
14844TIP3    H265948   6.518   5.035  14.585 -0.8630  0.7949 -1.3326
14845TIP3   OH265949   0.576   4.503  14.933 -0.0069 -0.0920 -0.5873
14845TIP3    H165950   0.534   4.476  14.852 -0.8838 -0.2927 -0.0660
14845TIP3    H265951   0.667   4.472  14.924 -0.5151 -1.5563 -0.7985
14846TIP3   OH265952   3.216   6.355   2.458 -0.5274  0.8540 -0.4499
14846TIP3    H165953   3.223   6.447   2.486 -1.5406  1.1048 -0.9668
14846TIP3    H265954   3.168   6.360   2.375 -0.7572 -0.1599 -0.3760
14847TIP3   OH265955   6.488   4.463  15.592 -0.1589 -0.1453  0.0843
14847TIP3    H165956   6.573   4.458  15.547 -0.2378  1.5965 -0.3002
14847TIP3    H265957   6.501   4.531  15.659 -1.3699  0.4464 -0.2714
14848TIP3   OH265958   6.016   5.604   5.020 -0.3654  0.0871  0.6241
14848TIP3    H165959   6.023   5.660   5.098 -1.5855 -1.2194  1.7201
14848TIP3    H265960   6.106   5.587   4.993  0.0207  2.3172  0.4537
14849TIP3   OH265961   5.831   6.766  12.297 -0.0755  0.2226 -0.1135
14849TIP3    H165962   5.825   6.738  12.388 -0.4882  0.3054 -0.1136
14849TIP3    H265963   5.747   6.741  12.259 -0.2872  1.1056 -0.2189
14850TIP3   OH265964   4.323   0.495  15.459  0.0125 -0.1298 -0.6153
14850TIP3    H165965   4.314   0.530  15.547  0.9449  0.9349 -0.9293
14850TIP3    H265966   4.417   0.496  15.442 -0.1821 -0.0104 -1.7540
14851TIP3   OH265967   4.885   5.764  15.325 -0.0525  0.6521  0.3239
14851TIP3    H165968   4.953   5.720  15.376  0.8189  2.5713  0.8626
14851TIP3    H265969   4.904   5.858  15.335 -1.2873  1.1334 -1.5767
14852TIP3   OH265970   1.901   2.279  12.510  0.1294 -0.0162  0.8335
14852TIP3    H165971   1.926   2.371  12.497  0.5129  0.0319  1.7973
14852TIP3    H265972   1.809   2.274  12.484  0.5450  0.2914 -0.7223
14853TIP3   OH265973   1.374   2.969  14.625 -0.3652 -0.2095  0.4439
14853TIP3    H165974   1.448   3.004  14.674 -0.5773  0.8070  0.0524
14853TIP3    H265975   1.404   2.884  14.593  0.6156  0.1882  0.3017
14854TIP3   OH265976   2.166   4.759  14.043  0.1861 -0.2988  0.1218
14854TIP3    H165977   2.210   4.781  14.125  1.4305 -0.6186 -0.4506
14854TIP3    H265978   2.149   4.665  14.049 -2.6863  0.2613  1.4054
14855TIP3   OH265979   3.732   0.773  16.631 -0.0773 -0.1355  0.1172
14855TIP3    H165980   3.753   0.777  16.538  1.7483  2.4969  0.5981
14855TIP3    H265981   3.681   0.853  16.648  0.2542 -0.2186  1.5330
14856TIP3   OH265982   5.787   2.916   4.026  0.5459  0.1451 -0.2043
14856TIP3    H165983   5.800   2.883   3.937  1.2031  0.0391 -0.0744
14856TIP3    H265984   5.730   2.851   4.068  0.0786  0.2955 -0.6059
14857TIP3   OH265985   0.455   3.554  14.488 -0.0523  0.0349 -0.4800
14857TIP3    H165986   0.414   3.536  14.573 -1.2481 -0.5116 -1.1608
14857TIP3    H265987   0.518   3.482  14.476  3.0009  2.2139  1.7107
14858TIP3   OH265988   4.853   2.417   0.041 -0.6643 -0.8702 -0.0254
14858TIP3    H165989   4.851   2.512   0.053  3.1631 -0.7444  0.1380
14858TIP3    H265990   4.844   2.404  -0.053 -0.3297 -0.3176 -0.1316
14859TIP3   OH265991   0.459   5.757  11.262 -0.1109 -0.3085  0.1019
14859TIP3    H165992   0.444   5.730  11.172  0.2136 -2.3874  0.6518
14859TIP3    H265993   0.378   5.799  11.289  0.0962  1.0975 -1.4251
14860TIP3   OH265994   0.848   4.615  13.360 -0.5444  0.4703  0.0274
14860TIP3    H165995   0.829   4.586  13.450 -1.1534  2.3225  0.5273
14860TIP3    H265996   0.935   4.655  13.367 -0.8801  1.2155 -0.0634
14861TIP3   OH265997   5.427   1.621   2.850  0.0031 -0.1978 -0.0110
14861TIP3    H165998   5.402   1.530   2.863  0.6208 -0.0882  2.2369
14861TIP3    H265999   5.347   1.671   2.866  0.2890 -0.1908  1.4164
14862TIP3   OH266000   4.324   0.516  13.313 -0.2373 -0.2566 -0.7963
14862TIP3    H166001   4.411   0.531  13.278 -0.9013 -1.0890 -2.8743
14862TIP3    H266002   4.267   0.517  13.237 -2.2253  1.4183  0.6435
14863TIP3   OH266003   1.793   3.005   4.031 -0.4957 -0.2981 -0.2162
14863TIP3    H166004   1.727   3.073   4.044  0.7690  0.8275  0.4280
14863TIP3    H266005   1.767   2.935   4.091 -2.1120 -0.6401 -1.2857
14864TIP3   OH266006   1.751   1.922  15.513 -0.5350  0.4119 -0.1834
14864TIP3    H166007   1.837   1.939  15.476 -0.5949  1.0335 -0.0460
14864TIP3    H266008   1.762   1.937  15.607  0.2890 -3.7649  0.4785
14865TIP3   OH266009   2.503   6.755   5.829  0.2863 -0.4940 -0.3927
14865TIP3    H166010   2.590   6.736   5.793  2.0830  3.7050  1.4499
14865TIP3    H266011   2.508   6.724   5.920 -0.7455 -1.7101 -0.7359
14866TIP3   OH266012   1.525   4.696  16.869 -0.0579  0.1738  0.3717
14866TIP3    H166013   1.476   4.743  16.801 -1.0962 -1.3781  0.0256
14866TIP3    H266014   1.486   4.609  16.871  0.5058 -0.0615  2.3962
14867TIP3   OH266015   1.810   3.578   1.068  0.1502 -0.2765  0.2840
14867TIP3    H166016   1.779   3.525   0.995 -0.7424 -1.8573  1.7897
14867TIP3    H266017   1.900   3.548   1.082 -0.3334 -1.3664  1.0963
14868TIP3   OH266018   2.567   3.321  14.705  0.1931  0.2234  0.0159
14868TIP3    H166019   2.572   3.249  14.643  1.7390  0.0979  0.2758
14868TIP3    H266020   2.539   3.396  14.652 -1.0787 -0.4691 -0.3158
14869TIP3   OH266021   0.024   0.235  14.510 -0.0425  0.2406  0.2171
14869TIP3    H166022   0.042   0.144  14.532  1.6174  0.4962  0.0060
14869TIP3    H266023  -0.068   0.235  14.482  0.0409 -1.4295 -0.1355
14870TIP3   OH266024   1.025   4.193   6.020  0.2539  0.1398 -0.2807
14870TIP3    H166025   0.961   4.158   6.082 -0.0067  0.9122 -0.0971
14870TIP3    H266026   1.109   4.183   6.064  0.2199 -0.5546 -0.3721
14871TIP3   OH266027   4.908   3.029   4.009  0.1907  0.6328  0.7704
14871TIP3    H166028   4.843   3.088   3.971  1.1555  1.2027 -0.0363
14871TIP3    H266029   4.926   2.965   3.940  1.4708  1.2860  0.4688
14872TIP3   OH266030   0.073   4.249   2.399 -0.5490 -0.4604  0.7534
14872TIP3    H166031   0.059   4.326   2.344 -0.9126 -0.2229  1.1757
14872TIP3    H266032   0.032   4.177   2.351 -3.3758  0.2407  2.0154
14873TIP3   OH266033   1.242   1.357   1.306  0.1347  0.0045 -0.3910
14873TIP3    H166034   1.152   1.371   1.277  0.1246  1.8935  0.5161
14873TIP3    H266035   1.278   1.445   1.316  1.8048 -0.7243  0.1330
14874TIP3   OH266036   3.887   3.797   6.304 -0.4889  0.1906 -0.1416
14874TIP3    H166037   3.921   3.862   6.365 -0.0096  0.2102 -0.4260
14874TIP3    H266038   3.928   3.818   6.220  0.6533 -1.2448  0.0473
14875TIP3   OH266039   6.073   4.581  15.513 -0.4427 -0.3079 -0.0900
14875TIP3    H166040   6.114   4.557  15.595 -2.7073 -3.0053  0.3328
14875TIP3    H266041   6.022   4.660  15.534 -0.0735 -0.2978  0.7770
14876TIP3   OH266042   0.111   2.257  16.381 -0.3960  0.1813  0.7000
14876TIP3    H166043   0.135   2.310  16.457  0.9058 -0.4065  0.7238
14876TIP3    H266044   0.016   2.250  16.385 -0.3643  0.3676  2.1393
14877TIP3   OH266045   2.491   4.486   2.519  0.5594  0.1342  0.5217
14877TIP3    H166046   2.526   4.397   2.528 -1.5551 -0.7631  0.2780
14877TIP3    H266047   2.410   4.474   2.469 -1.3502  1.7950  3.0904
14878TIP3   OH266048   0.645   6.335  13.039  0.3589  0.0311  0.0602
14878TIP3    H166049   0.602   6.418  13.059 -0.3430 -0.1125 -0.8447
14878TIP3    H266050   0.733   6.360  13.010 -0.0692  0.4985 -0.8385
14879TIP3   OH266051   1.295   2.274  15.776 -0.3769  0.2025 -0.2152
14879TIP3    H166052   1.299   2.199  15.835 -0.1352  0.1504 -0.2958
14879TIP3    H266053   1.214   2.262  15.727 -0.5327  0.1991  0.0468
14880TIP3   OH266054   2.571   0.956  11.944  0.2500 -0.1907  0.0440
14880TIP3    H166055   2.591   0.932  12.034 -1.8030  0.9708  0.8395
14880TIP3    H266056   2.542   1.047  11.949  0.8745  0.1439 -1.9089
14881TIP3   OH266057   6.591   3.880  12.918  0.1819 -0.3359  0.0206
14881TIP3    H166058   6.501   3.881  12.950  0.3992  2.9453  0.6523
14881TIP3    H266059   6.645   3.889  12.996  1.0445 -1.5467 -0.4241
14882TIP3   OH266060   0.245   2.017  11.086 -0.0264  0.5066  0.1031
14882TIP3    H166061   0.321   2.069  11.112 -1.6981  2.0884  1.9815
14882TIP3    H266062   0.183   2.081  11.052 -0.2966 -0.8583 -2.1055
14883TIP3   OH266063   5.698   3.757  12.427  0.2830  0.4181  0.3676
14883TIP3    H166064   5.713   3.664  12.446  1.8112  0.6137  0.1727
14883TIP3    H266065   5.784   3.791  12.402 -0.9362  1.0599 -3.1914
14884TIP3   OH266066   0.236   3.841  17.037  0.4015  0.1448 -0.0339
14884TIP3    H166067   0.149   3.817  17.069  1.0514 -1.8461  0.3355
14884TIP3    H266068   0.250   3.786  16.961  1.6232 -0.0881  0.3459
14885TIP3   OH266069   0.073   0.562  11.427 -0.3732 -0.5400  0.5941
14885TIP3    H166070   0.033   0.613  11.497  0.7500 -0.0370  0.8702
14885TIP3    H266071   0.084   0.624  11.355  1.0502 -0.3561  0.9517
14886TIP3   OH266072   2.811   6.687  15.127  0.2235  1.2787  0.5479
14886TIP3    H166073   2.875   6.673  15.197  1.7058  0.5322 -0.9158
14886TIP3    H266074   2.836   6.624  15.059 -3.3118 -0.4605  0.7429
14887TIP3   OH266075   5.037   0.149   3.729 -0.2868  0.0979  0.6054
14887TIP3    H166076   5.124   0.114   3.707  0.0053  1.4039 -0.3527
14887TIP3    H266077   5.019   0.113   3.816 -0.0161 -2.4656 -0.3324
14888TIP3   OH266078   4.631   2.799  11.469 -0.5338 -0.4818 -0.1231
14888TIP3    H166079   4.576   2.869  11.506 -0.3878 -0.2424 -0.3558
14888TIP3    H266080   4.575   2.758  11.403 -0.4282 -0.2212 -0.3778
14889TIP3   OH266081   2.582   4.392   2.102  0.2064 -0.2007 -0.0590
14889TIP3    H166082   2.561   4.400   2.009 -1.3650  0.6184  0.3428
14889TIP3    H266083   2.661   4.339   2.104  0.3852 -0.0453 -1.8761
14890TIP3   OH266084   4.576   0.145   2.115 -0.3378  0.2876  0.1512
14890TIP3    H166085   4.602   0.095   2.192  0.7460  0.7016  0.0605
14890TIP3    H266086   4.537   0.225   2.150  0.3848  0.5912  0.2784
14891TIP3   OH266087   0.297   3.881   2.965 -0.2776 -0.4565  0.6812
14891TIP3    H166088   0.289   3.790   2.993 -1.0628 -0.1215  1.5778
14891TIP3    H266089   0.355   3.878   2.889 -1.1136 -1.8264  0.0757
14892TIP3   OH266090   3.262   3.215  12.652  0.3482 -0.3309  0.0881
14892TIP3    H166091   3.321   3.142  12.672  0.0897 -0.2845  1.0374
14892TIP3    H266092   3.302   3.258  12.576  0.9061 -1.0080 -0.0049
14893TIP3   OH266093   0.566   3.259   0.541 -0.3109 -0.3970  0.1219
14893TIP3    H166094   0.527   3.318   0.477  2.2353  0.8575 -0.3402
14893TIP3    H266095   0.583   3.178   0.493 -1.2529 -0.5511  0.0368
14894TIP3   OH266096   2.754   6.761   1.222  0.4999  0.2482  0.0438
14894TIP3    H166097   2.722   6.744   1.310 -1.3510  0.1417 -0.6359
14894TIP3    H266098   2.846   6.734   1.224  0.1848 -0.7469  1.6419
14895TIP3   OH266099   2.687   0.033   4.125  0.7838  0.2958  0.4718
14895TIP3    H166100   2.697   0.125   4.149  2.8307 -0.4618  2.6239
14895TIP3    H266101   2.775   0.005   4.099  0.4284 -1.3785  1.0086
14896TIP3   OH266102   2.770   5.157  17.035 -0.0256  0.5217  0.1015
14896TIP3    H166103   2.705   5.117  17.092  0.3842  1.3434  1.1706
14896TIP3    H266104   2.831   5.200  17.095  0.6771  0.9961 -0.9391
14897TIP3   OH266105   4.210   4.339  12.616 -0.5817 -0.0921 -0.1882
14897TIP3    H166106   4.231   4.382  12.699 -2.6713  0.2238  0.1882
14897TIP3    H266107   4.197   4.247  12.638 -2.5483  0.2426  0.0781
14898TIP3   OH266108   1.271   5.550  12.849  0.0341 -0.1679  0.4896
14898TIP3    H166109   1.244   5.482  12.787 -0.4443 -0.8990  1.4713
14898TIP3    H266110   1.202   5.616  12.844  0.2957  0.0537 -0.1807
14899TIP3   OH266111   3.347   6.515   6.048  0.4144  0.2712 -0.9051
14899TIP3    H166112   3.419   6.452   6.051  0.8570  0.8139  0.6578
14899TIP3    H266113   3.314   6.517   6.138 -2.2252 -0.7339 -1.8223
14900TIP3   OH266114   3.795   4.546  10.995  0.7782  0.0570 -0.1095
14900TIP3    H166115   3.778   4.640  10.995  1.0610  0.1566  2.1919
14900TIP3    H266116   3.885   4.538  10.963  1.9887  0.9102  2.8413
14901TIP3   OH266117   3.876   2.912  12.919  0.3296  0.5486  0.4326
14901TIP3    H166118   3.825   2.991  12.899 -1.5307 -0.7550 -0.1483
14901TIP3    H266119   3.842   2.882  13.004 -0.6374 -0.8818 -0.4225
14902TIP3   OH266120   5.123   4.755   6.117 -0.1444 -0.2400  0.3215
14902TIP3    H166121   5.143   4.827   6.057  0.5960 -0.9957 -0.3458
14902TIP3    H266122   5.079   4.798   6.191  0.1225  0.8715 -0.1458
14903TIP3   OH266123   2.176   0.925   1.360  0.4590  0.0334 -0.8757
14903TIP3    H166124   2.104   0.988   1.360  0.2857 -0.1517 -2.3660
14903TIP3    H266125   2.135   0.842   1.384  0.8393  0.6156  1.9849
14904TIP3   OH266126   6.065   4.310   6.054  0.4750  0.0147 -0.0325
14904TIP3    H166127   6.091   4.349   5.970 -0.5231  2.1484  0.6075
14904TIP3    H266128   6.106   4.366   6.120  0.0491 -0.7788  0.9266
14905TIP3   OH266129   4.381   1.827  12.177 -0.3112 -0.3116 -0.3117
14905TIP3    H166130   4.463   1.813  12.129  1.1423  1.3935  1.5815
14905TIP3    H266131   4.384   1.919  12.204 -3.4075  0.1061 -1.1839
14906TIP3   OH266132   0.680   3.369  14.513 -0.1712  0.2359 -0.8285
14906TIP3    H166133   0.760   3.367  14.461  0.5056 -1.3153  0.2237
14906TIP3    H266134   0.711   3.360  14.603 -1.5374 -0.4353 -0.4229
14907TIP3   OH266135   6.759   3.367  14.818  0.1127  0.2669 -0.2772
14907TIP3    H166136   6.705   3.425  14.764 -1.0700 -0.0765  0.5151
14907TIP3    H266137   6.767   3.413  14.901  0.3468 -0.0720 -0.1129
14908TIP3   OH266138   5.420   3.927   4.004 -0.1938  0.2009 -0.2181
14908TIP3    H166139   5.413   3.922   4.099 -0.7534 -0.6785 -0.3058
14908TIP3    H266140   5.509   3.896   3.986  0.4686  1.8300  0.1204
14909TIP3   OH266141   5.302   3.063  15.090  0.0118  0.2622 -0.2251
14909TIP3    H166142   5.318   3.136  15.149 -0.9782  1.1760 -1.0744
14909TIP3    H266143   5.320   2.985  15.142 -0.6944  1.0640  1.2314
14910TIP3   OH266144   5.579   4.883   2.652  0.4273  0.0446 -0.1137
14910TIP3    H166145   5.506   4.853   2.705 -0.3896  1.8010 -0.2384
14910TIP3    H266146   5.624   4.947   2.707  0.8455  0.2678 -0.7122
14911TIP3   OH266147   0.847   4.184  15.187 -0.1399 -0.0082 -0.1765
14911TIP3    H166148   0.901   4.117  15.146 -0.8326 -0.4490 -0.3765
14911TIP3    H266149   0.860   4.262  15.133  1.4576  0.3035  0.6448
14912TIP3   OH266150   4.703   5.866   4.211 -0.0680  0.1512 -0.3379
14912TIP3    H166151   4.699   5.873   4.116 -0.1021  3.8915 -0.1222
14912TIP3    H266152   4.638   5.929   4.242  0.4261 -0.5384  2.1729
14913TIP3   OH266153   5.478   5.593  11.212  0.1295 -0.5284 -0.2716
14913TIP3    H166154   5.452   5.557  11.127 -0.7501  0.7071 -0.5359
14913TIP3    H266155   5.483   5.687  11.198 -2.8133  0.0040  1.7260
14914TIP3   OH266156   4.637   5.195   3.081 -0.8013  0.5254  0.0662
14914TIP3    H166157   4.570   5.170   3.145 -0.9555 -0.1964 -0.3658
14914TIP3    H266158   4.705   5.238   3.133 -1.6640  1.4008  0.4884
14915TIP3   OH266159   2.088   4.748   6.539  0.4568  0.2085 -0.0132
14915TIP3    H166160   2.032   4.708   6.606  2.0290  0.2140  1.3275
14915TIP3    H266161   2.128   4.823   6.583  1.9298 -0.1015 -0.7963
14916TIP3   OH266162   1.611   0.791   0.301 -0.5888  0.1172 -0.0180
14916TIP3    H166163   1.626   0.738   0.380  0.7150  0.0884 -0.2701
14916TIP3    H266164   1.534   0.752   0.260  1.2995 -2.6683 -1.0854
14917TIP3   OH266165   1.715   0.394  10.504 -0.7258  0.0729  0.6409
14917TIP3    H166166   1.738   0.477  10.547 -0.4388 -1.3764  3.3966
14917TIP3    H266167   1.626   0.409  10.471 -0.3918  1.7145  0.4240
14918TIP3   OH266168   1.753   4.753   2.779 -0.0952  0.5063 -0.8458
14918TIP3    H166169   1.714   4.796   2.703 -0.7167 -0.0904 -0.8720
14918TIP3    H266170   1.750   4.820   2.848 -0.6555  0.6520 -1.0042
14919TIP3   OH266171   3.125   5.521   3.051  0.2801 -0.6368  0.1030
14919TIP3    H166172   3.138   5.615   3.038 -2.4190 -0.3754 -1.0082
14919TIP3    H266173   3.145   5.507   3.143  0.6192  1.0593  0.3115
14920TIP3   OH266174   5.617   4.815  14.468  0.5945 -0.2651  0.4148
14920TIP3    H166175   5.674   4.863  14.528  0.5305 -0.0816  0.3288
14920TIP3    H266176   5.572   4.883  14.418 -0.4878 -0.3861  1.2068
14921TIP3   OH266177   5.065   4.449  12.372  0.0126  0.4152 -0.0388
14921TIP3    H166178   5.056   4.378  12.309  0.4585  0.7827 -0.5111
14921TIP3    H266179   4.979   4.491  12.374 -1.1472 -1.8971  2.3498
14922TIP3   OH266180   3.790   1.296   2.163 -0.4207 -0.0193  1.0453
14922TIP3    H166181   3.719   1.237   2.190 -0.5718  0.0826  0.8678
14922TIP3    H266182   3.860   1.237   2.134 -1.8679 -0.1005 -2.5736
14923TIP3   OH266183   6.652   0.214  14.907 -0.0168  0.3194  0.0367
14923TIP3    H166184   6.664   0.301  14.867  0.7634  0.0487 -0.3240
14923TIP3    H266185   6.626   0.158  14.834 -1.7002  0.4976  0.4805
14924TIP3   OH266186   1.570   1.385   5.291  0.3935  0.3643 -0.2481
14924TIP3    H166187   1.528   1.409   5.208  2.7023 -0.6703 -1.7632
14924TIP3    H266188   1.631   1.456   5.309  1.1953 -0.2860 -0.3793
14925TIP3   OH266189   3.485   1.615  15.826 -0.0423  0.0580 -0.3500
14925TIP3    H166190   3.517   1.680  15.889  0.9575  1.2938 -2.0858
14925TIP3    H266191   3.390   1.621  15.831  0.0407  1.1449  0.0224
14926TIP3   OH266192   0.743   1.798   2.856 -0.5684  0.2382  0.0317
14926TIP3    H166193   0.798   1.772   2.930 -0.3069 -0.2276 -0.3267
14926TIP3    H266194   0.753   1.727   2.792  1.1533  1.8222 -1.5018
14927TIP3   OH266195   2.717   1.569  16.918 -0.5679  0.1450 -0.2086
14927TIP3    H166196   2.682   1.632  16.981 -1.0119  1.0288 -1.3240
14927TIP3    H266197   2.757   1.623  16.850 -0.9960 -0.7757 -1.2044
14928TIP3   OH266198   6.434   3.796   2.335 -0.3641  0.0546 -0.4883
14928TIP3    H166199   6.482   3.766   2.258  0.9308  1.2223 -0.1677
14928TIP3    H266200   6.460   3.735   2.404  0.4468  0.5019 -0.3898
14929TIP3   OH266201   3.669   1.150   0.437 -0.2243 -0.1059 -0.4226
14929TIP3    H166202   3.615   1.229   0.442  0.2372  0.3067 -1.8137
14929TIP3    H266203   3.673   1.129   0.344  0.3251 -1.3160 -0.1426
14930TIP3   OH266204   3.973   2.914   1.450 -0.0803 -0.0697  0.6930
14930TIP3    H166205   4.015   2.838   1.409 -0.4723  0.6097 -0.9830
14930TIP3    H266206   3.913   2.876   1.514 -2.4918 -1.3234 -2.2056
14931TIP3   OH266207   0.859   3.998  15.935  0.1529 -0.0015 -0.1759
14931TIP3    H166208   0.806   4.020  15.859 -0.2071  1.0944  0.3839
14931TIP3    H266209   0.801   3.948  15.992 -0.2879  1.1806  0.4286
14932TIP3   OH266210   5.989   2.853  15.716  0.4425 -0.5793 -0.4857
14932TIP3    H166211   6.070   2.896  15.690 -0.1342 -0.5602 -2.3098
14932TIP3    H266212   5.942   2.839  15.634 -1.6340 -0.1438  0.6036
14933TIP3   OH266213   0.887   5.119   2.705  0.1648  0.1942  0.2698
14933TIP3    H166214   0.952   5.082   2.765 -2.4093 -0.0938  2.9920
14933TIP3    H266215   0.862   5.045   2.649  1.9441  0.2504 -0.6531
14934TIP3   OH266216   1.783   0.412   5.987  0.3056  0.2552 -0.7269
14934TIP3    H166217   1.800   0.423   6.081 -1.5912 -1.6477 -0.1215
14934TIP3    H266218   1.692   0.383   5.983  0.6765 -0.6476 -3.1173
14935TIP3   OH266219   4.090   5.873  15.219  0.4224 -0.0852  0.2439
14935TIP3    H166220   4.006   5.873  15.265 -0.3149 -0.5368 -1.0413
14935TIP3    H266221   4.108   5.780  15.202  0.4842  0.0851 -0.6892
14936TIP3   OH266222   5.876   5.397   0.389 -0.0255 -0.3307  0.1977
14936TIP3    H166223   5.892   5.491   0.381 -1.5469  0.2142  3.1844
14936TIP3    H266224   5.955   5.363   0.430  0.2048 -0.2420 -0.1685
14937TIP3   OH266225   0.247   6.261  15.109 -0.6370 -0.9102 -0.0195
14937TIP3    H166226   0.219   6.194  15.173 -0.6941 -2.0640 -1.2316
14937TIP3    H266227   0.177   6.262  15.044 -1.3823  1.4368  0.7609
14938TIP3   OH266228   6.502   5.140   4.425 -0.0290 -0.2006  0.1688
14938TIP3    H166229   6.449   5.164   4.501 -0.2333  1.3503 -0.4354
14938TIP3    H266230   6.587   5.181   4.442  0.6696 -1.8559  0.6761
14939TIP3   OH266231   3.537   3.764   0.100  0.5677 -0.1523 -1.1636
14939TIP3    H166232   3.579   3.708   0.165  1.4278 -1.8386 -3.1136
14939TIP3    H266233   3.522   3.846   0.145 -0.4669 -1.8587  1.7011
14940TIP3   OH266234   3.074   2.903  13.943 -0.0171 -0.1344  0.0127
14940TIP3    H166235   3.090   2.997  13.931 -1.8045  0.0194 -1.1903
14940TIP3    H266236   3.138   2.861  13.885  0.6247  0.3302  0.3681
14941TIP3   OH266237   2.148   3.362  13.145 -0.3676 -0.1068 -0.0172
14941TIP3    H166238   2.222   3.390  13.091 -2.1309  1.6183 -1.5997
14941TIP3    H266239   2.166   3.400  13.231  0.0351  1.3021 -0.7047
14942TIP3   OH266240   0.371   3.946  14.807  0.9127  0.4540  0.2613
14942TIP3    H166241   0.362   4.012  14.876  3.1795 -0.8182  1.8715
14942TIP3    H266242   0.307   3.879  14.830 -0.0553  1.1891 -0.2813
14943TIP3   OH266243   1.380   4.504   5.661 -0.3504  0.2489 -0.4441
14943TIP3    H166244   1.454   4.539   5.613 -0.3370  0.2811 -0.3995
14943TIP3    H266245   1.349   4.430   5.608  0.5237 -0.5879  0.1812
14944TIP3   OH266246   5.227   4.931  16.432 -0.2557 -0.4900  0.0464
14944TIP3    H166247   5.219   4.836  16.436 -1.4403 -0.4296 -0.8397
14944TIP3    H266248   5.301   4.946  16.372  0.5561 -0.8657  0.9514
14945TIP3   OH266249   0.252   6.460   1.363 -0.4919 -0.1192 -0.4834
14945TIP3    H166250   0.163   6.428   1.344 -1.1797  2.4487 -1.6984
14945TIP3    H266251   0.238   6.541   1.413  1.1577  0.7054 -1.3499
14946TIP3   OH266252   2.625   5.255  13.058 -0.0280 -0.2250  0.0251
14946TIP3    H166253   2.553   5.192  13.059  1.6428 -2.2495 -1.8541
14946TIP3    H266254   2.613   5.304  12.977 -0.3508  0.7354  0.6454
14947TIP3   OH266255   0.650   5.762  16.405  0.0837  0.2693 -0.3214
14947TIP3    H166256   0.639   5.753  16.500 -1.1838 -2.0647 -0.6538
14947TIP3    H266257   0.654   5.857  16.391 -1.3764  0.7153  1.8984
14948TIP3   OH266258   3.559   4.127   6.672  0.2719  0.1458 -0.4439
14948TIP3    H166259   3.566   4.154   6.764 -1.4997  0.6387 -0.4451
14948TIP3    H266260   3.503   4.194   6.632  1.9262  0.5483 -2.1411
14949TIP3   OH266261   0.309   1.946   0.277  0.0383  0.2379  0.0849
14949TIP3    H166262   0.332   1.862   0.238 -0.8290  0.3209 -0.6364
14949TIP3    H266263   0.232   1.974   0.228 -0.3123  0.9499  1.0392
14950TIP3   OH266264   6.591   5.295  12.070 -0.0346 -0.8600 -0.4468
14950TIP3    H166265   6.547   5.210  12.076 -0.8427 -0.2561  2.9685
14950TIP3    H266266   6.527   5.352  12.028 -1.2185 -0.8580  1.3116
14951TIP3   OH266267   3.627   0.782  11.318 -0.1747 -0.4309  0.1209
14951TIP3    H166268   3.561   0.848  11.296 -2.1477 -2.2028  0.6262
14951TIP3    H266269   3.679   0.823  11.388 -1.3101  0.6115  0.3735
14952TIP3   OH266270   2.352   5.529  12.759 -0.5692 -0.1662  0.6003
14952TIP3    H166271   2.415   5.542  12.830 -1.3999 -0.1767  1.3577
14952TIP3    H266272   2.397   5.558  12.680  1.3063 -2.6471  0.7295
14953TIP3   OH266273   2.200   1.602   0.717  0.4511  0.6104 -0.1808
14953TIP3    H166274   2.225   1.521   0.674 -0.6857  0.6896 -1.0060
14953TIP3    H266275   2.145   1.648   0.653 -0.2873  1.2596  0.9022
14954TIP3   OH266276   6.147   0.292  12.646  0.2240  0.5113 -1.2210
14954TIP3    H166277   6.075   0.294  12.709  1.8126  1.6231  0.5986
14954TIP3    H266278   6.224   0.315  12.697  2.1545 -2.1610 -2.8054
14955TIP3   OH266279   1.403   3.945   1.290  0.3884  0.6872  0.5614
14955TIP3    H166280   1.393   3.851   1.273  0.7676  1.0608 -1.8805
14955TIP3    H266281   1.314   3.980   1.285  0.3065  0.5370  0.9635
14956TIP3   OH266282   5.491   1.168   0.689  0.3233 -0.0466  0.3285
14956TIP3    H166283   5.407   1.152   0.734 -0.9096 -0.9728 -2.2096
14956TIP3    H266284   5.505   1.262   0.697 -0.3558 -0.0498  1.7844
14957TIP3   OH266285   1.853   6.257   4.539 -0.4251  0.1440 -0.1075
14957TIP3    H166286   1.935   6.253   4.588 -0.0048 -0.6596 -0.8648
14957TIP3    H266287   1.851   6.345   4.502  0.8353 -0.3186 -1.3379
14958TIP3   OH266288   4.024   5.902  15.623  0.5344  0.8937 -0.3168
14958TIP3    H166289   4.104   5.880  15.672 -0.2897  1.8084  1.4913
14958TIP3    H266290   3.953   5.866  15.676 -0.2106 -1.5713 -2.8562
14959TIP3   OH266291   2.843   1.660   3.113 -0.3120 -0.8797  0.2115
14959TIP3    H166292   2.805   1.748   3.113  1.2838 -0.1649  2.4141
14959TIP3    H266293   2.775   1.605   3.152 -0.0757 -0.0483  1.8271
14960TIP3   OH266294   4.879   0.528   3.138  0.2851  0.0916 -0.1899
14960TIP3    H166295   4.852   0.583   3.211 -0.9462 -0.7660  0.0255
14960TIP3    H266296   4.945   0.469   3.175  0.9334  0.8189 -0.1963
14961TIP3   OH266297   5.476   2.718  15.289 -0.2456  0.0724  0.1656
14961TIP3    H166298   5.422   2.789  15.325 -2.0180 -1.4876  0.6416
14961TIP3    H266299   5.530   2.690  15.363 -1.9896 -1.3435  0.9385
14962TIP3   OH266300   4.920   4.164  13.499  0.9226 -0.3018  0.0082
14962TIP3    H166301   5.014   4.149  13.490  1.0970  1.2088 -0.6923
14962TIP3    H266302   4.899   4.230  13.433 -0.6900 -0.8494 -0.0559
14963TIP3   OH266303   0.357   2.969   1.068 -0.0424  0.5190  0.1656
14963TIP3    H166304   0.342   3.034   1.136  0.1540 -1.0828  1.7927
14963TIP3    H266305   0.377   2.889   1.116  0.5161 -0.5514 -1.7978
14964TIP3   OH266306   0.903   4.155  13.721 -0.0742 -0.0448 -0.5288
14964TIP3    H166307   0.827   4.206  13.750  0.9493  0.1698  1.8767
14964TIP3    H266308   0.959   4.218  13.677  0.9429  0.8748  1.9757
14965TIP3   OH266309   0.850   6.520  12.008 -0.0302  0.0577  0.5653
14965TIP3    H166310   0.788   6.485  12.073 -2.4980  1.3739 -1.0004
14965TIP3    H266311   0.876   6.443  11.956 -1.9409 -0.2000 -0.0365
14966TIP3   OH266312   1.451   1.289   1.157 -0.0251 -0.7462 -0.3830
14966TIP3    H166313   1.489   1.374   1.133 -0.2883 -0.9913 -1.7043
14966TIP3    H266314   1.368   1.311   1.200  1.4319 -0.2145  2.2997
14967TIP3   OH266315   4.368   4.723  16.834 -0.3338 -0.1732 -0.2064
14967TIP3    H166316   4.330   4.752  16.917 -1.1533 -0.6842 -0.3984
14967TIP3    H266317   4.462   4.733  16.846 -0.5003  0.6673  0.4423
14968TIP3   OH266318   5.963   1.138  14.098  0.1396  0.3126  0.2730
14968TIP3    H166319   5.930   1.133  14.008  0.5158  0.6258  0.1152
14968TIP3    H266320   5.943   1.053  14.136 -1.0648  0.5765  0.2543
14969TIP3   OH266321   1.806   4.649   1.477 -0.3392  0.2140 -0.1080
14969TIP3    H166322   1.781   4.628   1.387 -1.5279 -0.3473  0.3444
14969TIP3    H266323   1.870   4.720   1.468 -0.1326 -0.1180 -1.4088
14970TIP3   OH266324   0.558   6.228  11.630 -0.3452 -0.1748  0.2489
14970TIP3    H166325   0.534   6.147  11.586 -0.3738  0.1709 -0.3746
14970TIP3    H266326   0.653   6.233  11.622 -0.3162 -0.2649  0.5048
14971TIP3   OH266327   3.055   0.332   3.484 -0.2284 -0.1947  0.0178
14971TIP3    H166328   3.131   0.390   3.479 -0.4533  0.0009 -1.5994
14971TIP3    H266329   3.009   0.357   3.564 -0.0636  1.5300 -0.4127
14972TIP3   OH266330   3.387   2.864   3.808  0.4643  0.2561 -0.1660
14972TIP3    H166331   3.476   2.832   3.821  1.4023  3.3314  1.4902
14972TIP3    H266332   3.342   2.846   3.890  0.2151  0.6796 -0.2051
14973TIP3   OH266333   3.335   4.083  15.512  0.3230 -0.4394 -0.1927
14973TIP3    H166334   3.390   4.103  15.588  1.7223 -0.1060 -1.2762
14973TIP3    H266335   3.295   3.998  15.533 -0.9667  0.6014  1.8254
14974TIP3   OH266336   4.884   6.725   0.220  0.9004  0.5832  0.2829
14974TIP3    H166337   4.971   6.753   0.249 -0.0101  2.2163  1.5345
14974TIP3    H266338   4.828   6.801   0.237 -0.7372 -0.3811 -0.6892
14975TIP3   OH266339   3.350   4.887   2.033  0.1745 -0.3217 -0.3074
14975TIP3    H166340   3.302   4.944   2.093 -0.2003 -0.4792 -0.4590
14975TIP3    H266341   3.294   4.811   2.021  0.5571 -0.6088 -0.3127
14976TIP3   OH266342   4.270   1.821  15.525 -0.6222  0.2674 -0.4302
14976TIP3    H166343   4.260   1.806  15.431  0.7516  1.1515 -0.7301
14976TIP3    H266344   4.335   1.890  15.532 -1.4707  0.9438  1.1596
14977TIP3   OH266345   4.210   3.018   4.910  0.1346 -1.0530  0.3490
14977TIP3    H166346   4.301   2.989   4.920 -0.1427 -2.0443  0.0439
14977TIP3    H266347   4.210   3.070   4.830  0.3427 -1.4550  0.0852
14978TIP3   OH266348   5.404   6.136   4.612  0.5058  0.2700 -0.2245
14978TIP3    H166349   5.443   6.058   4.573 -0.4656 -0.2515 -0.1759
14978TIP3    H266350   5.312   6.131   4.586  0.4051  1.3034 -0.0585
14979TIP3   OH266351   3.720   4.766   2.719  0.0295  0.3816 -0.1526
14979TIP3    H166352   3.699   4.681   2.681 -1.7527  0.2507  1.0578
14979TIP3    H266353   3.808   4.786   2.687  0.4206 -1.8555 -0.5411
14980TIP3   OH266354   0.424   1.260   2.244 -0.3715  0.0413 -0.7999
14980TIP3    H166355   0.496   1.275   2.305  0.1380 -0.8536 -1.1810
14980TIP3    H266356   0.466   1.247   2.159 -1.0901  1.5061 -1.4040
14981TIP3   OH266357   1.190   1.027   4.047 -0.0620 -0.3274  0.1185
14981TIP3    H166358   1.249   1.015   3.972  1.2234  2.9044  0.5343
14981TIP3    H266359   1.241   0.997   4.122 -0.9105 -2.4275 -0.1085
14982TIP3   OH266360   5.510   1.735   5.551  0.6310 -0.0622 -0.6327
14982TIP3    H166361   5.495   1.733   5.646  0.1834  2.7296 -0.6062
14982TIP3    H266362   5.457   1.664   5.517 -1.1879  0.4765  0.9801
14983TIP3   OH266363   2.807   3.627   5.004  0.6539  0.2701 -0.3427
14983TIP3    H166364   2.765   3.669   5.080 -2.3834 -0.3112 -1.6047
14983TIP3    H266365   2.805   3.694   4.936  2.7304  0.5576 -0.1405
14984TIP3   OH266366   6.355   0.531  14.959 -0.1636 -0.1144  0.4066
14984TIP3    H166367   6.293   0.531  15.032  1.0361  0.3161  1.4378
14984TIP3    H266368   6.354   0.621  14.927 -0.6719 -0.2979 -0.1039
14985TIP3   OH266369   3.251   1.483   3.058  0.1725  0.6232 -0.1280
14985TIP3    H166370   3.196   1.546   3.104 -1.9688 -0.6622 -0.8712
14985TIP3    H266371   3.275   1.418   3.124 -0.4308  0.3888 -0.1387
14986TIP3   OH266372   2.955   2.029   4.772  0.3782  0.2287 -0.0489
14986TIP3    H166373   2.936   2.008   4.863 -0.3476 -1.1509 -0.5018
14986TIP3    H266374   3.018   1.963   4.744 -0.1761  0.0119 -0.8340
14987TIP3   OH266375   0.509   3.688  12.799  0.0295  0.2641  0.5657
14987TIP3    H166376   0.511   3.658  12.708 -1.6761 -0.9629  0.9101
14987TIP3    H266377   0.491   3.609  12.850  2.1922  0.7192  2.0905
14988TIP3   OH266378   3.105   4.084   3.986 -0.5735  0.0103  0.1005
14988TIP3    H166379   3.040   4.022   4.019 -0.8013 -0.5086 -1.2800
14988TIP3    H266380   3.142   4.040   3.909  0.9584  0.5751  0.5033
14989TIP3   OH266381   3.138   4.295  14.498  0.4705  0.3485  0.0905
14989TIP3    H166382   3.212   4.235  14.490  0.2381  0.1048 -0.1981
14989TIP3    H266383   3.063   4.247  14.465 -0.0514  0.1637  1.4905
14990TIP3   OH266384   2.582   3.355  11.793 -0.3923  0.5422  0.2059
14990TIP3    H166385   2.588   3.295  11.868 -3.0612 -0.4559 -0.3210
14990TIP3    H266386   2.673   3.372  11.768  0.4554 -1.7702  1.5866
14991TIP3   OH266387   1.418   3.520   3.318 -0.1173 -0.6115 -0.0206
14991TIP3    H166388   1.467   3.479   3.389 -0.8564  0.6900  1.2669
14991TIP3    H266389   1.353   3.455   3.292  1.8953 -2.1270 -1.3501
14992TIP3   OH266390   6.241   2.725  16.750  0.3317 -0.5100  0.2871
14992TIP3    H166391   6.300   2.667  16.701 -0.3198  0.2620 -1.4505
14992TIP3    H266392   6.169   2.742  16.689 -0.3145  0.7719  1.4013
14993TIP3   OH266393   6.137   1.402  13.582 -0.0860  0.1011  0.1847
14993TIP3    H166394   6.190   1.330  13.615 -0.0160  1.8747  4.2128
14993TIP3    H266395   6.047   1.370  13.585  0.0609 -0.2574  0.7158
14994TIP3   OH266396   1.649   5.207   0.909 -0.2095 -0.8905 -0.2264
14994TIP3    H166397   1.607   5.192   0.824  0.2051  0.7704 -0.7463
14994TIP3    H266398   1.634   5.300   0.927 -0.6213 -1.3104  1.7137
14995TIP3   OH266399   0.280   2.187   6.150  0.1268  0.2183 -0.1685
14995TIP3    H166400   0.307   2.127   6.219 -1.4829  0.2330  0.4801
14995TIP3    H266401   0.247   2.131   6.080 -1.6656  0.3393  0.5606
14996TIP3   OH266402   0.389   0.298  11.005  0.2419  0.2350 -0.0296
14996TIP3    H166403   0.307   0.264  11.042  0.6264 -0.1880  0.4321
14996TIP3    H266404   0.367   0.387  10.976 -0.4725 -0.0013 -0.2233
14997TIP3   OH266405   2.806   2.309   1.302 -0.5567  0.0014  0.3292
14997TIP3    H166406   2.894   2.313   1.339  0.5908 -3.2774 -1.8375
14997TIP3    H266407   2.754   2.265   1.369  0.4694 -1.9313 -0.1283
14998TIP3   OH266408   0.678   4.621  16.380 -0.2023  0.5705 -0.1449
14998TIP3    H166409   0.727   4.549  16.341 -1.6948  0.4528 -1.8817
14998TIP3    H266410   0.700   4.697  16.326 -2.1491  0.4500 -1.1291
14999TIP3   OH266411   4.388   2.745  13.276 -0.1549  0.6459 -0.3643
14999TIP3    H166412   4.358   2.687  13.347 -1.6614 -0.7849 -2.1239
14999TIP3    H266413   4.321   2.814  13.273 -0.7381  0.0564 -1.1519
15000TIP3   OH266414   1.217   2.481   2.907  0.4019  0.0942 -0.1928
15000TIP3    H166415   1.230   2.522   2.821  2.2723 -0.1988 -0.0815
15000TIP3    H266416   1.285   2.520   2.962 -1.6048  1.2535  1.5344
15001TIP3   OH266417   0.780   5.571   0.217 -0.5454  0.7904  0.2626
15001TIP3    H166418   0.794   5.528   0.132 -1.8793  0.6065  0.1136
15001TIP3    H266419   0.706   5.631   0.201  0.3046  2.0189  0.8608
15002TIP3   OH266420   3.863   6.518  11.829 -0.1463 -0.7239  0.5089
15002TIP3    H166421   3.818   6.539  11.747 -0.3311 -2.4391  0.1665
15002TIP3    H266422   3.797   6.531  11.897 -0.0151  0.6290  0.4016
15003TIP3   OH266423   1.393   3.485   5.891 -0.0075  0.2039  0.1066
15003TIP3    H166424   1.415   3.423   5.960 -2.5835  0.1597  0.9191
15003TIP3    H266425   1.406   3.436   5.810  2.7914  0.1865  0.5256
15004TIP3   OH266426   5.580   6.681  13.824  0.1887  0.8784  0.5060
15004TIP3    H166427   5.567   6.775  13.816 -0.7715  0.7470  0.5205
15004TIP3    H266428   5.507   6.642  13.777  1.3795  0.1335 -0.7747
15005TIP3   OH266429   3.379   1.458  14.462  0.6277 -0.0656  0.6407
15005TIP3    H166430   3.403   1.384  14.518  2.6256  0.4007  0.4500
15005TIP3    H266431   3.325   1.419  14.393  1.4088 -1.3184  0.7106
15006TIP3   OH266432   2.314   5.444  14.176 -0.8758  0.2719  0.7257
15006TIP3    H166433   2.363   5.526  14.177 -0.4858  0.0417  1.0704
15006TIP3    H266434   2.222   5.470  14.172 -0.6818  0.6873 -1.3227
15007TIP3   OH266435   0.731   6.712   1.548 -0.2711 -0.1581 -0.0274
15007TIP3    H166436   0.802   6.667   1.594 -1.5655 -2.0879  0.1403
15007TIP3    H266437   0.764   6.726   1.460  0.2302 -1.3063 -0.0349
15008TIP3   OH266438   6.047   3.266   6.560 -0.2261  0.3557 -0.4771
15008TIP3    H166439   6.021   3.338   6.617 -1.2974 -1.5514  1.4908
15008TIP3    H266440   6.083   3.200   6.619 -1.9120 -1.9194 -1.9099
15009TIP3   OH266441   5.374   6.690   4.388  0.0170  0.2403  0.5442
15009TIP3    H166442   5.451   6.741   4.364 -0.3280  0.0864 -0.9634
15009TIP3    H266443   5.320   6.689   4.309 -0.1897 -2.0636  0.6565
15010TIP3   OH266444   1.978   5.316  16.650 -0.1716  0.1640  0.5356
15010TIP3    H166445   1.954   5.328  16.559 -0.3813 -1.0584  0.4189
15010TIP3    H266446   1.914   5.253  16.684  0.6000 -0.2770  1.2083
15011TIP3   OH266447   1.216   5.191   2.529 -0.3978  0.1214 -0.3682
15011TIP3    H166448   1.249   5.140   2.455  4.2300  0.7717  1.1058
15011TIP3    H266449   1.222   5.131   2.604 -1.6041  0.6126  0.1380
15012TIP3   OH266450   0.227   1.568  11.338 -0.0598  0.2978 -0.1378
15012TIP3    H166451   0.269   1.647  11.303  0.4547 -0.3277 -0.9367
15012TIP3    H266452   0.191   1.524  11.261  1.4689 -1.3292  0.0520
15013TIP3   OH266453   0.730   6.670   3.790  0.0086 -0.0778 -0.7177
15013TIP3    H166454   0.668   6.743   3.793 -1.8174 -1.6212  0.1899
15013TIP3    H266455   0.738   6.641   3.881  3.6603  1.3638 -0.5053
15014TIP3   OH266456   3.474   5.947   1.849 -0.2150 -0.4300  0.2602
15014TIP3    H166457   3.426   5.867   1.870  0.3465 -1.2909 -1.5804
15014TIP3    H266458   3.566   5.920   1.850 -0.0673 -0.0159 -1.1136
15015TIP3   OH266459   2.815   6.339   2.429 -0.0738  0.1470 -0.1255
15015TIP3    H166460   2.851   6.269   2.375 -0.6666  0.6798 -1.2379
15015TIP3    H266461   2.761   6.294   2.494  1.0423 -0.5304  0.3336
15016TIP3   OH266462   2.640   2.922   4.587 -0.4510 -0.1378  0.2100
15016TIP3    H166463   2.693   2.868   4.530 -1.2174 -0.2398 -0.4140
15016TIP3    H266464   2.698   2.946   4.659  0.5540  0.1176 -0.6898
15017TIP3   OH266465   2.861   0.936  15.026  0.0441 -0.2459  0.2288
15017TIP3    H166466   2.820   0.962  15.108  0.3420 -2.1634  1.0138
15017TIP3    H266467   2.936   0.883  15.053  1.2636  0.6729 -1.2551
15018TIP3   OH266468   1.610   5.541  12.242 -0.4306  0.0341  0.0873
15018TIP3    H166469   1.685   5.491  12.209  0.3049  1.5793 -0.6503
15018TIP3    H266470   1.561   5.479  12.295 -0.2112 -1.8136 -1.7967
15019TIP3   OH266471   2.527   0.509  11.396 -0.1106  0.0716 -0.1776
15019TIP3    H166472   2.619   0.522  11.372 -0.1716  0.5408 -0.1517
15019TIP3    H266473   2.526   0.515  11.491  0.1370 -1.8276 -0.0303
15020TIP3   OH266474   4.109   0.155   2.721 -0.0428 -0.0690  0.2200
15020TIP3    H166475   4.088   0.226   2.661  1.7418 -1.7223 -2.5303
15020TIP3    H266476   4.205   0.158   2.729 -0.0730 -1.2195  1.2533
15021TIP3   OH266477   4.862   1.122   4.983 -0.2930  0.1719  0.5764
15021TIP3    H166478   4.781   1.171   4.995  0.6055  1.8690 -0.1092
15021TIP3    H266479   4.843   1.062   4.911 -0.7770  0.9244  0.0700
15022TIP3   OH266480   4.892   4.882   5.452  0.2512 -0.2220 -0.4179
15022TIP3    H166481   4.834   4.851   5.522  0.7533  2.3760  1.2313
15022TIP3    H266482   4.980   4.879   5.490  0.4637  1.7943 -0.6788
15023TIP3   OH266483   5.846   4.281  15.493  0.5070  0.1282 -0.2525
15023TIP3    H166484   5.762   4.236  15.497 -0.6264  2.2151 -0.2261
15023TIP3    H266485   5.842   4.347  15.562  1.9202  0.6401 -0.6396
15024TIP3   OH266486   2.553   3.015  10.855  0.0487  0.0246 -0.6240
15024TIP3    H166487   2.539   3.100  10.897  1.5702 -0.3415  0.6958
15024TIP3    H266488   2.632   2.980  10.898  0.4379 -1.2918 -2.3493
15025TIP3   OH266489   2.803   3.124  13.981 -0.7381  0.2821 -0.1403
15025TIP3    H166490   2.816   3.153  13.891  0.4019 -0.9852 -0.3954
15025TIP3    H266491   2.829   3.032  13.981  1.9193  0.9466  2.0673
15026TIP3   OH266492   3.629   4.492   1.928 -0.2043  0.7525  0.1403
15026TIP3    H166493   3.629   4.558   1.858  1.8432 -0.1077 -0.7230
15026TIP3    H266494   3.706   4.512   1.980 -0.2348 -0.2367  0.5800
15027TIP3   OH266495   1.338   1.815   2.012  0.1911 -0.1640  0.4568
15027TIP3    H166496   1.374   1.901   2.033  0.0252  0.0134  0.0100
15027TIP3    H266497   1.243   1.827   2.013  0.1716 -0.2905  0.1706
15028TIP3   OH266498   5.478   2.024  11.792  0.3428  0.2329 -0.8155
15028TIP3    H166499   5.408   2.076  11.831 -1.6202 -1.5545 -1.8835
15028TIP3    H266500   5.498   1.957  11.858  1.9750  1.4789  0.0132
15029TIP3   OH266501   6.391   6.020   2.547 -0.7257  0.0678  0.5990
15029TIP3    H166502   6.360   5.959   2.480 -0.9254  0.3829  0.4038
15029TIP3    H266503   6.486   6.020   2.539 -0.8070  1.0985 -0.5625
15030TIP3   OH266504   6.378   4.997  13.996 -0.2587 -0.3277  0.3603
15030TIP3    H166505   6.429   4.979  13.917 -0.9858  0.4642 -0.2969
15030TIP3    H266506   6.424   5.071  14.037 -0.2162 -0.3617  0.3759
15031TIP3   OH266507   4.725   5.308  12.069 -0.3904 -0.0783 -0.1859
15031TIP3    H166508   4.637   5.335  12.095 -0.2432 -0.4129  0.6559
15031TIP3    H266509   4.733   5.218  12.101  0.0949 -0.2123 -0.6631
15032TIP3   OH266510   1.944   2.390  11.531 -0.3232  0.2373  0.0361
15032TIP3    H166511   1.893   2.471  11.522 -1.2448 -0.4259 -0.8042
15032TIP3    H266512   1.938   2.348  11.446  1.8354  0.2476 -0.1390
15033TIP3   OH266513   3.301   0.357   4.368  0.1681 -0.0675  0.1260
15033TIP3    H166514   3.311   0.449   4.343 -0.1923 -0.2191 -0.5905
15033TIP3    H266515   3.385   0.317   4.346  0.3045  0.0754  0.3814
15034TIP3   OH266516   4.313   3.258  13.740  0.3618  0.1521 -0.4548
15034TIP3    H166517   4.408   3.249  13.752  0.4204  2.4975  1.2911
15034TIP3    H266518   4.275   3.219  13.819 -0.0747 -0.0477 -0.7657
15035TIP3   OH266519   6.746   5.046   1.908 -0.0855 -0.4338 -0.4333
15035TIP3    H166520   6.757   5.120   1.848 -0.3595  1.0901  1.3492
15035TIP3    H266521   6.833   5.008   1.917  0.2056  0.1680 -0.7100
15036TIP3   OH266522   4.923   3.787  16.707 -0.0906  0.2012  0.3259
15036TIP3    H166523   4.897   3.835  16.785  0.8223  0.1653  0.6651
15036TIP3    H266524   4.949   3.701  16.739  0.4688  0.2503  0.0166
15037TIP3   OH266525   1.886   0.303  13.181 -0.3096  0.0754  0.0852
15037TIP3    H166526   1.806   0.320  13.130 -0.6302  0.6772  0.7818
15037TIP3    H266527   1.856   0.245  13.252 -0.5917  2.0642  1.6332
15038TIP3   OH266528   4.837   1.494   6.342 -0.3863 -0.1154 -0.1828
15038TIP3    H166529   4.860   1.587   6.337  0.1096 -0.2829 -1.1858
15038TIP3    H266530   4.785   1.487   6.422 -0.2587  0.9887  0.0153
15039TIP3   OH266531   3.740   1.958   2.902 -0.2784 -0.2714  0.4978
15039TIP3    H166532   3.782   2.024   2.957 -0.0561  0.0068  0.0045
15039TIP3    H266533   3.685   2.008   2.842  1.3319 -0.3858 -1.1190
15040TIP3   OH266534   2.097   0.265   4.856 -0.0061  0.2588 -0.1401
15040TIP3    H166535   2.035   0.192   4.856 -1.0623  1.1480  0.2424
15040TIP3    H266536   2.093   0.301   4.767  1.4007 -0.8751 -0.6846
15041TIP3   OH266537   0.758   3.757  16.602 -0.3116 -0.2050 -0.2667
15041TIP3    H166538   0.694   3.828  16.604 -0.1094 -0.0361  0.1733
15041TIP3    H266539   0.724   3.693  16.664 -0.3097 -0.3403 -0.4055
15042TIP3   OH266540   4.497   4.997  12.798 -0.0141 -0.2972 -0.1774
15042TIP3    H166541   4.529   4.965  12.714  0.8521 -0.1263  0.0822
15042TIP3    H266542   4.555   4.956  12.863  0.9088  1.5284  0.1777
15043TIP3   OH266543   4.531   5.248   2.127  0.0588  0.7352  0.0881
15043TIP3    H166544   4.544   5.187   2.200  1.3817  2.5376  1.4138
15043TIP3    H266545   4.462   5.307   2.158 -0.4278  0.5875 -0.7253
15044TIP3   OH266546   4.287   5.744  11.179  0.1475 -0.0612 -0.0790
15044TIP3    H166547   4.294   5.827  11.226 -1.5856  0.1666 -0.1847
15044TIP3    H266548   4.283   5.768  11.087  1.1944 -0.3707 -0.2153
15045TIP3   OH266549   3.088   1.983  12.881  0.4144 -0.2828  0.5377
15045TIP3    H166550   3.163   2.002  12.938  1.7408  0.0645 -1.2774
15045TIP3    H266551   3.035   2.063  12.883  1.9365  0.8066 -0.9140
15046TIP3   OH266552   0.151   1.073  14.949  0.1542  0.2281  0.1293
15046TIP3    H166553   0.149   1.047  14.857  0.4616 -1.7368  0.6625
15046TIP3    H266554   0.128   0.994  14.997 -1.3764  1.5740  1.7103
15047TIP3   OH266555   0.423   5.796   5.444 -0.2300  1.1771  0.7027
15047TIP3    H166556   0.333   5.785   5.473 -1.2450 -0.0670 -2.7089
15047TIP3    H266557   0.476   5.785   5.523 -2.9690  0.3574  2.4532
15048TIP3   OH266558   0.558   1.138   2.789 -0.5598  0.5192  0.1148
15048TIP3    H166559   0.596   1.059   2.749  1.8199  2.6913 -2.0871
15048TIP3    H266560   0.516   1.183   2.716  0.3935  2.6001  0.8390
15049TIP3   OH266561   2.558   5.914  13.950 -0.5960 -0.2897 -0.3581
15049TIP3    H166562   2.637   5.861  13.940 -0.8593 -0.5392 -1.2335
15049TIP3    H266563   2.489   5.850  13.969 -0.6928 -0.1330 -0.1812
15050TIP3   OH266564   2.780   0.627   2.103  0.1310 -0.2283 -0.4621
15050TIP3    H166565   2.751   0.537   2.091 -0.0727 -0.2723  0.3036
15050TIP3    H266566   2.831   0.625   2.184  0.9766  0.1519 -0.9807
15051TIP3   OH266567   3.510   3.907  12.187  0.5002  0.2922  0.0811
15051TIP3    H166568   3.429   3.892  12.235  0.2085  1.7552  0.0553
15051TIP3    H266569   3.482   3.936  12.101  1.0486  0.6425  0.0179
15052TIP3   OH266570   0.204   4.987   1.423 -0.0188  0.0753  0.1616
15052TIP3    H166571   0.146   5.011   1.350 -0.3796 -2.1010 -0.2891
15052TIP3    H266572   0.145   4.959   1.493  0.3726  1.1727  0.9427
15053TIP3   OH266573   6.413   5.880   1.320 -0.4258 -0.3012  0.3606
15053TIP3    H166574   6.457   5.962   1.296 -0.8942 -0.7620 -2.2159
15053TIP3    H266575   6.476   5.812   1.295 -1.8583 -0.8945 -1.7084
15054TIP3   OH266576   6.575   2.443   1.197  0.4162 -0.0626 -0.2831
15054TIP3    H166577   6.537   2.526   1.224  0.3818 -0.5126  1.0595
15054TIP3    H266578   6.669   2.459   1.196  0.4917 -0.4124  1.3369
15055TIP3   OH266579   1.756   0.449   5.025  0.0166  0.9113 -0.0215
15055TIP3    H166580   1.764   0.464   4.931  0.2682  1.4528  0.0891
15055TIP3    H266581   1.797   0.525   5.066  2.1692 -0.5105  0.5393
15056TIP3   OH266582   1.086   0.543   1.622 -0.6236  0.3533  0.5922
15056TIP3    H166583   1.016   0.572   1.680 -1.4746  0.0118 -0.2534
15056TIP3    H266584   1.073   0.448   1.614 -1.4818  0.6077 -1.3868
15057TIP3   OH266585   5.938   6.434   0.913 -0.1496  0.2821  0.0919
15057TIP3    H166586   5.881   6.509   0.931  1.2895  1.1765  0.9811
15057TIP3    H266587   5.980   6.454   0.830  0.3322  0.5353  0.3924
15058TIP3   OH266588   4.955   2.460   6.549  0.0873  0.9362  0.1312
15058TIP3    H166589   4.975   2.374   6.512  2.3335  0.9761  1.1606
15058TIP3    H266590   4.872   2.485   6.508  0.3274 -0.9125 -1.5672
15059TIP3   OH266591   5.139   2.074   1.970 -0.7125 -0.1222  0.0144
15059TIP3    H166592   5.060   2.090   2.023 -0.3518  0.2218  0.4601
15059TIP3    H266593   5.117   2.107   1.883 -1.1541 -0.2746  0.0653
15060TIP3   OH266594   4.843   4.787  13.580 -0.2917  0.5642  0.4533
15060TIP3    H166595   4.911   4.824  13.524  1.2380 -0.3143  1.7036
15060TIP3    H266596   4.844   4.693  13.559 -2.2776  0.7698 -0.7187
15061TIP3   OH266597   2.165   5.786  15.830  0.1360 -0.1212  0.6513
15061TIP3    H166598   2.184   5.869  15.874  0.9629 -0.5288  1.0753
15061TIP3    H266599   2.207   5.720  15.885 -1.0314 -0.8790  0.6433
15062TIP3   OH266600   1.117   4.377   1.201 -0.1378 -0.7174  0.2926
15062TIP3    H166601   1.155   4.463   1.223 -0.0339 -0.7894  0.3949
15062TIP3    H266602   1.093   4.340   1.286  0.7104 -1.2045  0.3218
15063TIP3   OH266603   4.570   6.598  12.715  0.9670 -0.0776 -0.0137
15063TIP3    H166604   4.481   6.585  12.681  0.8165  2.8281 -0.8028
15063TIP3    H266605   4.559   6.658  12.789  1.8730 -2.6599  2.3451
15064TIP3   OH266606   5.401   5.610   1.371  0.3600 -0.1579  0.4539
15064TIP3    H166607   5.424   5.559   1.293 -1.2553 -0.6450  0.2823
15064TIP3    H266608   5.424   5.554   1.445 -0.3792 -0.6901  0.2834
15065TIP3   OH266609   2.575   6.687  10.547  0.3303  0.5991 -0.4033
15065TIP3    H166610   2.522   6.673  10.469 -0.6378  0.0110  0.3440
15065TIP3    H266611   2.665   6.681  10.516 -0.0148 -2.0855 -1.0825
15066TIP3   OH266612   6.298   1.439   6.111  0.3116  0.4089 -0.1308
15066TIP3    H166613   6.207   1.441   6.083  0.7305 -0.5123 -1.6202
15066TIP3    H266614   6.347   1.417   6.032  1.6499 -1.0124  1.0697
15067TIP3   OH266615   6.328   3.411  14.317 -0.1565 -0.6981  0.2268
15067TIP3    H166616   6.382   3.488  14.337  0.6509 -1.0424 -0.5942
15067TIP3    H266617   6.383   3.357  14.261 -2.0638 -0.1299 -2.3058
15068TIP3   OH266618   2.472   2.685   3.405 -0.5264  0.8658 -0.2874
15068TIP3    H166619   2.415   2.634   3.347 -0.8316 -1.6477  2.0631
15068TIP3    H266620   2.424   2.766   3.421 -3.0487 -0.7471  0.7657
15069TIP3   OH266621   5.764   0.742   4.741 -0.2859  0.0953  0.2482
15069TIP3    H166622   5.772   0.734   4.836  2.6821 -1.7621 -0.0719
15069TIP3    H266623   5.690   0.686   4.718 -0.0970 -0.6202  1.3373
15070TIP3   OH266624   3.324   0.512   3.668 -0.7706 -0.6110 -0.2181
15070TIP3    H166625   3.417   0.494   3.659 -0.7397 -0.1795 -0.7492
15070TIP3    H266626   3.300   0.560   3.588 -1.3271 -0.2326  0.1699
15071TIP3   OH266627   5.291   0.027   3.712 -0.1974  0.4105 -0.5996
15071TIP3    H166628   5.357  -0.031   3.672  0.8949 -0.7723  2.7836
15071TIP3    H266629   5.341   0.103   3.741 -0.3167 -0.3543  1.7102
15072TIP3   OH266630   3.132   5.838  15.309  0.1962  0.0252  0.3073
15072TIP3    H166631   3.133   5.829  15.404  1.2032  0.1394  0.3166
15072TIP3    H266632   3.042   5.860  15.287  0.1641  0.9310  1.3288
15073TIP3   OH266633   0.270   0.872  11.614 -0.1903 -0.5041  0.0268
15073TIP3    H166634   0.322   0.794  11.596  1.5696  0.2252  1.7445
15073TIP3    H266635   0.331   0.931  11.658 -2.2996  0.6656  1.4555
15074TIP3   OH266636   0.800   1.990   4.418 -0.3445 -0.4652 -0.9447
15074TIP3    H166637   0.790   2.080   4.450 -2.5134 -0.9152 -0.2485
15074TIP3    H266638   0.790   1.936   4.496  0.1068 -1.3610 -1.5014
15075TIP3   OH266639   6.444   6.735  11.844 -0.3060 -0.3512 -0.0137
15075TIP3    H166640   6.463   6.826  11.865 -0.7925 -0.3807  0.5535
15075TIP3    H266641   6.530   6.698  11.821  0.0538 -0.0260  0.7906
15076TIP3   OH266642   3.852   4.716   1.925  0.1964 -0.0777  0.4911
15076TIP3    H166643   3.908   4.794   1.921  1.1850 -0.8574 -1.3589
15076TIP3    H266644   3.913   4.642   1.928 -0.7248 -0.8763 -0.1938
15077TIP3   OH266645   5.484   2.102   3.338 -0.1609  0.2531  0.1132
15077TIP3    H166646   5.452   2.073   3.253 -0.2683  0.9113 -0.0775
15077TIP3    H266647   5.509   2.022   3.384 -1.4640 -0.2139  0.0239
15078TIP3   OH266648   6.303   5.023  14.369  0.3878 -0.2680 -0.3408
15078TIP3    H166649   6.265   5.056  14.288  3.0550 -0.2122 -1.6257
15078TIP3    H266650   6.281   4.930  14.370  0.3988 -0.2834 -1.1835
15079TIP3   OH266651   5.049   1.222  12.095  0.0928  0.0489 -0.1245
15079TIP3    H166652   5.043   1.305  12.142 -0.8349  0.3414 -0.7549
15079TIP3    H266653   4.969   1.217  12.044  0.9920 -0.3661 -1.5220
15080TIP3   OH266654   4.016   1.634   0.520 -0.4284 -0.0477  0.0602
15080TIP3    H166655   3.951   1.586   0.573 -1.9121  1.2748 -0.5236
15080TIP3    H266656   4.021   1.584   0.439 -0.3270 -0.4560  0.3173
15081TIP3   OH266657   4.408   5.136   1.566 -0.1416  0.1464  0.2469
15081TIP3    H166658   4.418   5.092   1.482 -0.5853  0.4928  0.0099
15081TIP3    H266659   4.440   5.073   1.630  1.1266  0.2620 -0.2664
15082TIP3   OH266660   2.743   5.038  15.664 -0.5181 -0.6889 -0.6460
15082TIP3    H166661   2.702   4.952  15.674 -0.1348 -0.9066 -0.9592
15082TIP3    H266662   2.817   5.037  15.724  0.7284 -1.3499 -2.1728
15083TIP3   OH266663   2.067   0.954  14.068 -0.5975 -0.7562 -0.3133
15083TIP3    H166664   2.103   1.039  14.094 -1.8644 -0.7470  1.4691
15083TIP3    H266665   2.129   0.890  14.104 -0.2173 -0.6378 -0.7428
15084TIP3   OH266666   3.046   4.488   0.343 -0.4751 -0.5777 -0.3609
15084TIP3    H166667   3.043   4.396   0.368  2.4275 -1.4325 -2.9507
15084TIP3    H266668   2.999   4.492   0.260 -1.1172  0.4150  0.0396
15085TIP3   OH266669   5.327   1.411  15.562 -0.1615  0.1568  0.1954
15085TIP3    H166670   5.251   1.453  15.523 -1.3014  0.2176  2.4158
15085TIP3    H266671   5.402   1.459  15.526 -1.2388  1.2347 -0.6523
15086TIP3   OH266672   0.710   5.112  16.168  0.0256 -0.0179  0.7530
15086TIP3    H166673   0.644   5.098  16.101 -0.4571  0.7069  1.0834
15086TIP3    H266674   0.685   5.193  16.211  3.6473  2.8898 -2.1706
15087TIP3   OH266675   0.020   1.674   1.182  1.0897 -0.3993  0.5826
15087TIP3    H166676  -0.016   1.586   1.173  2.2052 -0.7533 -0.4781
15087TIP3    H266677  -0.040   1.729   1.132  1.8614 -0.9571 -0.9996
15088TIP3   OH266678   5.145   1.980   4.641 -0.3820 -0.0001 -0.0602
15088TIP3    H166679   5.204   2.032   4.586 -0.6183  0.4795  0.1344
15088TIP3    H266680   5.201   1.944   4.709 -0.4386  1.1081  0.5924
15089TIP3   OH266681   6.545   0.038  14.625 -0.4196 -0.0483 -0.5262
15089TIP3    H166682   6.566   0.090  14.548 -0.2944  1.9146  0.7981
15089TIP3    H266683   6.630   0.022  14.666 -0.7970  2.1895  1.2327
15090TIP3   OH266684   3.049   2.275  13.524  0.0651 -0.0509  0.2777
15090TIP3    H166685   3.034   2.365  13.551 -1.4946 -0.6134  1.3244
15090TIP3    H266686   3.040   2.223  13.604  1.2355 -1.1225 -0.2450
15091TIP3   OH266687   5.182   5.463  12.247 -0.2077 -0.0118  0.5740
15091TIP3    H166688   5.203   5.480  12.155  1.2482  1.7473  1.2102
15091TIP3    H266689   5.166   5.549  12.285  0.8638 -0.5687  2.3708
15092TIP3   OH266690   1.844   0.042   0.437  0.3769 -0.3342  0.3178
15092TIP3    H166691   1.782  -0.030   0.428  1.0325 -0.8789  0.0820
15092TIP3    H266692   1.927   0.005   0.406  1.0489  0.0553  1.6431
15093TIP3   OH266693   6.521   0.863   1.500 -0.1025 -0.8677 -0.5232
15093TIP3    H166694   6.458   0.898   1.562 -2.7410 -2.8129 -1.9913
15093TIP3    H266695   6.478   0.873   1.414  1.5379 -2.3285 -1.5380
15094TIP3   OH266696   5.837   6.045   4.461  0.2100 -0.5113  0.7253
15094TIP3    H166697   5.921   6.009   4.490  1.7417  1.1702 -1.4192
15094TIP3    H266698   5.851   6.068   4.369 -2.2591  0.8586  0.6359
15095TIP3   OH266699   2.344   5.707  17.145  0.2304  0.4372  0.1836
15095TIP3    H166700   2.365   5.703  17.052  0.9608 -1.3994  0.4008
15095TIP3    H266701   2.391   5.633  17.183 -2.4759 -0.6192  1.5519
15096TIP3   OH266702   2.491   4.329   4.521  0.2720 -0.0060 -0.2340
15096TIP3    H166703   2.492   4.391   4.449  0.1678 -1.7723 -1.7991
15096TIP3    H266704   2.399   4.326   4.549  0.2454  0.3938 -0.2802
15097TIP3   OH266705   0.793   5.897   3.847 -0.4121 -0.2614  0.4082
15097TIP3    H166706   0.802   5.832   3.777 -0.3616  1.5588 -1.3096
15097TIP3    H266707   0.822   5.851   3.926  1.0316 -1.8838 -1.0251
15098TIP3   OH266708   1.560   3.113   5.876 -0.0968  0.4015  1.1128
15098TIP3    H166709   1.594   3.193   5.836  1.7183 -1.5581 -1.4457
15098TIP3    H266710   1.613   3.102   5.956  1.9684  0.0029 -0.2770
15099TIP3   OH266711   0.051   3.934   5.190  0.1822 -0.2898  0.0513
15099TIP3    H166712   0.108   3.948   5.115 -0.3462  0.5221 -0.1925
15099TIP3    H266713   0.062   4.012   5.245 -1.0983  0.1244 -0.2600
15100TIP3   OH266714   1.983   5.025   5.099  0.4617 -0.1730  0.8427
15100TIP3    H166715   2.012   4.940   5.131  1.1741 -0.8107 -1.4152
15100TIP3    H266716   1.889   5.013   5.083  0.5041 -0.4457  0.7929
15101TIP3   OH266717   0.387   4.320  15.691 -0.0460  0.6456  0.2157
15101TIP3    H166718   0.294   4.323  15.712  0.0979 -2.9998  1.7695
15101TIP3    H266719   0.415   4.412  15.689 -3.3583  1.7252  1.0613
15102TIP3   OH266720   1.166   3.873   6.577  0.2475  0.1161 -0.0078
15102TIP3    H166721   1.139   3.890   6.667  3.0548 -0.5819  0.9929
15102TIP3    H266722   1.122   3.941   6.525  0.6474  2.0991  2.1880
15103TIP3   OH266723   0.458   0.987   4.717  0.2568  0.1094 -0.1628
15103TIP3    H166724   0.536   0.936   4.739  0.6348 -0.1214 -2.0308
15103TIP3    H266725   0.388   0.948   4.770  0.4815 -2.4684 -1.7178
15104TIP3   OH266726   4.903   5.435   3.495  0.1547 -0.4233  0.9315
15104TIP3    H166727   4.863   5.510   3.450  0.7854 -0.6707 -0.0444
15104TIP3    H266728   4.902   5.365   3.430 -0.5421 -1.3063  1.8785
15105TIP3   OH266729   1.840   2.118   3.814 -0.0889  0.2360  0.1243
15105TIP3    H166730   1.822   2.182   3.883  1.5398 -0.5928  1.3643
15105TIP3    H266731   1.765   2.058   3.818 -0.3984  0.6459  0.6423
15106TIP3   OH266732   3.362   2.442  14.954  0.0158 -0.0174  0.8191
15106TIP3    H166733   3.444   2.490  14.939 -0.4381  0.1270 -1.4639
15106TIP3    H266734   3.294   2.507  14.939 -0.5383 -0.5202  1.1573
15107TIP3   OH266735   4.791   0.831  13.007 -0.0246  0.2854  0.2510
15107TIP3    H166736   4.805   0.819  12.913 -1.3444 -1.9020  0.2972
15107TIP3    H266737   4.839   0.911  13.028  0.4077  0.7347 -2.2508
15108TIP3   OH266738   3.489   3.721  16.012  0.0272 -0.2425 -0.7545
15108TIP3    H166739   3.445   3.741  16.095 -0.1242  1.6138 -1.2422
15108TIP3    H266740   3.581   3.743  16.028  0.3155 -1.5395 -0.5644
15109TIP3   OH266741   0.955   1.378   4.521  0.4779 -0.7278  0.0605
15109TIP3    H166742   1.014   1.314   4.480  2.1995  0.4895  0.5965
15109TIP3    H266743   0.959   1.357   4.615  1.0552  0.1632  0.2383
15110TIP3   OH266744   2.804   5.483   5.814  0.8064 -0.4825 -0.6474
15110TIP3    H166745   2.787   5.487   5.720  0.9946 -0.6800 -0.6907
15110TIP3    H266746   2.738   5.423   5.848  1.1426 -0.9152 -0.7512
15111TIP3   OH266747   2.694   0.089   1.733  0.1395  0.3016 -0.6956
15111TIP3    H166748   2.726  -0.001   1.744 -0.1848  0.3608  0.7910
15111TIP3    H266749   2.601   0.079   1.712 -0.0246  0.3158  0.0347
15112TIP3   OH266750   2.740   0.649  16.586 -0.4286  0.3505  0.2282
15112TIP3    H166751   2.824   0.674  16.548 -0.6481  2.2881  1.0125
15112TIP3    H266752   2.758   0.637  16.679 -0.8645  0.0100  0.2733
15113TIP3   OH266753   3.364   1.489  11.348  0.0042  0.0673 -0.4843
15113TIP3    H166754   3.321   1.404  11.340  2.5385 -1.2051 -1.1179
15113TIP3    H266755   3.325   1.529  11.426 -2.9414 -0.6092 -1.5661
15114TIP3   OH266756   2.898   5.724   1.325  0.6075 -0.2595 -0.6468
15114TIP3    H166757   2.887   5.650   1.265  0.3459  0.3457 -1.3463
15114TIP3    H266758   2.993   5.731   1.336  0.5812 -1.6684  0.6454
15115TIP3   OH266759   0.268   5.826  11.958 -0.8355  0.2219 -0.0573
15115TIP3    H166760   0.327   5.895  11.929  1.6639 -1.8467 -0.1148
15115TIP3    H266761   0.232   5.858  12.040 -1.1140  2.3273 -0.9648
15116TIP3   OH266762   0.594   5.664  14.592  0.7096 -0.8756  0.4322
15116TIP3    H166763   0.573   5.632  14.504  0.6450 -0.3796  0.2666
15116TIP3    H266764   0.616   5.585  14.641 -1.2820 -1.3821  0.5434
15117TIP3   OH266765   0.232   1.321   3.877 -0.2713 -0.1236 -0.1195
15117TIP3    H166766   0.267   1.410   3.878 -0.5801 -0.0015 -0.1196
15117TIP3    H266767   0.288   1.273   3.937  0.7177 -0.2472 -1.1159
15118TIP3   OH266768   1.447   2.711   1.825 -0.2476 -0.1771  0.0002
15118TIP3    H166769   1.505   2.768   1.876  0.1026 -1.3087  0.8998
15118TIP3    H266770   1.404   2.656   1.891 -1.9326  0.2508 -0.6974
15119TIP3   OH266771   3.686   1.700   0.545 -0.3211  0.0655  0.1564
15119TIP3    H166772   3.745   1.753   0.599 -1.4486  0.0205  1.4584
15119TIP3    H266773   3.627   1.658   0.607 -1.6985  0.0562 -1.1158
15120TIP3   OH266774   5.954   2.861  12.410 -0.2112  0.3421  0.2295
15120TIP3    H166775   6.038   2.840  12.370  0.0276 -0.1650  0.9825
15120TIP3    H266776   5.968   2.947  12.451 -0.3336  0.6734 -0.4251
15121TIP3   OH266777   4.410   5.551   1.260 -0.5691  0.4986 -0.0858
15121TIP3    H166778   4.420   5.493   1.335 -1.5540 -2.5723 -2.2170
15121TIP3    H266779   4.494   5.546   1.214 -0.1727  1.9155  0.4306
15122TIP3   OH266780   0.617   1.656   4.866 -0.2174  0.5822  0.4963
15122TIP3    H166781   0.688   1.654   4.930  0.6412  0.8884 -0.4385
15122TIP3    H266782   0.661   1.666   4.781 -1.2753 -0.9580 -0.2539
15123TIP3   OH266783   0.508   4.606   6.567 -0.0540  0.5162  0.8049
15123TIP3    H166784   0.603   4.604   6.581  0.4066  0.6696 -2.0238
15123TIP3    H266785   0.493   4.545   6.494 -2.2378 -0.1267  1.7509
15124TIP3   OH266786   6.420   4.398   5.123 -0.1807  0.0231  0.5610
15124TIP3    H166787   6.505   4.358   5.107 -0.5370  0.3233 -2.5465
15124TIP3    H266788   6.439   4.489   5.143  0.2498  0.0344  0.0983
15125TIP3   OH266789   1.822   3.074   4.772 -0.3920  0.6530 -0.6097
15125TIP3    H166790   1.785   3.060   4.684  0.8605  0.6067 -1.1364
15125TIP3    H266791   1.913   3.098   4.756 -0.2984  1.1703  0.6658
15126TIP3   OH266792   4.433   1.806  13.385 -0.1935 -0.3014  0.3355
15126TIP3    H166793   4.481   1.809  13.302  0.4506 -0.6975  0.6892
15126TIP3    H266794   4.433   1.714  13.409 -1.0183 -0.2817  0.4102
15127TIP3   OH266795   5.823   3.924   1.640  0.1782 -0.6055 -0.2527
15127TIP3    H166796   5.841   4.004   1.590 -0.2317 -1.2422 -1.4379
15127TIP3    H266797   5.837   3.949   1.731 -2.3446  1.5130 -0.3851
15128TIP3   OH266798   2.865   0.574  15.691 -0.3929 -0.6729 -0.4448
15128TIP3    H166799   2.900   0.554  15.604 -0.6793 -0.1998 -0.6713
15128TIP3    H266800   2.894   0.501  15.746 -0.7416 -1.2868 -1.0715
15129TIP3   OH266801   4.702   3.948   1.390  0.2228  0.4559  0.2683
15129TIP3    H166802   4.611   3.975   1.402 -0.3868 -0.2102 -2.4608
15129TIP3    H266803   4.711   3.934   1.296  3.3644  1.2220  0.3800
15130TIP3   OH266804   5.085   1.440   0.163  0.5114  0.1674  0.3233
15130TIP3    H166805   5.100   1.346   0.177 -0.4452 -0.0948 -0.3634
15130TIP3    H266806   5.147   1.464   0.094  0.4354 -0.0674  0.1725
15131TIP3   OH266807   6.719   0.986  13.171 -0.0932 -0.2373 -0.2776
15131TIP3    H166808   6.795   0.964  13.118 -0.1456  0.2062 -0.5457
15131TIP3    H266809   6.648   0.933  13.134  0.3439 -1.5731  0.7569
15132TIP3   OH266810   2.640   3.080  12.513 -0.2406  0.3252 -0.1410
15132TIP3    H166811   2.700   3.133  12.564 -0.2505 -1.1353  1.4436
15132TIP3    H266812   2.559   3.080  12.564 -0.3214 -0.9871 -0.2502
15133TIP3   OH266813   4.912   3.525   0.634 -0.0565 -0.4360  0.1497
15133TIP3    H166814   4.908   3.536   0.729 -0.6284 -1.5160  0.2527
15133TIP3    H266815   5.003   3.501   0.616  0.0486 -0.2384  0.4220
15134TIP3   OH266816   2.161   1.152   3.981  0.3846 -0.3389  0.9636
15134TIP3    H166817   2.084   1.099   4.002 -0.1072  0.5492  1.4124
15134TIP3    H266818   2.140   1.195   3.899  0.3188  0.0640  1.1899
15135TIP3   OH266819   0.591   1.156  13.827  0.9221 -0.4120 -0.0200
15135TIP3    H166820   0.535   1.092  13.784  0.4160 -0.7910  1.1778
15135TIP3    H266821   0.654   1.183  13.760  0.3047 -1.1672 -0.9081
15136TIP3   OH266822   1.053   1.188   4.959 -0.1344 -0.5019  0.7812
15136TIP3    H166823   1.009   1.236   5.029 -0.5768 -0.2391  0.3290
15136TIP3    H266824   1.081   1.106   5.001 -0.6924 -0.4964  1.1847
15137TIP3   OH266825   2.570   2.832   3.651 -0.5457 -0.0074 -0.1132
15137TIP3    H166826   2.526   2.914   3.628 -0.4984  0.0584  0.0296
15137TIP3    H266827   2.662   2.855   3.657 -0.2714 -0.5247 -2.1559
15138TIP3   OH266828   2.586   6.517   4.994 -0.0996  0.2091 -0.3889
15138TIP3    H166829   2.596   6.476   4.908  0.4689 -2.4241  0.8927
15138TIP3    H266830   2.492   6.536   5.000 -0.4772 -1.4228 -0.7986
15139TIP3   OH266831   1.939   3.234  14.170 -0.1452 -0.2159 -0.0273
15139TIP3    H166832   2.015   3.203  14.220 -0.0569  1.2410  0.7637
15139TIP3    H266833   1.975   3.297  14.107 -0.8223  1.2863  1.0707
15140TIP3   OH266834   4.073   2.990   0.255  0.0335  0.1462 -0.1545
15140TIP3    H166835   4.023   2.943   0.321  0.8300 -0.0250  0.3357
15140TIP3    H266836   4.023   2.979   0.174 -0.6104 -0.1876  0.2918
15141TIP3   OH266837   0.680   3.822  12.950  0.0008  0.3409 -0.6420
15141TIP3    H166838   0.625   3.771  12.891  1.1892  0.9321 -2.3039
15141TIP3    H266839   0.625   3.839  13.026 -0.7559 -2.4894 -0.5213
15142TIP3   OH266840   4.492   2.372   0.511  0.0890 -0.7448 -0.4732
15142TIP3    H166841   4.470   2.438   0.576  2.7051  2.0657 -2.2792
15142TIP3    H266842   4.576   2.336   0.541  1.4225  0.7209 -2.2864
15143TIP3   OH266843   2.786   5.707  15.432  0.1662 -0.1010  0.0340
15143TIP3    H166844   2.719   5.645  15.461  0.6469 -1.0830 -0.8672
15143TIP3    H266845   2.865   5.653  15.423  1.0547  1.0207  0.9928
15144TIP3   OH266846   3.119   3.247   5.966 -0.5937 -0.5880 -0.2759
15144TIP3    H166847   3.088   3.322   6.015  1.2128 -1.2171  1.9110
15144TIP3    H266848   3.084   3.259   5.878 -2.5654  1.3854  0.7547
15145TIP3   OH266849   5.847   4.148  13.725  0.2498 -0.4393  0.2227
15145TIP3    H166850   5.828   4.058  13.751 -0.1824 -0.2178  0.6642
15145TIP3    H266851   5.785   4.201  13.774  2.5772  0.3790  2.3753
15146TIP3   OH266852   4.145   0.777  15.821  0.0025 -0.0674 -0.4680
15146TIP3    H166853   4.093   0.807  15.747 -1.0442 -2.5285 -0.8012
15146TIP3    H266854   4.081   0.758  15.889  0.9210  1.7389  0.9209
15147TIP3   OH266855   4.495   2.102  13.717  0.3713 -0.5445  0.4140
15147TIP3    H166856   4.571   2.046  13.731  0.6559  0.4322  3.2305
15147TIP3    H266857   4.527   2.190  13.739 -0.8993  0.2325 -0.8312
15148TIP3   OH266858   6.616   2.909  16.969 -0.0571  0.2603  0.4529
15148TIP3    H166859   6.563   2.830  16.954 -0.3840  0.5926 -0.1606
15148TIP3    H266860   6.697   2.876  17.007 -0.2789 -0.3577  0.4026
15149TIP3   OH266861   5.621   4.437  16.928 -0.7297  0.3092  0.6565
15149TIP3    H166862   5.609   4.350  16.890 -0.0238  1.2077 -1.6873
15149TIP3    H266863   5.532   4.474  16.933 -0.6419  1.1272 -2.5281
15150TIP3   OH266864   5.661   1.624   4.842 -0.2633  0.6850  0.1638
15150TIP3    H166865   5.626   1.686   4.905 -0.4812 -0.6571  1.4073
15150TIP3    H266866   5.657   1.539   4.887  1.9175  0.0683 -0.7043
15151TIP3   OH266867   1.904   3.799   5.060 -0.2894  0.5498 -0.1854
15151TIP3    H166868   1.900   3.834   4.972  0.3437  0.8496 -0.0935
15151TIP3    H266869   1.974   3.734   5.057  0.9085  1.7848  0.5289
15152TIP3   OH266870   4.445   2.934  14.631  0.2927 -0.5574 -0.3193
15152TIP3    H166871   4.526   2.973  14.598  0.6944 -0.5278  0.6936
15152TIP3    H266872   4.382   2.948  14.560  0.6442  1.2220 -0.3205
15153TIP3   OH266873   6.020   4.068   3.060 -0.4949 -0.1734 -0.4919
15153TIP3    H166874   6.007   4.013   2.983  1.1544 -1.1484 -0.1023
15153TIP3    H266875   5.954   4.038   3.123  0.1912 -1.5212 -0.3914
15154TIP3   OH266876   6.466   0.418  17.179  0.9278 -0.1704  0.4693
15154TIP3    H166877   6.430   0.367  17.252 -0.8138  1.6029  0.8800
15154TIP3    H266878   6.423   0.382  17.102  1.5405 -0.9513  0.4839
15155TIP3   OH266879   3.970   0.054  12.625 -0.5486  0.6404 -0.6595
15155TIP3    H166880   4.020   0.131  12.598 -0.7755  0.8872 -0.3893
15155TIP3    H266881   3.897   0.090  12.677  0.3260  0.1324  0.9549
15156TIP3   OH266882   5.415   4.791   2.364  0.5236 -0.1322  0.3148
15156TIP3    H166883   5.435   4.879   2.396  1.3713  0.1390 -0.9604
15156TIP3    H266884   5.476   4.776   2.292  0.1216 -1.6152  0.2607
15157TIP3   OH266885   5.757   1.185   4.130 -0.0597  0.4671 -0.3066
15157TIP3    H166886   5.672   1.178   4.173  0.0531 -1.7540 -0.4058
15157TIP3    H266887   5.738   1.226   4.045 -1.0887 -0.3960 -0.4920
15158TIP3   OH266888   0.555   4.891   0.567 -0.1215  0.0064 -0.2807
15158TIP3    H166889   0.632   4.896   0.624  1.1796 -0.9827 -1.9118
15158TIP3    H266890   0.486   4.859   0.625  1.2838 -1.4165  0.6751
15159TIP3   OH266891   5.403   0.454   5.230  0.4576 -0.0894  0.0902
15159TIP3    H166892   5.396   0.375   5.283  0.5500 -1.1478 -1.4577
15159TIP3    H266893   5.323   0.456   5.179  0.9285  0.2719 -0.6346
15160TIP3   OH266894   3.251   2.209   1.603  0.5292 -0.2093 -0.6902
15160TIP3    H166895   3.165   2.196   1.562  0.6437 -1.2255 -0.6006
15160TIP3    H266896   3.246   2.298   1.638 -0.9718 -0.7171  0.4563
15161TIP3   OH266897   1.517   4.176   3.643 -0.3587 -0.0505  0.0291
15161TIP3    H166898   1.425   4.203   3.641 -0.2017  0.5819  1.2818
15161TIP3    H266899   1.551   4.202   3.557 -0.7971  1.6963  0.3647
15162TIP3   OH266900   5.615   3.156  14.918 -0.4663 -0.9832  0.0100
15162TIP3    H166901   5.698   3.111  14.930 -0.4708 -1.1206 -0.4596
15162TIP3    H266902   5.589   3.136  14.828  0.3833  1.3450 -0.8043
15163TIP3   OH266903   5.369   3.798  14.157  0.4785  0.2068 -0.4241
15163TIP3    H166904   5.386   3.865  14.224 -1.2904 -2.6036  3.0124
15163TIP3    H266905   5.453   3.754  14.145  0.8730  0.9105 -0.2871
15164TIP3   OH266906   5.940   2.508   2.199 -0.3271  0.1420  0.0478
15164TIP3    H166907   5.986   2.532   2.118  1.5734 -2.7884  0.1782
15164TIP3    H266908   5.895   2.426   2.178 -1.6564  0.5098  1.3356
15165TIP3   OH266909   3.854   5.598   5.883 -0.4148  0.3589  0.1196
15165TIP3    H166910   3.884   5.665   5.945  0.0801 -2.3657  2.9441
15165TIP3    H266911   3.924   5.592   5.818 -0.9613  3.3014 -0.8016
15166TIP3   OH266912   6.432   5.377  13.736 -0.0001 -0.3183 -0.3114
15166TIP3    H166913   6.512   5.345  13.695 -1.1709 -1.9872 -1.3796
15166TIP3    H266914   6.393   5.435  13.671  0.5826  0.9013  0.4120
15167TIP3   OH266915   3.992   4.715   5.721 -0.0993 -0.8264  0.8243
15167TIP3    H166916   4.013   4.640   5.666 -0.5904 -0.8067  0.6070
15167TIP3    H266917   3.965   4.677   5.804  1.3332 -0.8371  1.3043
15168TIP3   OH266918   1.450   3.736   2.987  0.4084 -0.5435  0.5005
15168TIP3    H166919   1.510   3.662   2.993  0.8365 -0.3221 -0.9208
15168TIP3    H266920   1.444   3.768   3.077  1.6985 -1.1380  0.8203
15169TIP3   OH266921   2.725   0.957  11.094 -0.6040 -0.2911 -0.4791
15169TIP3    H166922   2.694   1.046  11.076 -2.5883 -1.3084 -2.3999
15169TIP3    H266923   2.728   0.915  11.008  3.8617 -1.0334 -0.0596
15170TIP3   OH266924   6.745   3.070  13.657 -0.1564 -0.0444 -0.3187
15170TIP3    H166925   6.708   2.993  13.700 -1.1761  0.2116 -0.7108
15170TIP3    H266926   6.725   3.142  13.717 -2.5280  0.4816 -1.6709
15171TIP3   OH266927   0.774   4.346  14.425  0.5442 -0.1171  0.0027
15171TIP3    H166928   0.766   4.251  14.421 -3.6431  0.1650 -0.8147
15171TIP3    H266929   0.766   4.367  14.518 -3.7199 -0.3524 -0.1924
15172TIP3   OH266930   2.409   5.108   6.212  0.1775 -0.4255 -0.2023
15172TIP3    H166931   2.421   5.145   6.300  0.3266 -0.5966 -0.1504
15172TIP3    H266932   2.419   5.013   6.225  0.8830 -0.3981 -0.5173
15173TIP3   OH266933   3.357   2.603  17.002  0.5904 -0.4261 -0.2471
15173TIP3    H166934   3.330   2.645  17.084  0.7495 -2.4650  0.8888
15173TIP3    H266935   3.276   2.563  16.969  0.5028  0.5003 -1.1526
15174TIP3   OH266936   2.185   6.535   2.722 -0.2401 -0.1098  0.7587
15174TIP3    H166937   2.269   6.496   2.696  0.1212  0.8554  0.4442
15174TIP3    H266938   2.119   6.487   2.672  0.3476  0.8935 -1.0490
15175TIP3   OH266939   2.582   1.711  10.993 -0.3681 -0.4124  0.2802
15175TIP3    H166940   2.502   1.672  10.958 -0.1279  1.3808 -2.4431
15175TIP3    H266941   2.551   1.771  11.062 -1.2301 -0.8028  0.2438
15176TIP3   OH266942   4.984   5.670   0.431  0.0364 -0.2508  0.6678
15176TIP3    H166943   5.064   5.618   0.435 -0.0903 -0.3509  2.0631
15176TIP3    H266944   4.914   5.607   0.416  0.3018 -0.0741 -1.4099
15177TIP3   OH266945   4.435   5.992   2.977  0.1811  0.3863 -0.5973
15177TIP3    H166946   4.508   6.007   2.917  0.1058 -2.0276 -1.3675
15177TIP3    H266947   4.401   5.906   2.952 -2.4411  1.1235  0.2523
15178TIP3   OH266948   0.933   1.098   0.088  0.2580 -0.6439  0.0902
15178TIP3    H166949   0.970   1.185   0.070  0.4824 -0.7366  0.1038
15178TIP3    H266950   0.979   1.068   0.166  1.8019 -1.7383 -1.2152
15179TIP3   OH266951   2.183   5.534  13.288  0.7532 -0.4462 -0.3684
15179TIP3    H166952   2.090   5.520  13.305  0.6393 -1.2683 -1.6123
15179TIP3    H266953   2.201   5.484  13.208  2.7054 -1.9451  0.9637
15180TIP3   OH266954   6.438   5.039   3.672  0.0816  0.3802 -1.0890
15180TIP3    H166955   6.534   5.043   3.670  0.1006 -0.0925 -1.0521
15180TIP3    H266956   6.411   5.126   3.700  0.5287  0.1995 -0.0871
15181TIP3   OH266957   2.017   6.710   3.216  0.0568 -0.0969  0.0291
15181TIP3    H166958   2.091   6.694   3.275  0.6553 -1.6301 -1.1194
15181TIP3    H266959   2.031   6.650   3.143 -3.2931 -1.7570  0.6499
15182TIP3   OH266960   4.807   5.776   3.595  0.3006  0.0222 -0.2199
15182TIP3    H166961   4.750   5.727   3.537  1.1020 -0.9801 -0.1638
15182TIP3    H266962   4.797   5.734   3.680  0.9245  0.0138 -0.1505
15183TIP3   OH266963   5.074   2.818  12.684  0.4526  0.0378 -0.4473
15183TIP3    H166964   5.110   2.804  12.596  1.9741  2.5021 -0.2689
15183TIP3    H266965   4.982   2.838  12.669  0.4899 -0.4740 -1.4189
15184TIP3   OH266966   0.325   6.161   3.085 -0.0389  0.4900 -0.0366
15184TIP3    H166967   0.296   6.236   3.033 -0.0099 -0.0520 -0.8376
15184TIP3    H266968   0.244   6.127   3.124 -0.2963 -0.1586 -1.1285
15185TIP3   OH266969   6.086   2.139   2.442  0.4603  0.0965  0.5892
15185TIP3    H166970   6.089   2.047   2.466 -0.3082 -0.0065  0.2839
15185TIP3    H266971   5.996   2.165   2.457 -0.3020 -0.2200 -3.1135
15186TIP3   OH266972   4.752   5.373   5.367 -0.1036 -0.3786  0.6203
15186TIP3    H166973   4.758   5.442   5.433 -1.3474 -0.3001  0.6606
15186TIP3    H266974   4.734   5.294   5.417  0.4724 -0.5932  0.4972
15187TIP3   OH266975   2.875   6.171  13.674 -0.2888 -0.2078 -0.1623
15187TIP3    H166976   2.893   6.092  13.622 -0.3667  0.3799 -1.0985
15187TIP3    H266977   2.933   6.164  13.750  1.1255 -0.2084 -1.2182
15188TIP3   OH266978   5.696   3.526   4.393  0.4347  0.3936  0.0465
15188TIP3    H166979   5.652   3.610   4.405  0.8140  0.5120  0.6848
15188TIP3    H266980   5.783   3.550   4.360  0.6530  0.2779  0.5274
15189TIP3   OH266981   2.764   0.764   0.724 -0.6470  0.0900 -0.4163
15189TIP3    H166982   2.826   0.707   0.678  0.0995  0.7487 -0.2362
15189TIP3    H266983   2.723   0.708   0.789  0.2798 -0.1733 -0.0584
15190TIP3   OH266984   3.879   6.387  15.513  0.4725 -0.0453  0.1302
15190TIP3    H166985   3.842   6.332  15.582 -1.2865 -1.2928 -1.7520
15190TIP3    H266986   3.871   6.476  15.547 -0.8163 -0.5973  1.3345
15191TIP3   OH266987   5.508   3.840  11.404  0.0576  0.0540 -0.1033
15191TIP3    H166988   5.423   3.800  11.385  0.1697 -0.7331  1.0539
15191TIP3    H266989   5.495   3.888  11.485  1.1380 -1.4011  0.9526
15192TIP3   OH266990   0.229   4.093  16.297 -0.3544  0.3875  0.0701
15192TIP3    H166991   0.271   4.063  16.217  0.5031 -0.9417  0.9984
15192TIP3    H266992   0.177   4.169  16.270 -0.6967 -0.5070 -1.8789
15193TIP3   OH266993   0.541   1.339  15.325 -0.0436 -0.4356  0.0942
15193TIP3    H166994   0.583   1.257  15.298 -0.2309  0.1854 -2.1515
15193TIP3    H266995   0.607   1.406  15.309 -0.1945 -0.0333  1.1409
15194TIP3   OH266996   0.165   0.304  15.719  0.6693  0.1625  0.4475
15194TIP3    H166997   0.167   0.362  15.642  1.4124 -1.0792 -0.4910
15194TIP3    H266998   0.103   0.235  15.695 -1.7536  1.5954  2.3484
15195TIP3   OH266999   5.034   1.519  16.877  0.6251  0.0305 -0.3297
15195TIP3    H167000   4.956   1.495  16.827  0.5372 -2.1938  0.8080
15195TIP3    H267001   5.103   1.464  16.842  1.0881  0.1071  0.4441
15196TIP3   OH267002   3.813   2.842   0.830  0.2677  0.3284  0.3334
15196TIP3    H167003   3.892   2.791   0.813  0.8683  1.7575 -1.2949
15196TIP3    H267004   3.845   2.922   0.874 -0.2853  0.8174 -0.1475
15197TIP3   OH267005   3.249   5.826  11.645 -0.3701 -0.4506  0.3145
15197TIP3    H167006   3.298   5.747  11.667  0.0607 -0.1179  0.5535
15197TIP3    H267007   3.256   5.881  11.723 -2.9969 -1.3161  1.2192
15198TIP3   OH267008   5.927   6.609   3.698 -0.3516  0.0313 -0.3100
15198TIP3    H167009   5.968   6.537   3.650 -0.5271 -1.2073  1.3574
15198TIP3    H267010   5.957   6.688   3.653 -0.6896 -1.0916 -2.5804
15199TIP3   OH267011   0.636   3.132   2.195  0.4165 -0.4954 -0.0967
15199TIP3    H167012   0.571   3.163   2.131  1.0157 -0.1441 -0.5337
15199TIP3    H267013   0.583   3.091   2.263 -0.5806  2.9103  1.3184
15200TIP3   OH267014   3.726   3.208   0.428  0.2823 -0.1286  0.3685
15200TIP3    H167015   3.664   3.160   0.374  1.6143  0.9644 -2.1854
15200TIP3    H267016   3.728   3.296   0.392  1.0825  0.6932  2.3092
15201TIP3   OH267017   0.301   3.941  14.346  0.6874 -0.0231  0.6196
15201TIP3    H167018   0.336   3.858  14.312  1.8947  0.2688  1.1259
15201TIP3    H267019   0.281   3.992  14.268  1.8436 -0.0159  0.3181
15202TIP3   OH267020   0.164   0.000   4.455  0.3208  0.0166  0.1207
15202TIP3    H167021   0.171  -0.059   4.530  1.7920  0.1557  0.1117
15202TIP3    H267022   0.078  -0.018   4.418  0.3307 -1.3669  0.7436
15203TIP3   OH267023   2.725   6.568   1.743  0.1408 -0.1190  0.0448
15203TIP3    H167024   2.685   6.586   1.658 -0.2123 -0.2215  0.1875
15203TIP3    H267025   2.739   6.474   1.745  0.4205 -0.0797 -0.0172
15204TIP3   OH267026   6.595   2.209  16.336  0.2892 -0.1879 -0.7899
15204TIP3    H167027   6.556   2.123  16.349  0.3546 -0.0740  0.1888
15204TIP3    H267028   6.607   2.216  16.241 -0.1513 -1.0580 -0.9134
15205TIP3   OH267029   3.705   1.839   5.882 -0.1241 -0.0193  0.8767
15205TIP3    H167030   3.639   1.841   5.951 -0.5649  1.4874  0.4375
15205TIP3    H267031   3.675   1.771   5.822  0.9467 -2.2508  2.7992
15206TIP3   OH267032   3.684   0.896   5.810  0.1657  0.1607 -0.4599
15206TIP3    H167033   3.711   0.842   5.736 -2.2561 -3.0626  0.9300
15206TIP3    H267034   3.592   0.874   5.824 -0.2859  3.0246  1.5868
15207TIP3   OH267035   0.516   2.187   5.792  0.4360 -0.1610 -0.1240
15207TIP3    H167036   0.479   2.099   5.795  0.2249 -0.0603  0.3830
15207TIP3    H267037   0.610   2.175   5.799  0.4441 -0.3778 -0.6219
15208TIP3   OH267038   4.578   4.843  13.459  0.4853 -0.4534  0.1647
15208TIP3    H167039   4.598   4.811  13.371  1.5139 -0.1967  0.3016
15208TIP3    H267040   4.634   4.790  13.517  0.2016 -0.2603  0.6168
15209TIP3   OH267041   0.374   4.190  11.821  0.4157  0.2393 -0.5368
15209TIP3    H167042   0.301   4.223  11.874 -0.0174  0.5238 -1.3102
15209TIP3    H267043   0.446   4.250  11.840  0.6995 -0.5069  0.8423
15210TIP3   OH267044   5.545   0.836   1.051 -0.6023  0.4754  0.3127
15210TIP3    H167045   5.552   0.895   1.126  0.7855  1.0578 -0.2649
15210TIP3    H267046   5.492   0.884   0.988 -0.2660  0.7321  0.2196
15211TIP3   OH267047   0.936   3.077  12.751  0.3703 -0.6533  0.6490
15211TIP3    H167048   0.986   3.049  12.828 -0.6800  1.5444  2.1938
15211TIP3    H267049   0.845   3.079  12.781 -0.2859 -1.6028 -1.2309
15212TIP3   OH267050   4.775   0.861  14.148 -0.2000  0.0373  0.3994
15212TIP3    H167051   4.777   0.774  14.187  1.8065  0.1640  0.6623
15212TIP3    H267052   4.726   0.849  14.067  3.4726 -2.3279 -1.6549
15213TIP3   OH267053   1.071   3.878   4.960 -0.2519 -0.3948  0.2000
15213TIP3    H167054   1.123   3.870   4.880  1.0554 -0.3857  1.0295
15213TIP3    H267055   1.062   3.788   4.992 -0.0767 -0.3087  0.4861
15214TIP3   OH267056   3.190   6.461  16.006 -0.0354 -0.3638  0.7800
15214TIP3    H167057   3.180   6.425  16.095 -0.4246 -0.8119  0.5621
15214TIP3    H267058   3.128   6.534  16.003 -0.4725 -0.7304  0.6840
15215TIP3   OH267059   2.566   5.817   4.148 -0.6321 -0.1627  0.5724
15215TIP3    H167060   2.507   5.845   4.218  0.4035  0.5777  1.1421
15215TIP3    H267061   2.517   5.747   4.104 -1.5006 -0.3035  1.7135
15216TIP3   OH267062   6.433   0.290   1.827  0.3078  0.0694 -0.2464
15216TIP3    H167063   6.393   0.247   1.751  0.4568 -1.9447  0.7845
15216TIP3    H267064   6.359   0.308   1.885  0.4220 -0.0350 -0.0711
15217TIP3   OH267065   4.351   3.233   2.410 -0.1036  0.2731  0.1077
15217TIP3    H167066   4.282   3.214   2.474  1.7351 -2.3486  1.4451
15217TIP3    H267067   4.331   3.176   2.336 -1.2680  2.0337 -0.9396
15218TIP3   OH267068   2.323   3.560   0.810  0.1558 -0.4997 -0.0736
15218TIP3    H167069   2.288   3.535   0.724  1.3300  1.0602 -1.0391
15218TIP3    H267070   2.275   3.505   0.872 -2.2535 -0.1493 -1.5396
15219TIP3   OH267071   3.947   0.205  10.619 -0.1600 -0.2708 -0.5162
15219TIP3    H167072   3.887   0.216  10.546 -1.0471  0.0268  0.2431
15219TIP3    H267073   4.034   0.213  10.580 -0.6276  0.4190 -1.4529
15220TIP3   OH267074   6.341   2.721  14.099 -0.2004 -0.7472 -0.2877
15220TIP3    H167075   6.378   2.778  14.166  0.4957  0.2902 -1.5146
15220TIP3    H267076   6.294   2.780  14.041  1.0248 -1.3194 -1.9122
15221TIP3   OH267077   5.222   5.322  10.957  0.0281  0.2638 -0.0592
15221TIP3    H167078   5.254   5.263  10.888 -0.5649  0.4363 -0.4926
15221TIP3    H267079   5.288   5.391  10.962 -0.5176  0.8969 -1.3071
15222TIP3   OH267080   4.401   4.026   1.450 -0.0600 -0.2829  0.6992
15222TIP3    H167081   4.477   4.069   1.489 -0.7730  1.3445  0.3338
15222TIP3    H267082   4.326   4.061   1.499 -0.5730 -2.2522  1.4063
15223TIP3   OH267083   1.000   3.842  14.772  0.3138  0.1435 -0.3274
15223TIP3    H167084   0.993   3.897  14.693  1.9686 -1.4399 -1.6169
15223TIP3    H267085   1.085   3.865  14.809  0.7213 -1.0491 -0.5051
15224TIP3   OH267086   5.989   6.098   3.100 -0.4787  0.2842  0.0881
15224TIP3    H167087   6.011   6.129   3.012 -1.9746  0.3006 -0.2881
15224TIP3    H267088   6.071   6.104   3.149  1.0584 -2.2762 -2.0320
15225TIP3   OH267089   3.925   6.575   5.034 -0.0392  0.4823  0.2265
15225TIP3    H167090   3.856   6.578   5.099  0.7516 -0.0554  1.1052
15225TIP3    H267091   3.921   6.660   4.990 -2.0592 -0.0064 -0.5881
15226TIP3   OH267092   6.030   4.165   4.928  0.4817  0.4912 -0.6089
15226TIP3    H167093   5.974   4.184   4.853  0.6427  0.3364 -0.7663
15226TIP3    H267094   6.115   4.203   4.906  0.6923 -0.0583 -0.7565
15227TIP3   OH267095   0.563   1.742  12.739  0.2556 -0.2818  0.0231
15227TIP3    H167096   0.611   1.815  12.778  1.7933 -1.6701  0.8011
15227TIP3    H267097   0.600   1.735  12.650 -1.3288  1.1612 -0.7613
15228TIP3   OH267098   1.267   1.566   0.993 -0.4745  0.3661 -0.0151
15228TIP3    H167099   1.223   1.532   0.915 -0.9342 -0.6572  0.6713
15228TIP3    H267100   1.195   1.585   1.053 -0.1853  2.0953 -0.2015
15229TIP3   OH267101   0.025   2.471   4.300 -0.3812  0.2009 -0.4798
15229TIP3    H167102   0.025   2.566   4.290  0.1828  0.1354 -1.1870
15229TIP3    H267103   0.035   2.456   4.394  0.0411  0.8377 -0.4218
15230TIP3   OH267104   4.860   2.842   1.630  0.1058 -0.3880  0.2261
15230TIP3    H167105   4.855   2.878   1.719  0.6559  0.5141 -0.1025
15230TIP3    H267106   4.920   2.768   1.638  2.2687  1.3243  0.0864
15231TIP3   OH267107   5.478   3.886   4.692  0.4136 -0.0713 -0.7987
15231TIP3    H167108   5.566   3.887   4.656  0.8987  0.8418  0.3877
15231TIP3    H267109   5.471   3.967   4.742 -0.3346 -1.1700  0.9333
15232TIP3   OH267110   5.193   4.141   1.281  0.1419  0.6205 -0.3458
15232TIP3    H167111   5.252   4.069   1.304  0.2729 -0.2090 -3.0634
15232TIP3    H267112   5.105   4.107   1.299  0.3308  0.6608  0.6396
15233TIP3   OH267113   2.867   1.359  13.984 -0.7228  0.0448 -0.0038
15233TIP3    H167114   2.787   1.331  13.939 -0.8507  3.1087 -1.8853
15233TIP3    H267115   2.836   1.411  14.058 -0.4649 -1.3232  1.0822
15234TIP3   OH267116   4.799   5.695  13.850 -0.3371  0.2732 -0.1594
15234TIP3    H167117   4.801   5.759  13.778  2.0964  3.5053  2.5896
15234TIP3    H267118   4.720   5.717  13.899 -0.5164 -0.0771 -0.2935
15235TIP3   OH267119   0.686   0.122  16.258 -0.3924  0.3024 -0.6848
15235TIP3    H167120   0.694   0.207  16.300  1.3259  0.7788 -1.8962
15235TIP3    H267121   0.656   0.141  16.169 -0.3017 -0.3779 -0.8704
15236TIP3   OH267122   6.011   4.926   2.550  0.6112  0.5097  0.1659
15236TIP3    H167123   6.082   4.931   2.485 -0.1143  0.5175 -0.6386
15236TIP3    H267124   5.933   4.905   2.498 -0.3244  2.3628  0.7856
15237TIP3   OH267125   1.269   4.300  14.645  0.0029  0.0434  0.0885
15237TIP3    H167126   1.189   4.348  14.623 -0.1369  0.4694  1.4490
15237TIP3    H267127   1.339   4.366  14.639  0.2861 -0.3523 -1.2016
15238TIP3   OH267128   6.090   4.393   2.784  0.1168 -0.0053  0.0621
15238TIP3    H167129   6.026   4.400   2.713  0.0449 -0.3931  0.0907
15238TIP3    H267130   6.036   4.388   2.863  0.2038  0.9350  0.1851
15239TIP3   OH267131   2.931   2.071  15.750 -0.0478  0.5391 -0.0814
15239TIP3    H167132   2.841   2.048  15.727 -0.9797  2.7154  1.3253
15239TIP3    H267133   2.923   2.137  15.818  2.6337  0.3200  0.5072
15240TIP3   OH267134   6.369   4.212  17.013  0.4260 -0.1052 -0.3672
15240TIP3    H167135   6.454   4.224  17.057  0.9421  1.1598 -1.6671
15240TIP3    H267136   6.383   4.246  16.925 -0.9885 -1.3717 -1.1024
15241TIP3   OH267137   3.675   2.536   1.343 -0.1515  0.4042  0.0441
15241TIP3    H167138   3.659   2.623   1.307 -2.1844  0.1819  0.3883
15241TIP3    H267139   3.664   2.477   1.269 -0.4218  0.2937  0.1724
15242TIP3   OH267140   6.494   2.416   1.612 -0.1765  0.8708 -0.1344
15242TIP3    H167141   6.483   2.405   1.707 -0.3783  1.4717 -0.0875
15242TIP3    H267142   6.442   2.493   1.591  0.9183  1.5060 -0.5278
15243TIP3   OH267143   4.801   2.322   1.911  0.0259  0.5440 -0.1259
15243TIP3    H167144   4.852   2.389   1.957 -0.9212  0.2679  1.3806
15243TIP3    H267145   4.719   2.318   1.959 -0.3596 -0.9225 -0.8810
15244TIP3   OH267146   3.429   3.604  12.880  0.5665  0.1767  0.0480
15244TIP3    H167147   3.393   3.560  12.958  0.6612 -1.1460 -0.6332
15244TIP3    H267148   3.352   3.622  12.825  0.8080 -1.7697 -0.9690
15245TIP3   OH267149   3.681   6.205  12.193 -0.0347  0.3601  0.1028
15245TIP3    H167150   3.740   6.273  12.161  1.1859 -0.4560  0.5664
15245TIP3    H267151   3.673   6.221  12.287 -1.4154  1.0999 -0.1234
15246TIP3   OH267152   2.177   0.922   1.060  0.2401 -0.2907 -0.2391
15246TIP3    H167153   2.179   0.917   1.155 -1.8117 -1.8173 -0.2451
15246TIP3    H267154   2.102   0.979   1.040  0.0092 -0.8314 -0.9528
15247TIP3   OH267155   2.252   4.270   1.994  0.5778 -0.4053  0.2565
15247TIP3    H167156   2.187   4.271   1.924  0.0355 -2.9921  0.6564
15247TIP3    H267157   2.328   4.227   1.956  0.3306 -1.6940  1.1576
15248TIP3   OH267158   4.169   0.550  12.368 -0.1583 -0.3074 -0.1413
15248TIP3    H167159   4.189   0.576  12.278  1.7533 -0.0080  0.3580
15248TIP3    H267160   4.197   0.458  12.373 -0.0912 -0.2676  0.1951
15249TIP3   OH267161   2.871   1.756  16.283  0.1619  0.3922 -0.2608
15249TIP3    H167162   2.850   1.825  16.345  0.9630 -0.5753  1.1107
15249TIP3    H267163   2.789   1.709  16.270  0.0878  0.3588  0.3515
15250TIP3   OH267164   2.776   1.980   3.929  0.3487  0.5139 -0.3331
15250TIP3    H167165   2.859   1.992   3.974  0.8682  3.6629 -1.9788
15250TIP3    H267166   2.735   2.066   3.930 -1.3528 -0.2121 -2.5183
15251TIP3   OH267167   2.685   5.329   2.850 -0.4914 -0.0640 -0.3771
15251TIP3    H167168   2.599   5.325   2.808 -0.5901  2.8748 -0.5645
15251TIP3    H267169   2.666   5.343   2.942 -0.2017 -0.8257 -0.1950
15252TIP3   OH267170   5.086   6.338   4.199  0.7228  0.4023 -0.4142
15252TIP3    H167171   5.040   6.255   4.204  0.0861  0.7974  0.3993
15252TIP3    H267172   5.144   6.338   4.275 -0.4522  1.3831  0.5053
15253TIP3   OH267173   4.608   1.750  14.372  0.7210  0.1425 -0.6042
15253TIP3    H167174   4.620   1.669  14.323  0.3355 -0.4999  0.3631
15253TIP3    H267175   4.516   1.772  14.361  0.7922  0.3835 -0.7457
15254TIP3   OH267176   0.599   1.829   4.237  0.0938  0.1367  0.2187
15254TIP3    H167177   0.628   1.868   4.155  0.2359  0.8025  0.5808
15254TIP3    H267178   0.660   1.862   4.303 -1.4191  1.4926  0.9734
15255TIP3   OH267179   4.043   2.788   4.446 -0.2570  0.2215  0.2384
15255TIP3    H167180   4.061   2.810   4.354  0.1291 -0.1476  0.2224
15255TIP3    H267181   4.001   2.866   4.481 -0.2051  0.4488 -0.1971
15256TIP3   OH267182   6.284   3.048   0.224 -0.5557 -0.4327  0.3843
15256TIP3    H167183   6.286   2.991   0.147  1.8741 -0.2754  0.2940
15256TIP3    H267184   6.316   3.132   0.193  1.3974 -0.6271  1.7284
15257TIP3   OH267185   4.670   5.610  15.307 -0.6061  0.5436  0.0798
15257TIP3    H167186   4.740   5.676  15.311  0.7329 -0.8913  1.0954
15257TIP3    H267187   4.623   5.630  15.226  1.5116  1.0376 -1.0833
15258TIP3   OH267188   4.659   6.183   2.342  0.2060 -0.2680 -0.8652
15258TIP3    H167189   4.616   6.173   2.257  1.0351 -0.8393 -1.2212
15258TIP3    H267190   4.735   6.238   2.324  0.4599 -0.5022 -0.5157
15259TIP3   OH267191   2.129   6.203   0.800  0.2639 -0.2577 -0.3868
15259TIP3    H167192   2.052   6.232   0.849  1.1293  1.2092  0.1445
15259TIP3    H267193   2.098   6.193   0.710 -0.9214 -1.2742  0.1169
15260TIP3   OH267194   2.662   1.743   1.681 -0.4918  0.1323 -0.3353
15260TIP3    H167195   2.683   1.830   1.713 -0.2788 -0.0496  0.0266
15260TIP3    H267196   2.720   1.731   1.606 -1.4600  0.8163 -1.1936
15261TIP3   OH267197   3.837   4.958   2.282  0.2751  0.1677  0.3457
15261TIP3    H167198   3.780   5.009   2.340 -0.6624  0.5318 -0.8730
15261TIP3    H267199   3.843   4.872   2.324 -1.5462 -0.0173  0.2519
15262TIP3   OH267200   3.231   5.642  12.928 -0.0938  0.3249  0.1386
15262TIP3    H167201   3.315   5.684  12.946  0.3376 -0.2185 -0.6007
15262TIP3    H267202   3.247   5.549  12.944 -0.7380  0.2913  0.6397
15263TIP3   OH267203   5.298   1.915  15.821  0.3788 -0.2398  0.3431
15263TIP3    H167204   5.391   1.916  15.846 -0.2236  0.5829  2.7274
15263TIP3    H267205   5.280   2.004  15.794  0.3944 -0.5223 -0.6085
15264TIP3   OH267206   3.385   3.097   0.644  0.7790  0.0106  0.0903
15264TIP3    H167207   3.336   3.179   0.648  0.7556  0.0712 -1.2965
15264TIP3    H267208   3.455   3.114   0.581 -1.3788 -2.1629 -3.0125
15265TIP3   OH267209   3.842   1.772  15.952 -0.4579  0.0127 -0.3082
15265TIP3    H167210   3.790   1.746  16.027  0.0104 -1.2563 -0.4187
15265TIP3    H267211   3.874   1.860  15.974  0.0740 -0.5501  1.1772
15266TIP3   OH267212   6.595   1.240   0.522  0.4373 -0.0285  0.0706
15266TIP3    H167213   6.690   1.246   0.510  0.3902  0.4760 -0.0865
15266TIP3    H267214   6.565   1.180   0.453  0.4346  1.1396 -0.9596
15267TIP3   OH267215   6.521   4.836  11.163  0.0088  0.2715 -0.1612
15267TIP3    H167216   6.564   4.823  11.079 -0.1494 -1.7329  0.0377
15267TIP3    H267217   6.586   4.810  11.228 -0.8235 -0.8935  0.2133
15268TIP3   OH267218   2.398   2.084   4.350 -0.5092  0.2087 -0.3179
15268TIP3    H167219   2.321   2.083   4.293 -0.6033  1.9729 -0.2511
15268TIP3    H267220   2.362   2.084   4.439 -0.3721 -1.5338 -0.2298
15269TIP3   OH267221   3.261   1.463   0.677 -0.3398 -0.1073  0.0616
15269TIP3    H167222   3.208   1.541   0.659  3.5554  3.1019  1.7041
15269TIP3    H267223   3.250   1.448   0.771  0.0793 -0.6709  0.0198
15270TIP3   OH267224   0.182   3.793  12.400 -0.5385  0.1532  0.1546
15270TIP3    H167225   0.202   3.884  12.378 -1.0101  0.4249  0.8424
15270TIP3    H267226   0.261   3.761  12.444  0.0567 -0.1185 -1.0548
15271TIP3   OH267227   3.364   0.584   0.474 -1.0690  0.1043  0.1026
15271TIP3    H167228   3.401   0.670   0.453 -3.3222  1.0605 -0.0356
15271TIP3    H267229   3.371   0.578   0.569 -1.8230  0.8952  0.2200
15272TIP3   OH267230   1.840   2.882   5.058 -0.2515 -0.1647  0.3557
15272TIP3    H167231   1.819   2.874   5.151  1.5195 -0.8014  0.7161
15272TIP3    H267232   1.901   2.955   5.053 -1.5841  0.9258 -0.5409
15273TIP3   OH267233   2.504   4.875   1.869 -0.6051  0.3894  0.6672
15273TIP3    H167234   2.487   4.858   1.777  1.7964 -2.5542  0.6995
15273TIP3    H267235   2.449   4.812   1.916  1.3757 -1.0592  1.0887
15274TIP3   OH267236   0.580   0.397   2.899  0.4871 -0.9474 -0.3014
15274TIP3    H167237   0.534   0.368   2.977 -0.2381 -2.3414 -1.2297
15274TIP3    H267238   0.627   0.476   2.927  0.0891 -1.3178  1.4726
15275TIP3   OH267239   6.177   5.184   2.334 -0.0999 -0.2549 -0.0565
15275TIP3    H167240   6.216   5.098   2.345 -0.4787 -0.6748 -1.9219
15275TIP3    H267241   6.083   5.167   2.325  0.0471  0.1689 -2.5536
15276TIP3   OH267242   6.022   2.779  11.681  0.4376  0.4004  0.8772
15276TIP3    H167243   6.044   2.871  11.697  0.4989  0.8624 -1.6511
15276TIP3    H267244   6.093   2.747  11.626  0.0901 -1.0094  1.2433
15277TIP3   OH267245   3.261   1.080   4.599  0.2195 -0.4007  0.6909
15277TIP3    H167246   3.311   1.126   4.666  1.8364 -1.3314  0.1686
15277TIP3    H267247   3.176   1.125   4.596  2.2773  3.6363 -0.9554
15278TIP3   OH267248   3.004   0.937  12.609 -0.5076  0.0379 -0.0029
15278TIP3    H167249   3.045   0.874  12.668 -1.3006 -0.7035 -0.2419
15278TIP3    H267250   3.077   0.980  12.565  0.2695  2.4917  3.4005
15279TIP3   OH267251   4.744   2.765  16.968 -0.0596 -0.0567 -0.1839
15279TIP3    H167252   4.834   2.736  16.949 -1.0315 -1.6990 -2.4730
15279TIP3    H267253   4.745   2.785  17.061  2.5194 -0.7104 -0.0274
15280TIP3   OH267254   1.904   0.673  12.782  0.1699  0.2329 -0.3083
15280TIP3    H167255   1.868   0.697  12.696  0.1095  1.3413  0.0090
15280TIP3    H267256   1.834   0.695  12.844  0.4932  0.1376  0.0926
15281TIP3   OH267257   0.304   6.409   5.917 -0.6237 -0.2270 -0.0821
15281TIP3    H167258   0.258   6.354   5.854 -0.1792 -1.8790  1.0142
15281TIP3    H267259   0.395   6.407   5.887 -0.6634  0.1840 -0.2314
15282TIP3   OH267260   2.191   5.460   4.118 -0.5263 -0.3544  0.6339
15282TIP3    H167261   2.174   5.551   4.093 -0.0317 -0.3023  0.4866
15282TIP3    H267262   2.286   5.451   4.114 -0.6672 -1.3052 -0.8130
15283TIP3   OH267263   6.415   0.950   0.680 -0.4528  0.0113 -0.5463
15283TIP3    H167264   6.354   0.966   0.608  0.7859 -1.4319 -1.9399
15283TIP3    H267265   6.463   1.032   0.690  1.4712 -0.6765 -3.4199
15284TIP3   OH267266   0.894   1.448   5.605  0.0020  0.1750  0.4014
15284TIP3    H167267   0.803   1.449   5.578 -0.6407 -0.9044  2.3941
15284TIP3    H267268   0.931   1.529   5.570 -1.7443  0.6746 -0.3286
15285TIP3   OH267269   6.005   3.954   0.346  0.9331  0.1076 -0.4679
15285TIP3    H167270   6.036   4.021   0.285  0.8498 -0.9803 -1.7236
15285TIP3    H267271   5.950   4.002   0.408  3.0117  1.6162  0.2405
15286TIP3   OH267272   3.165   5.391   1.026 -0.3859 -1.0512 -0.1473
15286TIP3    H167273   3.195   5.306   1.060 -0.9887 -1.8648 -1.5954
15286TIP3    H267274   3.230   5.414   0.960  0.0484 -0.1211  0.5854
15287TIP3   OH267275   1.695   4.617   1.217  0.0384 -0.3405 -0.2277
15287TIP3    H167276   1.705   4.554   1.146 -0.1680 -0.2909 -0.3012
15287TIP3    H267277   1.641   4.687   1.179 -1.3534 -1.0384  0.4501
15288TIP3   OH267278   1.530   1.403   1.584 -0.1338 -0.4858  0.6988
15288TIP3    H167279   1.498   1.482   1.628  0.1985 -0.2025  0.4296
15288TIP3    H267280   1.540   1.429   1.492 -1.0107 -1.1337  0.4182
15289TIP3   OH267281   5.713   2.934   1.539  0.3956  0.1747  0.1133
15289TIP3    H167282   5.672   3.008   1.493 -0.2732 -0.8562 -0.9608
15289TIP3    H267283   5.807   2.947   1.524  0.2559  0.5232 -0.5211
15290TIP3   OH267284   2.470   4.524  11.351  0.8628  0.0073 -0.3958
15290TIP3    H167285   2.397   4.584  11.338  2.2055  1.5359 -1.0989
15290TIP3    H267286   2.515   4.557  11.428  0.6438 -1.1145  0.2206
15291TIP3   OH267287   2.685   5.254  14.814 -0.0727 -0.2128  0.2139
15291TIP3    H167288   2.685   5.170  14.859  0.9519 -0.5889 -0.4667
15291TIP3    H267289   2.682   5.232  14.721 -0.0514  0.5070  0.0352
15292TIP3   OH267290   0.799   4.071  16.829 -0.2653  0.3155  0.1695
15292TIP3    H167291   0.732   4.056  16.896 -0.5702  2.0823  0.2807
15292TIP3    H267292   0.768   4.148  16.781  0.2199 -0.6149 -1.6718
15293TIP3   OH267293   6.780   5.367   4.878 -0.6036 -0.0666  0.9806
15293TIP3    H167294   6.805   5.397   4.790 -0.1444  0.4697  1.2920
15293TIP3    H267295   6.826   5.426   4.937 -0.6694 -0.6247  1.5896
15294TIP3   OH267296   2.507   1.071   1.738 -0.3863  0.4814 -0.2590
15294TIP3    H167297   2.589   1.099   1.695  0.4053 -0.4914  0.5993
15294TIP3    H267298   2.536   1.012   1.808 -1.8940 -0.5922 -0.5366
15295TIP3   OH267299   1.154   4.362  16.102 -0.5320 -0.5713  0.0069
15295TIP3    H167300   1.171   4.393  16.191 -2.0035  1.4192 -0.3688
15295TIP3    H267301   1.086   4.296  16.113  0.8447 -1.9371  0.5580
15296TIP3   OH267302   2.169   1.341   4.188 -0.1365 -0.2036  0.0541
15296TIP3    H167303   2.186   1.279   4.117  0.3712 -0.4559  0.3934
15296TIP3    H267304   2.245   1.332   4.246  1.1125  2.4689 -1.1228
15297TIP3   OH267305   4.940   2.780  14.538  0.0167 -0.2699  0.2056
15297TIP3    H167306   4.928   2.806  14.629  0.1751  0.3516  0.0590
15297TIP3    H267307   5.015   2.721  14.539  1.8658  1.9839  0.1311
15298TIP3   OH267308   2.729   3.843   1.974  0.4721 -0.3389  0.0807
15298TIP3    H167309   2.668   3.891   2.030 -0.0369 -1.1689  0.2350
15298TIP3    H267310   2.740   3.759   2.018 -1.9353 -2.0158 -2.4046
15299TIP3   OH267311   2.132   2.179   1.538 -0.3793 -0.1053 -0.3031
15299TIP3    H167312   2.110   2.088   1.556  0.7617 -0.7074 -1.8257
15299TIP3    H267313   2.120   2.188   1.443 -0.7511  1.4064 -0.1303
15300TIP3   OH267314   0.893   5.533  16.990 -0.3965  0.3598 -0.5254
15300TIP3    H167315   0.856   5.618  17.013 -0.0378  0.4022 -0.1078
15300TIP3    H267316   0.931   5.546  16.903 -1.3482  0.3195 -0.9487
15301TIP3   OH267317   6.747   1.423   2.301  0.0643  0.0708 -0.4034
15301TIP3    H167318   6.750   1.339   2.255 -1.3434  0.3286 -1.0198
15301TIP3    H267319   6.826   1.424   2.354 -1.0435 -2.6856  1.4273
15302TIP3   OH267320   1.888   6.358   5.050  0.0609  0.1145 -0.0668
15302TIP3    H167321   1.939   6.427   5.093 -0.8160  0.3405  0.6264
15302TIP3    H267322   1.940   6.279   5.060  1.0148  0.6461 -0.7489
15303TIP3   OH267323   0.247   2.426  16.594  0.3451 -0.6932 -0.3274
15303TIP3    H167324   0.250   2.513  16.633 -0.5704 -1.0383  0.5550
15303TIP3    H267325   0.288   2.436  16.509  0.2257  0.6107 -0.2426
15304TIP3   OH267326   3.140   5.074  11.134  0.3579  0.8264 -0.1911
15304TIP3    H167327   3.205   5.004  11.139 -1.2561 -0.7113 -0.2519
15304TIP3    H267328   3.106   5.069  11.044  1.6799  3.0589 -0.8611
15305TIP3   OH267329   3.707   5.932  16.883 -0.1246 -0.2752  0.1565
15305TIP3    H167330   3.717   5.878  16.961  1.2569  1.2959  1.1312
15305TIP3    H267331   3.788   5.984  16.880 -0.8136  0.7573 -1.4756
15306TIP3   OH267332   2.409   1.103   0.474 -0.4398 -0.4189  0.3767
15306TIP3    H167333   2.323   1.061   0.478  0.4058 -2.6379 -2.9638
15306TIP3    H267334   2.462   1.055   0.538 -0.4906 -2.0591 -0.7882
15307TIP3   OH267335   6.021   2.346   3.794  0.0265 -0.4045  0.8180
15307TIP3    H167336   6.012   2.398   3.714  0.4775  2.5002  2.5864
15307TIP3    H267337   5.943   2.368   3.845  1.6342  0.8569  2.8281
15308TIP3   OH267338   2.991   3.870  14.708 -0.2234 -0.6219 -0.1780
15308TIP3    H167339   2.923   3.873  14.775 -1.1711 -1.6858 -1.0768
15308TIP3    H267340   3.066   3.914  14.748 -1.4296  0.5555  0.8330
15309TIP3   OH267341   5.949   0.702  16.491  0.9467 -0.0235  0.1145
15309TIP3    H167342   6.015   0.763  16.524  3.0400 -0.5025 -2.8991
15309TIP3    H267343   5.883   0.759  16.451  0.7678  0.3801  0.9700
15310TIP3   OH267344   2.007   6.202  12.988 -0.4361 -0.3129 -0.0180
15310TIP3    H167345   1.970   6.250  12.914 -1.2928  1.0648  1.2537
15310TIP3    H267346   1.966   6.242  13.065 -0.1435 -2.2019  1.1638
15311TIP3   OH267347   0.868   5.776  13.072  0.2537 -0.7657 -0.0552
15311TIP3    H167348   0.795   5.717  13.095 -0.3229 -1.1713 -2.7129
15311TIP3    H267349   0.830   5.863  13.075 -0.0410 -0.8836 -0.2765
15312TIP3   OH267350   0.845   3.657  15.555  0.1285 -0.6508  0.1129
15312TIP3    H167351   0.920   3.704  15.518  0.1126 -0.5607  0.1967
15312TIP3    H267352   0.829   3.699  15.639 -1.1193  0.4924 -0.6752
15313TIP3   OH267353   1.933   6.501   3.966  0.0749 -0.1706 -0.2709
15313TIP3    H167354   2.016   6.518   4.010  0.4936 -0.4550 -0.9354
15313TIP3    H267355   1.947   6.530   3.876 -0.9311  0.8807 -0.1101
15314TIP3   OH267356   0.807   4.840   0.407  0.7653  0.6432 -1.0124
15314TIP3    H167357   0.760   4.911   0.451 -0.0778  0.0812 -1.0059
15314TIP3    H267358   0.777   4.843   0.316 -1.0080 -1.1506 -0.5106
15315TIP3   OH267359   5.376   0.094   1.279  0.2694  0.4081  0.0235
15315TIP3    H167360   5.387  -0.001   1.275 -0.0128  0.3885 -0.3277
15315TIP3    H267361   5.452   0.125   1.329  0.4041  0.0065  0.0702
15316TIP3   OH267362   0.401   6.769  16.099 -0.2311 -0.1958 -0.1522
15316TIP3    H167363   0.415   6.855  16.059 -0.0389 -0.2536 -0.2098
15316TIP3    H267364   0.354   6.719  16.032  1.1955 -0.7000 -0.7959
15317TIP3   OH267365   4.618   4.690   4.670 -0.3438 -0.3918 -0.2083
15317TIP3    H167366   4.656   4.778   4.674 -1.5742  0.1738 -0.7538
15317TIP3    H267367   4.563   4.684   4.748 -1.1893 -0.2241 -0.7786
15318TIP3   OH267368   0.746   3.788   1.874  0.8373 -0.0083  0.1964
15318TIP3    H167369   0.685   3.842   1.824 -0.1986 -1.3846 -0.0597
15318TIP3    H267370   0.747   3.704   1.828  1.1082 -0.7633  1.5665
15319TIP3   OH267371   4.357   5.770  10.652 -0.4239 -0.4182 -0.4500
15319TIP3    H167372   4.345   5.843  10.592  1.1338 -0.0410 -0.3383
15319TIP3    H267373   4.424   5.715  10.610  2.0597  0.8145  1.7550
15320TIP3   OH267374   1.833   4.568  14.224 -0.1932  0.3751 -0.4188
15320TIP3    H167375   1.852   4.647  14.274  0.1624  0.1880 -0.2609
15320TIP3    H267376   1.875   4.583  14.139 -0.2501  0.4171 -0.4392
15321TIP3   OH267377   3.004   3.788   5.263  0.5378 -1.0291 -0.5841
15321TIP3    H167378   2.964   3.795   5.349  1.6502 -1.8204  0.0082
15321TIP3    H267379   2.954   3.849   5.208  1.3938  1.3731  1.1989
15322TIP3   OH267380   1.845   5.142  11.181  0.3310 -0.0065  0.4372
15322TIP3    H167381   1.804   5.067  11.226 -1.7359  1.8179  1.6925
15322TIP3    H267382   1.826   5.127  11.089 -0.7490 -0.6474  0.7413
15323TIP3   OH267383   4.240   3.303   5.393 -0.2321 -0.1204 -0.3814
15323TIP3    H167384   4.304   3.311   5.464 -1.4592 -0.2412  0.7649
15323TIP3    H267385   4.169   3.361   5.419 -1.2109 -1.0716 -0.9325
15324TIP3   OH267386   2.825   3.459   6.056  0.3201  0.0037 -0.0705
15324TIP3    H167387   2.775   3.406   6.119 -0.3632 -0.1423 -0.7355
15324TIP3    H267388   2.914   3.461   6.092  0.0814 -0.6233  0.5637
15325TIP3   OH267389   4.100   4.755   1.082 -0.0930 -0.2596  0.2034
15325TIP3    H167390   4.041   4.787   1.151 -0.1926  1.1209 -0.5029
15325TIP3    H267391   4.051   4.769   1.001  1.6147  1.8637 -0.4835
15326TIP3   OH267392   3.720   1.321  15.181  0.3312 -0.0260 -0.2207
15326TIP3    H167393   3.795   1.341  15.125  0.0894  0.3981 -0.3983
15326TIP3    H267394   3.711   1.226  15.177 -1.4249  0.2005 -3.1859
15327TIP3   OH267395   4.789   0.409   1.619 -0.7029 -0.4233 -0.4471
15327TIP3    H167396   4.773   0.366   1.703 -0.2185 -2.1623 -1.2251
15327TIP3    H267397   4.875   0.450   1.629 -0.0009 -1.8473 -0.5712
15328TIP3   OH267398   0.912   6.468  13.667  0.2597  0.5642 -0.0733
15328TIP3    H167399   0.837   6.503  13.714  0.3773 -0.6199  1.0347
15328TIP3    H267400   0.886   6.472  13.575 -1.6913 -0.9790  0.3726
15329TIP3   OH267401   0.579   2.853  13.506  0.2227 -0.2327 -0.1075
15329TIP3    H167402   0.657   2.894  13.470  2.3158 -2.1708  2.0410
15329TIP3    H267403   0.551   2.791  13.439 -0.2425  1.3463 -1.4086
15330TIP3   OH267404   0.106   0.562   4.412 -0.5211  0.2318 -0.3210
15330TIP3    H167405   0.140   0.484   4.368 -1.7923 -0.0775 -0.8018
15330TIP3    H267406   0.031   0.530   4.462  0.0495  0.8451  0.9247
15331TIP3   OH267407   4.490   2.560   1.750 -0.1811 -0.3083  0.3158
15331TIP3    H167408   4.466   2.475   1.711 -1.1553  0.5444 -0.9968
15331TIP3    H267409   4.442   2.624   1.698  2.9366  1.2894 -0.6889
15332TIP3   OH267410   2.902   6.735  12.269 -0.9994  0.1853  0.1055
15332TIP3    H167411   2.840   6.807  12.283 -0.5080  0.6594 -0.1478
15332TIP3    H267412   2.940   6.719  12.355 -0.4386  0.8420 -0.0227
15333TIP3   OH267413   4.640   2.143  16.903 -0.6258  0.0189 -0.0507
15333TIP3    H167414   4.666   2.180  16.987  1.2934  0.2781 -0.7387
15333TIP3    H267415   4.712   2.086  16.877 -0.9970  0.2600 -1.7089
15334TIP3   OH267416   5.423   2.448   6.399  0.5659  0.0917  0.7037
15334TIP3    H167417   5.341   2.479   6.439  0.9852 -1.2262  2.6266
15334TIP3    H267418   5.395   2.385   6.333 -0.0826  1.5594 -0.4581
15335TIP3   OH267419   6.657   1.002  11.646 -0.3963  0.3967  0.0669
15335TIP3    H167420   6.598   1.051  11.587 -0.1591  1.4830  0.7212
15335TIP3    H267421   6.615   1.009  11.732  1.7884  3.0295  0.9555
15336TIP3   OH267422   2.564   2.341   3.007 -0.0853 -0.5308  0.1442
15336TIP3    H167423   2.647   2.312   2.969 -0.1757  1.2084 -1.4840
15336TIP3    H267424   2.499   2.278   2.974  0.5423 -1.7667  1.2489
15337TIP3   OH267425   2.011   3.116   5.115  0.6081 -0.1390  0.0532
15337TIP3    H167426   2.057   3.060   5.053 -0.0126 -0.8656  0.2405
15337TIP3    H267427   2.066   3.194   5.122  1.3352 -0.5996 -0.4202
15338TIP3   OH267428   6.523   5.276   1.763 -0.2572 -0.2322 -0.2924
15338TIP3    H167429   6.477   5.360   1.766 -0.4758 -0.3662  0.1712
15338TIP3    H267430   6.500   5.233   1.846 -0.0477 -0.6960 -0.4724
15339TIP3   OH267431   4.290   5.795   1.251  0.2467  0.5007 -0.0679
15339TIP3    H167432   4.338   5.715   1.267 -0.9047 -0.3609 -0.8313
15339TIP3    H267433   4.324   5.857   1.315  0.6698 -0.7855  0.9694
15340TIP3   OH267434   2.531   3.563   1.001 -0.5228 -0.6898 -0.6398
15340TIP3    H167435   2.489   3.613   0.931  0.1393  1.3860  0.4088
15340TIP3    H267436   2.604   3.518   0.959 -0.3186  0.2951 -1.3376
15341TIP3   OH267437   5.961   5.090   3.161 -0.0828 -0.0754  0.3702
15341TIP3    H167438   5.990   5.056   3.076 -1.9187  1.9955 -1.1367
15341TIP3    H267439   6.042   5.110   3.207  0.9654 -2.6079 -0.2801
15342TIP3   OH267440   1.022   0.653  14.969 -0.2045 -0.6280 -0.0798
15342TIP3    H167441   1.062   0.682  15.052  1.7320  0.7958 -1.4632
15342TIP3    H267442   0.965   0.725  14.944  0.8699 -0.1135 -1.0656
15343TIP3   OH267443   2.852   0.633   5.976 -0.1088  0.2236 -0.6536
15343TIP3    H167444   2.880   0.604   5.890 -0.2580  0.8183 -0.9028
15343TIP3    H267445   2.848   0.728   5.970 -0.0228  0.2754  0.0379
15344TIP3   OH267446   5.430   3.064  14.098 -0.0906  0.3155 -0.3258
15344TIP3    H167447   5.453   3.077  14.005  4.5712  3.3338  1.0571
15344TIP3    H267448   5.392   3.148  14.125 -2.6871 -1.0016  0.2400
15345TIP3   OH267449   5.155   4.990  12.908 -0.3427  0.0087 -0.2657
15345TIP3    H167450   5.183   5.033  12.828  2.5606 -1.6492 -0.2188
15345TIP3    H267451   5.236   4.974  12.957 -1.9726  0.3755  2.6948
15346TIP3   OH267452   3.900   0.391   3.029  0.0139 -0.2737 -0.1811
15346TIP3    H167453   3.844   0.363   2.956  1.0115  0.6019 -1.3173
15346TIP3    H267454   3.897   0.318   3.091 -0.3846 -1.3010 -1.3774
15347TIP3   OH267455   6.018   2.154   1.135 -0.3347  0.2119  0.1830
15347TIP3    H167456   5.936   2.188   1.172 -0.8318  0.8366 -1.4826
15347TIP3    H267457   6.003   2.060   1.127  0.0003 -0.0338  2.1049
15348TIP3   OH267458   2.901   4.136   5.382 -0.0135  1.0670 -0.6713
15348TIP3    H167459   2.876   4.100   5.467  1.2478  0.8851 -0.3631
15348TIP3    H267460   2.939   4.221   5.403  0.6104  0.8752 -1.0233
15349TIP3   OH267461   6.565   2.021   2.515 -0.0986  0.2100  0.7652
15349TIP3    H167462   6.547   2.038   2.608 -1.8178 -2.3017  0.9501
15349TIP3    H267463   6.519   2.092   2.469 -0.9917  0.2915  1.7517
15350TIP3   OH267464   4.099   1.812   5.285  0.1766 -0.1621 -0.2729
15350TIP3    H167465   4.179   1.766   5.312  0.1852  0.3770  0.6203
15350TIP3    H267466   4.129   1.890   5.239  0.1684  0.2845  0.4745
15351TIP3   OH267467   3.032   1.584  16.929 -0.2658  0.1354 -0.4363
15351TIP3    H167468   2.990   1.615  16.849 -1.0564  0.3387  0.0574
15351TIP3    H267469   3.045   1.490  16.914 -0.6933  0.1136 -0.6715
15352TIP3   OH267470   3.842   3.706  16.905  0.3634 -0.4466  0.0471
15352TIP3    H167471   3.862   3.780  16.847 -0.0777 -0.6897 -0.4121
15352TIP3    H267472   3.888   3.727  16.986  0.5602  0.1468 -0.2153
15353TIP3   OH267473   2.348   2.845   0.087 -0.6372 -0.0287  0.1427
15353TIP3    H167474   2.289   2.855   0.013 -0.8994 -1.4319  0.1479
15353TIP3    H267475   2.388   2.931   0.098 -2.9789  1.0659  0.3937
15354TIP3   OH267476   6.419   2.436  15.536  0.7315 -0.5257  0.4426
15354TIP3    H167477   6.478   2.397  15.471  1.5165 -0.6382  1.2107
15354TIP3    H267478   6.438   2.530  15.531  1.4543 -0.6287  1.1494
15355TIP3   OH267479   5.519   6.708   3.345  0.5306 -0.2945 -0.5993
15355TIP3    H167480   5.546   6.640   3.282 -0.1814 -0.7255 -0.4519
15355TIP3    H267481   5.512   6.662   3.428 -0.7731 -0.2349 -0.6602
15356TIP3   OH267482   0.490   1.174   6.310  0.1832 -0.4076  0.3479
15356TIP3    H167483   0.502   1.196   6.402 -2.2896 -0.1357  0.6486
15356TIP3    H267484   0.567   1.121   6.287  1.2990  0.3486  2.2786
15357TIP3   OH267485   1.431   1.708  13.087  0.5268  0.1898 -0.0102
15357TIP3    H167486   1.516   1.703  13.043  0.3801 -0.6631 -0.2046
15357TIP3    H267487   1.386   1.627  13.061 -0.2548  0.5345  0.2718
15358TIP3   OH267488   2.139   1.682   1.913 -0.0057 -0.1623 -0.2031
15358TIP3    H167489   2.234   1.667   1.911  0.2544  1.4091 -0.7650
15358TIP3    H267490   2.101   1.596   1.931  1.5600 -0.6847  0.7334
15359TIP3   OH267491   2.246   4.280   0.582 -0.3056 -0.0633  0.0681
15359TIP3    H167492   2.171   4.322   0.541  0.3829 -0.3000 -1.4669
15359TIP3    H267493   2.310   4.350   0.594  0.1572 -0.3181 -0.8621
15360TIP3   OH267494   3.769   5.902  15.080 -0.4673 -0.5042 -0.0776
15360TIP3    H167495   3.740   5.819  15.042  2.4130 -1.5298 -0.1128
15360TIP3    H267496   3.862   5.906  15.061  0.3337  0.6886  3.6956
15361TIP3   OH267497   4.347   3.956  16.699  0.3944  0.0546  0.0785
15361TIP3    H167498   4.272   3.997  16.741  0.9923 -0.6429  1.8464
15361TIP3    H267499   4.409   4.028  16.684 -0.0935  0.4134 -0.2490
15362TIP3   OH267500   3.562   0.879  12.372  0.2327  0.1999 -0.0996
15362TIP3    H167501   3.586   0.912  12.285 -2.3519  1.4260 -0.3906
15362TIP3    H267502   3.588   0.949  12.432  0.7906 -0.0699 -0.0271
15363TIP3   OH267503   1.625   0.969  16.472 -0.1465  0.4212 -0.3041
15363TIP3    H167504   1.627   0.878  16.500  1.5324  0.6184  0.2537
15363TIP3    H267505   1.581   1.015  16.543 -0.7627  0.0926 -0.4676
15364TIP3   OH267506   0.063   6.721   4.120  0.0228  0.2316 -0.2102
15364TIP3    H167507   0.008   6.648   4.149  1.8559  0.4577  4.1669
15364TIP3    H267508   0.141   6.680   4.084  0.0952  0.0414  0.1709
15365TIP3   OH267509   3.994   1.006   4.208 -0.3117 -0.7197 -0.3825
15365TIP3    H167510   4.004   1.064   4.133  0.8973 -0.9977 -0.4560
15365TIP3    H267511   3.908   1.026   4.244  0.6732  2.1552  0.4640
15366TIP3   OH267512   0.056   0.898  11.001 -0.2559 -0.6656 -0.3035
15366TIP3    H167513   0.138   0.849  11.011  0.0125 -0.0558  0.5937
15366TIP3    H267514   0.057   0.929  10.911  1.6031  1.2741  0.3593
15367TIP3   OH267515   3.900   3.245  13.746  0.3664  0.1228 -0.1964
15367TIP3    H167516   3.897   3.294  13.663  2.5984 -0.9988 -0.9780
15367TIP3    H267517   3.920   3.312  13.812 -0.5190  0.8720 -0.6544
15368TIP3   OH267518   0.979   5.328  10.945  0.3244 -0.0445  0.3661
15368TIP3    H167519   1.068   5.320  10.980 -0.4606 -1.1387  2.1753
15368TIP3    H267520   0.932   5.253  10.982 -0.9740 -0.3292 -1.7853
15369TIP3   OH267521   5.745   3.554  12.666 -0.4657 -0.0685 -0.0923
15369TIP3    H167522   5.679   3.506  12.615 -0.8046  0.3700 -0.0666
15369TIP3    H267523   5.695   3.602  12.732 -0.1378  0.4118 -0.1905
15370TIP3   OH267524   1.743   5.355  12.117  0.2277  0.1903  0.2347
15370TIP3    H167525   1.696   5.357  12.033  0.4635 -0.5764  0.0841
15370TIP3    H267526   1.794   5.274  12.114 -0.3755 -0.2415  1.4508
15371TIP3   OH267527   6.554   4.501   0.809 -0.1862  0.2092 -0.0130
15371TIP3    H167528   6.630   4.556   0.831  1.2193 -1.2281 -1.1955
15371TIP3    H267529   6.498   4.558   0.756 -0.8795  1.8890  2.4386
15372TIP3   OH267530   2.216   4.550   2.872 -0.1555 -0.4900 -0.6054
15372TIP3    H167531   2.258   4.571   2.788  0.7422 -1.9734 -0.5401
15372TIP3    H267532   2.231   4.628   2.926  0.5112 -0.0971 -1.3484
15373TIP3   OH267533   5.475   5.701  15.203 -0.6516 -0.3213 -0.1507
15373TIP3    H167534   5.462   5.720  15.296 -0.5616  0.5682 -0.3121
15373TIP3    H267535   5.506   5.610  15.201  0.5428  0.0436  0.7857
15374TIP3   OH267536   6.378   0.146  12.104 -0.0832  0.2713  0.4811
15374TIP3    H167537   6.398   0.070  12.050  1.1135  0.2446  0.9491
15374TIP3    H267538   6.401   0.119  12.193 -0.0946  1.0228  0.7212
15375TIP3   OH267539   6.160   3.458  14.840 -0.1463 -0.3104  0.1952
15375TIP3    H167540   6.220   3.487  14.771 -0.4619  2.6096  1.0934
15375TIP3    H267541   6.188   3.507  14.918 -3.6964  1.1375  0.6264
15376TIP3   OH267542   1.789   4.720  13.720 -0.3617 -0.2070 -0.0884
15376TIP3    H167543   1.839   4.712  13.801 -2.5336 -0.6990  1.2382
15376TIP3    H267544   1.799   4.635  13.678 -1.0304 -0.7180  0.7590
15377TIP3   OH267545   2.912   0.155   4.703 -0.0956 -0.3701 -0.4035
15377TIP3    H167546   3.005   0.135   4.692  0.4004  1.1359  0.7361
15377TIP3    H267547   2.903   0.243   4.666 -0.6570  0.2635  1.2094
15378TIP3   OH267548   4.230   6.664   1.248  0.6314  0.1987 -0.2328
15378TIP3    H167549   4.150   6.638   1.293  0.9149 -1.1374 -0.4724
15378TIP3    H267550   4.200   6.707   1.168  0.1345  2.2448  1.0369
15379TIP3   OH267551   6.759   3.322   6.131 -0.0840 -0.4080  0.0421
15379TIP3    H167552   6.673   3.303   6.167  1.1056 -1.0811  2.6355
15379TIP3    H267553   6.798   3.385   6.192  2.6187 -2.8156  0.9194
15380TIP3   OH267554   2.726   5.401  12.368 -0.2676  0.0241  0.0034
15380TIP3    H167555   2.686   5.413  12.282  0.3047  1.7483 -0.0314
15380TIP3    H267556   2.805   5.350  12.351 -1.9943 -2.8031 -0.0090
15381TIP3   OH267557   3.437   5.782   5.510  0.6898  0.2425  0.3942
15381TIP3    H167558   3.357   5.806   5.464  1.2027 -0.4894 -0.9128
15381TIP3    H267559   3.462   5.698   5.472  0.5949 -0.8724  2.7228
15382TIP3   OH267560   1.323   1.402  14.009  0.1125 -0.4321  0.1244
15382TIP3    H167561   1.286   1.449  14.083  0.1587 -0.9704  0.4933
15382TIP3    H267562   1.270   1.323  14.002 -0.3673 -0.0291 -0.8910
15383TIP3   OH267563   1.011   3.890  15.462 -0.3159  0.4655  0.1257
15383TIP3    H167564   1.046   3.978  15.454  1.0163  0.1910  2.4580
15383TIP3    H267565   1.050   3.855  15.543 -1.9164 -1.7400  0.0178
15384TIP3   OH267566   3.168   3.082   2.299 -0.1821 -0.2673 -0.0286
15384TIP3    H167567   3.168   3.127   2.214  1.6586 -0.4238 -0.1276
15384TIP3    H267568   3.126   2.998   2.281 -0.6092  0.0534 -0.5779
15385TIP3   OH267569   0.718   2.293   4.355  0.4299 -0.2840 -0.2805
15385TIP3    H167570   0.624   2.288   4.340 -0.0214  1.3895  1.6652
15385TIP3    H267571   0.752   2.340   4.278 -0.2950 -1.0289 -1.0631
15386TIP3   OH267572   0.089   3.607   1.167  0.0505 -0.1042 -0.1949
15386TIP3    H167573   0.003   3.565   1.176 -1.3800  2.0412 -2.6903
15386TIP3    H267574   0.093   3.631   1.074  2.6170  1.3696  0.2685
15387TIP3   OH267575   1.013   5.646   0.357  0.2610 -0.3595  0.0303
15387TIP3    H167576   0.936   5.671   0.306  0.7757  1.8718  0.2926
15387TIP3    H267577   0.979   5.586   0.423 -1.2754  0.7063  0.2363
15388TIP3   OH267578   0.756   4.010   2.833  0.1887 -0.8360 -0.2798
15388TIP3    H167579   0.805   4.072   2.888  0.6015 -0.6080 -0.8946
15388TIP3    H267580   0.670   4.051   2.821  0.0045 -1.0142  0.4163
15389TIP3   OH267581   3.662   2.980  15.345  0.2559  0.4565  0.1511
15389TIP3    H167582   3.720   2.948  15.415  0.8825 -0.4816 -0.7815
15389TIP3    H267583   3.672   2.915  15.275 -2.4228 -0.0733  0.2116
15390TIP3   OH267584   1.246   3.318   3.165 -0.2673 -0.2743  0.0719
15390TIP3    H167585   1.300   3.266   3.106 -0.9672 -0.4142 -0.4503
15390TIP3    H267586   1.244   3.405   3.125  2.9788  0.9216  2.2194
15391TIP3   OH267587   1.406   0.494   1.581 -0.2939  0.0434 -0.5848
15391TIP3    H167588   1.347   0.482   1.507 -0.6668  0.6586 -0.3900
15391TIP3    H267589   1.352   0.475   1.658 -0.3748  1.0947 -0.3794
15392TIP3   OH267590   1.933   0.921   0.766  0.3660 -0.3292 -0.2715
15392TIP3    H167591   1.857   0.938   0.821 -0.0260 -2.5968 -0.0342
15392TIP3    H267592   1.940   0.997   0.709 -0.9255  0.7614  1.0027
15393TIP3   OH267593   3.470   4.194   0.044 -0.5767  0.4554  0.3849
15393TIP3    H167594   3.458   4.132  -0.028  2.1627 -0.0719  0.3068
15393TIP3    H267595   3.454   4.143   0.123 -0.0827  0.0875  0.2516
15394TIP3   OH267596   3.092   1.413   2.197  0.1782 -0.3213  0.2678
15394TIP3    H167597   3.174   1.380   2.232  0.2832  0.3377  0.6521
15394TIP3    H267598   3.063   1.345   2.136  1.4838 -0.1408 -0.5735
15395TIP3   OH267599   4.216   2.551  13.638  0.3107  0.2606  0.5729
15395TIP3    H167600   4.161   2.570  13.562 -1.9236 -2.0112  1.5467
15395TIP3    H267601   4.252   2.635  13.663  0.4540  1.1821 -2.5128
15396TIP3   OH267602   4.611   0.212  15.048 -0.7075  0.0134 -0.4044
15396TIP3    H167603   4.602   0.118  15.039 -2.3579  0.2242 -1.2392
15396TIP3    H267604   4.543   0.237  15.112  0.1457  0.5583  0.3072
15397TIP3   OH267605   3.860   2.010  12.134 -0.4938 -0.3926 -0.0185
15397TIP3    H167606   3.830   1.953  12.204 -0.6128  0.4009  0.5878
15397TIP3    H267607   3.954   2.016  12.147 -0.7847  1.5426  1.4587
15398TIP3   OH267608   1.212   1.952  15.414  0.2953 -0.0363  0.0529
15398TIP3    H167609   1.229   2.045  15.425 -0.4320  0.0192  0.7464
15398TIP3    H267610   1.118   1.942  15.430  0.7836 -1.2241  2.4233
15399TIP3   OH267611   4.661   2.326  13.753  0.2516 -0.3021  0.3455
15399TIP3    H167612   4.746   2.290  13.728  0.7652  1.2035 -0.1686
15399TIP3    H267613   4.643   2.393  13.686  1.2493  3.2448  3.4643
15400TIP3   OH267614   2.894   2.515  16.302  0.0950 -0.3961  0.3685
15400TIP3    H167615   2.948   2.542  16.227 -1.6667 -2.1734 -1.6007
15400TIP3    H267616   2.941   2.547  16.378  2.4994  0.5369 -1.4548
15401TIP3   OH267617   5.577   4.197  16.047 -0.4857 -0.6189 -0.2734
15401TIP3    H167618   5.614   4.111  16.030 -0.3440 -0.6238  0.0668
15401TIP3    H267619   5.564   4.235  15.960 -0.2551 -0.8594 -0.4124
15402TIP3   OH267620   3.982   0.886  13.789  0.4584 -0.1722 -0.0438
15402TIP3    H167621   4.074   0.863  13.798  0.3309 -0.9111 -0.5733
15402TIP3    H267622   3.935   0.803  13.802 -0.1408  0.2461  0.4821
15403TIP3   OH267623   2.039   2.312  16.263 -0.0424 -0.1318 -0.0033
15403TIP3    H167624   2.107   2.312  16.196 -1.3983  1.5573 -1.4169
15403TIP3    H267625   2.034   2.404  16.292 -0.0668 -0.6792  1.8064
15404TIP3   OH267626   3.456   4.430   2.412  0.1540  0.2557  0.3080
15404TIP3    H167627   3.524   4.493   2.435  2.4975 -1.9027 -0.4270
15404TIP3    H267628   3.452   4.370   2.486 -1.5165  0.8080  0.6785
15405TIP3   OH267629   1.496   6.287  16.076 -0.4267 -0.1631  0.2727
15405TIP3    H167630   1.576   6.266  16.123 -0.5107 -0.8363  0.1206
15405TIP3    H267631   1.515   6.370  16.032  0.6903 -1.0584 -0.9516
15406TIP3   OH267632   5.178   6.405   5.329  0.4258  0.3355  0.5407
15406TIP3    H167633   5.248   6.432   5.270  0.6158  0.0837  0.6520
15406TIP3    H267634   5.116   6.479   5.328  1.4539  1.2458  1.6426
15407TIP3   OH267635   0.062   6.188   5.916 -0.0512 -0.0057  0.0380
15407TIP3    H167636   0.038   6.210   5.826 -0.7606 -0.2893  0.1623
15407TIP3    H267637   0.144   6.139   5.907 -0.3911 -0.4874 -0.4866
15408TIP3   OH267638   6.144   5.347   0.985  0.0641  0.1941  0.3488
15408TIP3    H167639   6.214   5.407   1.011  1.5312 -1.7493  1.0109
15408TIP3    H267640   6.065   5.383   1.027  1.3426  0.3861  2.6722
15409TIP3   OH267641   3.873   1.620  15.699  0.1583  0.3986  0.1804
15409TIP3    H167642   3.901   1.674  15.624 -0.6487  1.5878  0.7141
15409TIP3    H267643   3.833   1.683  15.759 -1.5172 -0.9174  0.4655
15410TIP3   OH267644   5.211   0.857  12.930 -0.2071  0.2886 -0.4765
15410TIP3    H167645   5.136   0.819  12.884 -0.1444 -0.8902  0.3958
15410TIP3    H267646   5.247   0.785  12.981  0.0473  1.4605  1.0130
15411TIP3   OH267647   3.776   4.104   2.330  0.2555  0.1262 -0.3202
15411TIP3    H167648   3.846   4.047   2.299 -0.0770  0.1069 -1.0299
15411TIP3    H267649   3.716   4.046   2.376  0.1265 -0.0363 -0.6926
15412TIP3   OH267650   5.031   0.827   0.391 -0.2264 -0.8880  0.1030
15412TIP3    H167651   4.992   0.912   0.369  0.5848 -0.9811 -1.7521
15412TIP3    H267652   5.098   0.849   0.456 -0.7591 -0.2489  0.4484
15413TIP3   OH267653   6.622   0.363  12.498 -0.0978 -0.1178  0.3795
15413TIP3    H167654   6.574   0.404  12.426  0.6338 -1.8783 -1.1424
15413TIP3    H267655   6.581   0.277  12.509  0.2276 -0.1340  1.6418
15414TIP3   OH267656   4.958   3.077   4.872 -0.0761 -0.3528  0.3742
15414TIP3    H167657   4.968   3.168   4.900 -1.0668 -0.0846 -0.1571
15414TIP3    H267658   5.043   3.037   4.894  0.0974  0.4934  1.3361
15415TIP3   OH267659   6.341   1.063  14.950 -0.2088  0.1349  0.0118
15415TIP3    H167660   6.430   1.057  14.986  0.2632  2.4328 -0.7104
15415TIP3    H267661   6.304   1.141  14.991 -1.3201  0.1181 -0.9497
15416TIP3   OH267662   0.189   4.433  10.749 -0.1065 -0.2286 -0.1207
15416TIP3    H167663   0.274   4.478  10.744  0.6428 -1.5631  0.3971
15416TIP3    H267664   0.125   4.500  10.726  1.0228  1.0208  0.3291
15417TIP3   OH267665   5.900   6.470   1.250  0.0302  0.4584  0.0587
15417TIP3    H167666   5.812   6.441   1.227  0.5430 -0.8639 -0.3253
15417TIP3    H267667   5.946   6.389   1.276  1.4556  0.9386 -0.8607
15418TIP3   OH267668   6.562   3.068  13.445  0.1906 -0.5227 -0.4311
15418TIP3    H167669   6.613   3.075  13.526  1.0344  0.4348 -1.0279
15418TIP3    H267670   6.528   2.979  13.446  0.5640 -0.6637  0.7628
15419TIP3   OH267671   1.998   5.553   3.131  0.2872 -0.9054 -0.5145
15419TIP3    H167672   1.969   5.621   3.190 -1.0962 -1.4720 -0.5176
15419TIP3    H267673   2.047   5.599   3.063  2.3770 -0.3200  1.3627
15420TIP3   OH267674   3.762   3.650  13.979  0.5995 -0.4486  0.8286
15420TIP3    H167675   3.734   3.621  14.066 -0.2054 -1.2607  0.3009
15420TIP3    H267676   3.833   3.590  13.956  1.5299  0.4293  1.3643
15421TIP3   OH267677   6.207   0.493  12.447 -0.2744  0.5203  0.0596
15421TIP3    H167678   6.187   0.431  12.517 -0.4767 -0.6233 -1.0050
15421TIP3    H267679   6.199   0.579  12.489  0.3397 -0.1653  1.6207
15422TIP3   OH267680   2.766   0.415  13.861  0.1366 -0.5271  0.1582
15422TIP3    H167681   2.744   0.448  13.774 -1.6590 -0.4415  0.6169
15422TIP3    H267682   2.777   0.493  13.915  1.5526 -0.5729 -0.0537
15423TIP3   OH267683   3.115   0.202   5.599 -0.6582  0.4263 -0.3400
15423TIP3    H167684   3.044   0.226   5.541 -0.4366 -0.1009 -0.8402
15423TIP3    H267685   3.072   0.173   5.680 -1.0046  0.2515 -0.5875
15424TIP3   OH267686   0.469   1.598   5.572  0.5338 -0.1722 -0.0709
15424TIP3    H167687   0.524   1.521   5.558  1.2048  0.4008 -0.6336
15424TIP3    H267688   0.455   1.601   5.666  4.1361  1.4715  0.4762
15425TIP3   OH267689   3.025   5.256  15.346  0.1621 -0.1845 -0.5177
15425TIP3    H167690   3.076   5.261  15.427  0.4749  1.3539 -0.8091
15425TIP3    H267691   2.973   5.176  15.356 -0.0584  0.1794  1.3433
15426TIP3   OH267692   3.830   0.698  14.720  0.8928  0.1192 -0.0773
15426TIP3    H167693   3.804   0.743  14.639  4.4336 -0.4324 -1.6206
15426TIP3    H267694   3.785   0.614  14.716 -0.0431  0.6448 -0.7787
15427TIP3   OH267695   5.127   5.940  13.397 -0.2182  0.2027  0.3120
15427TIP3    H167696   5.194   6.001  13.366  0.9656 -1.4180 -0.3893
15427TIP3    H267697   5.172   5.856  13.402 -2.1308 -0.8500  0.1313
15428TIP3   OH267698   1.210   0.946   2.974 -0.0729  1.0710  0.0552
15428TIP3    H167699   1.256   0.988   2.901  0.0052  0.6242 -0.1582
15428TIP3    H267700   1.277   0.937   3.042  0.1718  0.3761 -0.2731
15429TIP3   OH267701   2.011   0.362  10.952 -0.1604  0.5490 -0.5177
15429TIP3    H167702   1.958   0.369  10.873  0.6064  0.8856 -1.0091
15429TIP3    H267703   2.031   0.452  10.976 -0.8280  0.4640  0.3620
15430TIP3   OH267704   3.855   0.502  14.449 -0.0721 -0.5071 -0.2007
15430TIP3    H167705   3.894   0.472  14.367  0.3707 -1.1923  0.2554
15430TIP3    H267706   3.800   0.429  14.478  1.9331 -1.4162  1.5205
15431TIP3   OH267707   4.381   2.580  11.704 -0.5188 -0.2910  0.2071
15431TIP3    H167708   4.427   2.513  11.754 -1.2126  0.6782  2.2134
15431TIP3    H267709   4.389   2.659  11.758 -0.6331  0.9755 -1.6039
15432TIP3   OH267710   6.208   5.850   3.913  0.0863  0.2662 -0.3905
15432TIP3    H167711   6.204   5.909   3.838  2.1020 -0.8748 -1.4315
15432TIP3    H267712   6.283   5.881   3.964  0.7721 -1.0023 -0.6144
15433TIP3   OH267713   2.243   5.868  10.948  0.3415 -0.2495  0.6451
15433TIP3    H167714   2.280   5.780  10.956 -0.9385 -0.8156  0.4262
15433TIP3    H267715   2.161   5.855  10.900  1.7215  1.4546 -2.3636
15434TIP3   OH267716   1.790   3.295  12.524 -0.1699  0.8161 -0.4927
15434TIP3    H167717   1.733   3.320  12.596 -0.4462 -0.7427 -0.1578
15434TIP3    H267718   1.745   3.327  12.446 -2.9155 -2.7094 -0.4836
15435TIP3   OH267719   0.304   6.065  13.119 -0.0191  0.3191  0.3200
15435TIP3    H167720   0.277   6.154  13.138 -0.5169  0.4616 -0.9979
15435TIP3    H267721   0.236   6.030  13.061  0.2292 -0.8767  0.7191
15436TIP3   OH267722   5.473   6.532   0.129  0.3702  0.0395 -0.0747
15436TIP3    H167723   5.496   6.625   0.127  1.7654 -0.2923 -0.0752
15436TIP3    H267724   5.414   6.520   0.055  0.7235  0.7977 -0.4876
15437TIP3   OH267725   1.076   2.663  14.961 -0.4342 -0.6130 -0.2051
15437TIP3    H167726   1.053   2.636  14.872  0.9085  1.2588 -1.1599
15437TIP3    H267727   1.026   2.744  14.975  2.6536  1.4696 -0.9204
15438TIP3   OH267728   1.642   2.508   2.221  1.0156 -0.3954  0.2502
15438TIP3    H167729   1.608   2.592   2.191  0.7411 -0.1338  1.2895
15438TIP3    H267730   1.702   2.531   2.292  0.9777 -1.0771  0.4994
15439TIP3   OH267731   6.093   6.014   0.611 -0.0202  0.1601 -0.2534
15439TIP3    H167732   6.142   6.020   0.693  0.3628  0.4164 -0.5008
15439TIP3    H267733   6.019   5.957   0.632 -0.0399  0.3919  0.3287
15440TIP3   OH267734   6.412   2.415  13.096  0.6708 -0.7123 -0.6410
15440TIP3    H167735   6.463   2.455  13.166 -0.5253 -2.7451  1.4323
15440TIP3    H267736   6.340   2.476  13.080  2.2653  0.9298 -1.8388
15441TIP3   OH267737   5.958   2.547   2.973  0.3077 -0.7808  0.3360
15441TIP3    H167738   5.992   2.524   2.887  0.1423  0.4653 -0.0625
15441TIP3    H267739   5.865   2.564   2.959  0.6364  1.1826  0.4120
15442TIP3   OH267740   3.865   4.390  16.699 -0.2980  0.1735  0.5895
15442TIP3    H167741   3.838   4.425  16.614  0.5010  0.4481  0.4497
15442TIP3    H267742   3.863   4.295  16.688  2.0288  0.2219 -0.4452
15443TIP3   OH267743   3.453   2.520  13.834 -0.3172  0.1028  0.0528
15443TIP3    H167744   3.454   2.425  13.842 -0.0786 -0.1810 -2.8133
15443TIP3    H267745   3.537   2.548  13.871 -1.3153 -0.5586  2.9463
15444TIP3   OH267746   6.521   2.227  13.625 -0.0406  0.3549  0.7966
15444TIP3    H167747   6.526   2.193  13.536  1.3858  0.9613  0.6205
15444TIP3    H267748   6.573   2.166  13.677 -1.5018 -0.4253  1.3668
15445TIP3   OH267749   1.231   5.298  14.504  0.1130 -0.0419 -0.1202
15445TIP3    H167750   1.252   5.377  14.454 -0.7322 -1.0183 -2.0453
15445TIP3    H267751   1.156   5.323  14.557 -0.7139  0.1981 -1.3887
15446TIP3   OH267752   5.151   2.559   6.236 -0.8656  0.0929 -0.7524
15446TIP3    H167753   5.168   2.472   6.199  0.4333  0.0563 -0.1036
15446TIP3    H267754   5.100   2.604   6.169 -6.3854 -2.9768  1.0680
15447TIP3   OH267755   4.181   3.707  12.626  0.9066 -0.6193 -0.0530
15447TIP3    H167756   4.270   3.736  12.603 -0.1339  0.7190 -2.5950
15447TIP3    H267757   4.191   3.614  12.647  2.6659 -0.9028 -1.9338
15448TIP3   OH267758   2.103   6.564   2.983  0.1429  0.5484  0.6936
15448TIP3    H167759   2.119   6.476   3.017  0.4971  0.4451  0.2648
15448TIP3    H267760   2.122   6.557   2.889  0.9481  1.2746  0.7982
15449TIP3   OH267761   6.430   6.364   1.409 -0.3849 -0.3620 -0.3376
15449TIP3    H167762   6.487   6.287   1.411  0.8601  0.5163 -1.4284
15449TIP3    H267763   6.397   6.372   1.499  1.5509 -0.6194  0.4047
15450TIP3   OH267764   3.489   0.860  13.345 -0.6438 -0.2121  0.1626
15450TIP3    H167765   3.501   0.778  13.297 -1.5835  0.9118 -2.0712
15450TIP3    H267766   3.553   0.919  13.307 -0.0737  0.1527  1.6669
15451TIP3   OH267767   6.326   6.677  15.583  0.3253 -0.5676 -0.0706
15451TIP3    H167768   6.340   6.593  15.627 -2.4871 -0.9714  0.1688
15451TIP3    H267769   6.270   6.656  15.509  1.4779  0.7811 -1.3655
15452TIP3   OH267770   6.273   5.141  15.731 -0.0347  0.0488 -0.2476
15452TIP3    H167771   6.300   5.121  15.821  0.3559 -0.8204 -0.5483
15452TIP3    H267772   6.317   5.073  15.678  0.2686  0.9486 -1.1571
15453TIP3   OH267773   5.005   4.552  12.015 -0.5011 -0.3209  0.1417
15453TIP3    H167774   4.946   4.497  12.067 -1.9036 -0.0031 -1.0619
15453TIP3    H267775   5.035   4.496  11.944 -1.7902  0.3593 -0.9830
15454TIP3   OH267776   2.979   1.614   1.058  0.3636  0.4625  0.2436
15454TIP3    H167777   2.925   1.556   1.111  1.3143  0.1528  0.8983
15454TIP3    H267778   2.924   1.639   0.984  0.4739 -2.5987 -0.9357
15455TIP3   OH267779   1.692   6.535   1.843 -0.7103 -0.1282 -0.6782
15455TIP3    H167780   1.635   6.611   1.840 -0.9828 -0.3843 -2.7697
15455TIP3    H267781   1.647   6.468   1.791  0.7964 -0.8099 -1.1494
15456TIP3   OH267782   0.149   4.098  17.000 -0.9904 -0.4506  0.4914
15456TIP3    H167783   0.214   4.161  16.970 -1.4626  1.4056  3.1698
15456TIP3    H267784   0.200   4.020  17.024 -0.0452  0.0910  0.2568
15457TIP3   OH267785   5.727   0.210  14.904 -0.3533 -0.1660  0.1299
15457TIP3    H167786   5.688   0.216  14.817 -0.2599  4.0548  0.3159
15457TIP3    H267787   5.675   0.143  14.949 -1.8941 -0.7142 -2.3680
15458TIP3   OH267788   2.777   0.773  11.648 -0.3102 -0.1748 -0.4667
15458TIP3    H167789   2.761   0.867  11.658 -0.9392 -0.3633  0.2753
15458TIP3    H267790   2.725   0.732  11.716  2.9766 -0.8399  1.7858
15459TIP3   OH267791   6.504   4.074  11.580  0.2176  0.0328  0.2729
15459TIP3    H167792   6.480   4.046  11.491  0.0509 -0.8031  0.5736
15459TIP3    H267793   6.554   4.154  11.567  0.8873 -0.5213 -0.6294
15460TIP3   OH267794   2.469   3.830   4.596 -0.2669  0.2012  0.0015
15460TIP3    H167795   2.490   3.883   4.520  1.9344 -1.5687 -0.6658
15460TIP3    H267796   2.457   3.893   4.667  1.7892  1.6374 -0.8795
15461TIP3   OH267797   0.972   2.793   3.379  0.0419 -0.9655 -0.3840
15461TIP3    H167798   1.019   2.865   3.336 -1.4032  0.5921  0.6137
15461TIP3    H267799   1.028   2.768   3.452  0.0362 -0.1397 -0.1000
15462TIP3   OH267800   5.349   4.446   5.139 -0.0105  0.7951  0.2141
15462TIP3    H167801   5.422   4.488   5.094  0.9066 -1.4675 -0.5011
15462TIP3    H267802   5.390   4.392   5.206 -1.0909  0.3399  0.5194
15463TIP3   OH267803   6.376   4.747  12.386  0.6934  0.4833  0.1426
15463TIP3    H167804   6.312   4.766  12.454 -0.3329 -0.0722 -0.6608
15463TIP3    H267805   6.383   4.651  12.386 -0.0464  0.4142 -1.1944
15464TIP3   OH267806   5.752   5.633   2.975 -0.1278 -0.5933 -0.0541
15464TIP3    H167807   5.801   5.672   3.047  0.2733  0.5963 -0.9563
15464TIP3    H267808   5.818   5.581   2.927  0.4394  1.5512 -1.6607
15465TIP3   OH267809   2.419   3.194   5.119  0.7438  0.0342 -0.2019
15465TIP3    H167810   2.334   3.231   5.140 -0.5112 -1.0046 -3.1972
15465TIP3    H267811   2.460   3.258   5.061  1.3100 -0.2313 -0.1045
15466TIP3   OH267812   0.728   5.346   3.244  0.1089 -0.1713  0.2543
15466TIP3    H167813   0.689   5.319   3.160 -2.5647 -2.0050  1.9813
15466TIP3    H267814   0.798   5.283   3.259  0.4515  0.0278 -0.5021
15467TIP3   OH267815   2.786   6.511   4.411 -0.0148 -0.3251  0.1975
15467TIP3    H167816   2.778   6.586   4.470  0.0925  1.4331 -2.0050
15467TIP3    H267817   2.863   6.530   4.358 -1.5131 -0.6984 -2.1842
15468TIP3   OH267818   5.070   6.348   6.458  0.0945  0.4379  0.0037
15468TIP3    H167819   5.148   6.401   6.471  0.1876  0.8203 -1.9981
15468TIP3    H267820   4.998   6.411   6.454 -0.0800  0.2338 -0.0907
15469TIP3   OH267821   3.142   0.206   1.791 -0.3974  0.7873 -0.2205
15469TIP3    H167822   3.235   0.225   1.792 -0.3600  0.8286 -2.3278
15469TIP3    H267823   3.124   0.176   1.701 -2.3659  0.6387  0.1934
15470TIP3   OH267824   3.446   5.492   1.926  0.4877  0.1692 -0.0584
15470TIP3    H167825   3.541   5.480   1.926  0.2125 -2.2184 -1.2961
15470TIP3    H267826   3.427   5.525   1.838  0.1418  0.5451  0.1553
15471TIP3   OH267827   2.449   1.434   1.228 -0.6048  0.3744  0.0979
15471TIP3    H167828   2.391   1.459   1.156  0.0998  0.6750 -0.3798
15471TIP3    H267829   2.415   1.350   1.259  0.0412 -0.5606 -1.6571
15472TIP3   OH267830   1.937   2.574  10.766 -0.2993 -0.3201 -0.2110
15472TIP3    H167831   2.018   2.579  10.817  0.2038 -0.0797 -1.0332
15472TIP3    H267832   1.927   2.481  10.746  0.4785 -0.1973 -1.2267
15473TIP3   OH267833   5.135   4.001  14.173  0.4701 -0.3438 -0.3862
15473TIP3    H167834   5.099   4.083  14.207 -1.6963 -1.9974  1.4112
15473TIP3    H267835   5.227   4.002  14.201  0.0825  0.7814  0.9147
15474TIP3   OH267836   0.956   2.909   2.468  0.3325  0.8998  0.4037
15474TIP3    H167837   0.885   2.971   2.448 -0.7338 -0.2030  0.7679
15474TIP3    H267838   1.001   2.897   2.384 -1.8239 -0.7939 -0.5290
15475TIP3   OH267839   5.635   2.645  15.986 -0.0748  0.8456 -0.3568
15475TIP3    H167840   5.645   2.730  15.943  0.5829  0.4868 -0.9133
15475TIP3    H267841   5.712   2.596  15.961 -0.6043 -0.0338 -0.2842
15476TIP3   OH267842   5.455   5.413   0.283  0.4455  0.1921  0.2111
15476TIP3    H167843   5.481   5.391   0.373  0.6845  0.2449  0.1550
15476TIP3    H267844   5.537   5.427   0.237  0.3910 -1.5602 -0.4488
15477TIP3   OH267845   5.270   0.352  11.573 -0.5067 -0.5390  0.2749
15477TIP3    H167846   5.296   0.444  11.575 -1.3697 -0.3062  1.8132
15477TIP3    H267847   5.321   0.311  11.642  0.1369 -1.3003 -0.6432
15478TIP3   OH267848   2.283   0.988  16.592 -0.5549 -0.1167  0.5172
15478TIP3    H167849   2.352   0.933  16.629  0.0094  0.1385 -0.1577
15478TIP3    H267850   2.322   1.075  16.588 -0.3310 -0.2842 -1.4054
15479TIP3   OH267851   5.680   1.128  13.335 -0.2776  0.1051  0.5030
15479TIP3    H167852   5.589   1.154  13.319 -0.8743 -2.4081 -0.3600
15479TIP3    H267853   5.706   1.180  13.412 -2.8284 -0.0080  1.5018
15480TIP3   OH267854   1.048   3.604   4.292 -0.0885  0.6571 -0.3188
15480TIP3    H167855   0.972   3.634   4.243 -1.6522 -1.7290  0.5956
15480TIP3    H267856   1.025   3.516   4.322  3.7344 -0.9162 -1.6108
15481TIP3   OH267857   5.370   3.939  15.983  0.7667 -0.5300 -0.3046
15481TIP3    H167858   5.295   3.911  15.930  2.0923 -1.3336 -1.7992
15481TIP3    H267859   5.334   4.005  16.042 -1.0829 -0.7603 -1.1276
15482TIP3   OH267860   5.415   6.560  13.290  0.4565  0.1231 -0.0084
15482TIP3    H167861   5.423   6.633  13.228  0.2660 -0.9632 -1.3350
15482TIP3    H267862   5.506   6.540  13.315  0.5411  0.4819 -0.0217
15483TIP3   OH267863   1.654   4.668  11.740 -0.4458 -0.2657 -0.7020
15483TIP3    H167864   1.642   4.758  11.770 -0.5733 -0.9838  1.5151
15483TIP3    H267865   1.734   4.671  11.688 -0.6843  1.2173 -1.0181
15484TIP3   OH267866   6.588   0.267   3.902  0.2540  0.3993  0.2522
15484TIP3    H167867   6.672   0.311   3.915  0.0689  1.0479 -0.6639
15484TIP3    H267868   6.606   0.201   3.835  0.5264 -0.9246  1.6064
15485TIP3   OH267869   1.927   1.609  15.500 -1.1975 -0.4232  0.6414
15485TIP3    H167870   1.863   1.557  15.550  1.0133 -3.3969  0.5477
15485TIP3    H267871   2.001   1.618  15.560 -0.5661  0.4649 -0.2769
15486TIP3   OH267872   4.923   2.438  16.725 -0.5184 -0.6003  0.1058
15486TIP3    H167873   4.875   2.497  16.667  0.4380 -1.2377 -1.3739
15486TIP3    H267874   4.975   2.383  16.666  1.7513 -0.1800  1.6483
15487TIP3   OH267875   5.482   5.282   5.272  0.3237 -0.1048  0.3026
15487TIP3    H167876   5.551   5.347   5.260  0.2800 -0.4239 -1.8957
15487TIP3    H267877   5.402   5.325   5.242  0.0936 -0.7197  0.0121
15488TIP3   OH267878   3.626   4.284  14.748 -0.5823 -0.1469 -0.2884
15488TIP3    H167879   3.551   4.335  14.781 -0.8651 -0.9119  0.2605
15488TIP3    H267880   3.645   4.323  14.662 -1.4226  0.2459 -0.3035
15489TIP3   OH267881   1.837   0.735  15.393  0.3018  0.0794  1.3843
15489TIP3    H167882   1.929   0.715  15.406 -0.1649 -1.9183  1.8076
15489TIP3    H267883   1.791   0.655  15.419 -1.4770  0.6690  0.1631
15490TIP3   OH267884   2.610   0.362  12.916  0.0142 -0.3999 -0.1677
15490TIP3    H167885   2.691   0.373  12.864  1.4601  1.5017  2.3781
15490TIP3    H267886   2.579   0.451  12.931  0.6301 -0.7682  3.7180
15491TIP3   OH267887   1.093   6.161   0.033  0.4047 -0.0879 -0.2576
15491TIP3    H167888   1.127   6.191   0.118 -2.2944  0.7832  0.5802
15491TIP3    H267889   1.103   6.237  -0.024 -1.0004  0.4941  0.2552
15492TIP3   OH267890   5.070   3.324   4.866  0.1238 -0.7538  0.2003
15492TIP3    H167891   5.107   3.411   4.860 -1.3839  0.0559  2.0059
15492TIP3    H267892   5.112   3.274   4.795  0.6188  1.5421 -1.1534
15493TIP3   OH267893   1.173   6.006   0.929  0.3316 -0.2110 -0.1290
15493TIP3    H167894   1.195   6.097   0.906 -0.3141  0.4091  1.6297
15493TIP3    H267895   1.078   6.003   0.926  0.4044 -1.4259 -2.2851
15494TIP3   OH267896   2.534   5.751   2.418  0.3897 -0.1035 -0.9565
15494TIP3    H167897   2.551   5.685   2.350 -0.5124  0.2400 -1.5359
15494TIP3    H267898   2.478   5.706   2.481  1.0455 -0.3572 -0.5603
15495TIP3   OH267899   5.108   5.342   5.573 -0.6205  0.2031 -0.4417
15495TIP3    H167900   5.102   5.268   5.513 -0.0540 -0.5476  0.4151
15495TIP3    H267901   5.188   5.387   5.548 -0.8234  0.3817 -0.7859
15496TIP3   OH267902   4.511   3.561  13.479  0.3731  1.0249  0.6280
15496TIP3    H167903   4.553   3.578  13.394  2.4275  1.0209  1.6201
15496TIP3    H267904   4.491   3.468  13.478 -1.3680  1.3852 -0.6071
15497TIP3   OH267905   3.747   5.428  15.410  0.6798 -0.4779 -0.3649
15497TIP3    H167906   3.689   5.384  15.348  1.5084  0.4118 -1.7982
15497TIP3    H267907   3.715   5.518  15.412  0.1555 -0.6804  1.1380
15498TIP3   OH267908   5.218   1.139  16.029  0.2503 -0.1853 -0.4237
15498TIP3    H167909   5.296   1.161  15.978  0.2300 -4.0680 -2.3424
15498TIP3    H267910   5.146   1.146  15.966 -0.1664 -1.9894 -0.1967
15499TIP3   OH267911   3.802   0.126  11.595 -0.0096  0.4967 -0.5609
15499TIP3    H167912   3.820   0.161  11.507 -0.9245 -2.0553 -1.8107
15499TIP3    H267913   3.809   0.031  11.585 -0.8237  0.1296  1.9933
15500TIP3   OH267914   5.023   0.590  16.526  0.2340  0.0691 -0.2096
15500TIP3    H167915   5.108   0.624  16.552  0.3929 -2.0798  2.3213
15500TIP3    H267916   4.961   0.632  16.585 -0.1011 -0.5984 -0.0855
15501TIP3   OH267917   4.756   4.181  11.577  0.0831 -0.2433 -0.2937
15501TIP3    H167918   4.766   4.263  11.528  0.2028 -0.2021 -0.1995
15501TIP3    H267919   4.676   4.193  11.628 -0.1726 -0.3767 -0.6577
15502TIP3   OH267920   4.285   4.363  14.152 -0.4409 -0.0589 -0.6445
15502TIP3    H167921   4.337   4.417  14.092  0.5976  0.5852  0.8134
15502TIP3    H267922   4.342   4.289  14.173 -0.4409  0.1854  0.2475
15503TIP3   OH267923   4.198   3.694   3.577  0.5167 -0.1905  0.3336
15503TIP3    H167924   4.195   3.758   3.648  0.0552  0.6526 -0.4360
15503TIP3    H267925   4.280   3.714   3.531  1.1880 -1.2192  1.0726
15504TIP3   OH267926   5.266   3.968   6.944  0.3257  0.0129  0.5395
15504TIP3    H167927   5.265   3.998   6.853 -0.7937 -2.0729 -0.1639
15504TIP3    H267928   5.225   4.039   6.993 -1.5101  0.0177 -0.9710
15505TIP3   OH267929   0.126   5.286   2.047  0.1801  0.1742  0.1791
15505TIP3    H167930   0.168   5.370   2.027  0.4458  0.0977  0.4084
15505TIP3    H267931   0.062   5.273   1.977  1.0929 -0.0900 -0.6181
15506TIP3   OH267932   1.482   4.514  12.600 -0.2414 -0.1183 -0.1645
15506TIP3    H167933   1.465   4.598  12.559  0.4368  0.2581  0.3143
15506TIP3    H267934   1.484   4.452  12.528 -1.7203  0.1158 -0.4172
15507TIP3   OH267935   5.357   1.231  13.732  0.3984  0.2483 -0.1450
15507TIP3    H167936   5.269   1.258  13.758  0.7060  0.1776  1.0036
15507TIP3    H267937   5.342   1.157  13.673 -0.3487  1.0704 -0.9963
15508TIP3   OH267938   2.086   2.356   2.040 -0.3376  0.2870 -0.3510
15508TIP3    H167939   2.098   2.328   1.949 -1.3543  0.7277 -0.6309
15508TIP3    H267940   2.157   2.313   2.088  1.4084  1.6509 -1.6784
15509TIP3   OH267941   4.635   4.015   2.587 -0.4928  0.0564 -0.3354
15509TIP3    H167942   4.713   4.048   2.630 -0.6552  1.3105 -0.9669
15509TIP3    H267943   4.562   4.050   2.639 -0.6277 -1.5602  0.5716
15510TIP3   OH267944   0.107   4.032   5.842 -0.0854 -0.0060  0.3986
15510TIP3    H167945   0.084   4.000   5.755  2.1097  2.4965 -1.1998
15510TIP3    H267946   0.171   3.969   5.875  0.4017 -0.0324 -0.5686
15511TIP3   OH267947   2.060   3.810   3.507  0.1147  0.4292 -0.0854
15511TIP3    H167948   2.032   3.901   3.507  0.1387  0.4397 -0.5096
15511TIP3    H267949   2.024   3.774   3.426 -1.1641 -0.3324  0.8092
15512TIP3   OH267950   6.100   3.813   4.217 -0.0251 -0.0650  0.3242
15512TIP3    H167951   6.084   3.783   4.306 -1.1004 -0.1622  0.0961
15512TIP3    H267952   6.175   3.872   4.225  1.0674 -1.5050  1.0198
15513TIP3   OH267953   6.678   4.619   1.594 -0.7708 -0.0979  0.1663
15513TIP3    H167954   6.587   4.629   1.620 -0.4820 -2.4559  2.2647
15513TIP3    H267955   6.728   4.629   1.675  0.8374  1.2109 -0.9680
15514TIP3   OH267956   2.267   0.081   1.266  0.2813  0.0820 -0.0680
15514TIP3    H167957   2.262   0.042   1.353 -0.2132  2.9156  1.2166
15514TIP3    H267958   2.358   0.068   1.239 -0.2050 -3.1681 -0.2968
15515TIP3   OH267959   2.961   1.571  11.903 -0.1603  0.2739  0.0060
15515TIP3    H167960   2.988   1.606  11.818 -1.2062 -0.5475 -0.6792
15515TIP3    H267961   2.878   1.526  11.885 -1.2558  1.5124  1.7856
15516TIP3   OH267962   0.062   6.268   0.454  0.3286 -0.7876  1.0172
15516TIP3    H167963   0.052   6.250   0.548 -1.3798  1.4600  1.3159
15516TIP3    H267964  -0.022   6.244   0.416  0.5658 -0.4589  0.2729
15517TIP3   OH267965   4.044   0.413   4.163 -0.3929 -0.5779  0.2099
15517TIP3    H167966   4.108   0.351   4.128 -0.4667 -0.0862 -0.8212
15517TIP3    H267967   4.090   0.497   4.165 -0.3065 -0.6469  1.5645
15518TIP3   OH267968   3.016   5.083   4.553 -0.2680 -0.0654 -0.2225
15518TIP3    H167969   3.030   4.991   4.532 -1.6661 -0.3057 -0.1396
15518TIP3    H267970   3.100   5.113   4.588  0.0581 -1.4276  0.1713
15519TIP3   OH267971   3.179   5.420  12.744 -0.3841 -1.0235 -0.2766
15519TIP3    H167972   3.183   5.325  12.735  0.4621 -0.7985 -2.6493
15519TIP3    H267973   3.267   5.444  12.774 -0.5150 -0.9609  0.0584
15520TIP3   OH267974   5.937   4.192   3.407  0.3788  0.9987 -0.2096
15520TIP3    H167975   5.885   4.213   3.485 -0.1304  1.7136 -0.7294
15520TIP3    H267976   6.027   4.214   3.432  0.1089  2.0199 -0.0936
15521TIP3   OH267977   5.357   0.338   2.285  0.5939  0.1363  0.1439
15521TIP3    H167978   5.366   0.414   2.226 -0.1419 -0.4869 -0.7764
15521TIP3    H267979   5.388   0.264   2.233 -1.1771 -0.6044  0.1344
15522TIP3   OH267980   5.125   3.165  17.142  0.1224  0.0424  0.2287
15522TIP3    H167981   5.170   3.084  17.117  0.0474  0.3065 -0.7876
15522TIP3    H267982   5.141   3.174  17.235  1.0232 -0.5906  0.1368
15523TIP3   OH267983   6.347   5.146   4.071 -0.1940 -0.4407 -0.2759
15523TIP3    H167984   6.274   5.124   4.013 -0.2838 -1.2736  0.1429
15523TIP3    H267985   6.364   5.066   4.119  0.6243 -0.0792  0.0464
15524TIP3   OH267986   5.434   3.744   2.174 -0.4343 -0.9051 -0.2031
15524TIP3    H167987   5.414   3.776   2.262  0.1514 -1.9105  0.3102
15524TIP3    H267988   5.419   3.819   2.117 -0.0189 -0.0065  0.8537
15525TIP3   OH267989   4.018   0.060  16.559  0.4849 -0.1655 -0.7506
15525TIP3    H167990   4.090   0.049  16.621  0.0429 -0.9101 -0.3563
15525TIP3    H267991   3.967  -0.021  16.568  0.0802 -0.0135 -1.6437
15526TIP3   OH267992   2.050   1.940   1.935  0.5960  0.1291  0.2039
15526TIP3    H167993   1.992   1.975   1.868  0.7585  0.0335  0.0114
15526TIP3    H267994   2.067   1.850   1.907  0.6993  0.1042  0.3482
15527TIP3   OH267995   1.120   5.801   2.943  0.1642 -0.1135  0.4009
15527TIP3    H167996   1.195   5.860   2.935 -0.8538  1.1941  0.3820
15527TIP3    H267997   1.053   5.839   2.887 -0.6596 -1.0482  0.7320
15528TIP3   OH267998   2.305   5.882   6.359 -0.4567 -0.2483 -0.0384
15528TIP3    H167999   2.312   5.913   6.269  1.8354 -1.5452 -0.3557
15528TIP3    H268000   2.275   5.958   6.408 -0.3256  0.8856 -1.6659
15529TIP3   OH268001   1.591   3.084   1.863  0.3772 -0.3219 -0.3148
15529TIP3    H168002   1.621   3.010   1.915 -0.4622 -0.3215  0.1734
15529TIP3    H268003   1.671   3.132   1.841  0.9011 -1.2671 -0.4745
15530TIP3   OH268004   6.192   4.660   2.099 -0.0454  0.3954  0.8245
15530TIP3    H168005   6.251   4.731   2.072 -1.0865  1.0136  0.0973
15530TIP3    H268006   6.194   4.662   2.194  1.8791 -0.2623  0.8259
15531TIP3   OH268007   4.375   4.951  14.268  0.4245 -0.2299 -0.2745
15531TIP3    H168008   4.415   5.030  14.304 -2.0509  0.3649  1.3280
15531TIP3    H268009   4.404   4.880  14.324 -1.5831  0.3639  1.5856
15532TIP3   OH268010   1.101   3.964  16.310 -0.0758 -0.6955  0.0808
15532TIP3    H168011   1.054   3.912  16.245 -0.2377 -0.6851  0.1871
15532TIP3    H268012   1.031   4.001  16.365  0.0193 -0.0707 -0.2208
15533TIP3   OH268013   2.493   2.092   4.731 -0.4905  0.4522 -0.6789
15533TIP3    H168014   2.580   2.125   4.707 -0.6125 -0.4374 -2.4202
15533TIP3    H268015   2.509   2.003   4.760 -0.8602  0.1343 -1.4293
15534TIP3   OH268016   3.709   3.937   6.549  0.0485 -0.4510 -0.4212
15534TIP3    H168017   3.789   3.990   6.552 -0.8252  0.9920 -1.5221
15534TIP3    H268018   3.643   3.993   6.589 -0.7893 -0.9135 -1.1507
15535TIP3   OH268019   2.552   6.320   4.085  0.2384 -0.6533 -0.2451
15535TIP3    H168020   2.527   6.385   4.150 -0.7034 -1.0343 -0.2229
15535TIP3    H268021   2.645   6.303   4.103  0.1928 -0.1598  0.4830
15536TIP3   OH268022   0.934   5.710  13.353  0.1742 -0.1232 -0.5598
15536TIP3    H168023   0.937   5.749  13.266  0.2896 -2.3782 -1.6203
15536TIP3    H268024   1.017   5.665  13.363  0.1271  0.0297  0.6964
15537TIP3   OH268025   4.752   6.665   2.073  0.2923 -0.3260 -0.5755
15537TIP3    H168026   4.722   6.685   2.161 -2.4797 -2.0026 -1.1108
15537TIP3    H268027   4.702   6.724   2.016  1.7723  0.4642 -1.1068
15538TIP3   OH268028   0.203   0.997   3.305 -0.2764 -0.1200 -0.6319
15538TIP3    H168029   0.235   0.997   3.395  0.3024 -0.2015 -0.8339
15538TIP3    H268030   0.115   0.961   3.311 -0.5169  0.5525  0.0011
15539TIP3   OH268031   1.397   6.699   0.169 -0.3478 -0.7038 -0.0916
15539TIP3    H168032   1.464   6.632   0.160 -0.7888 -1.0958 -0.4640
15539TIP3    H268033   1.423   6.767   0.107  0.7687  0.0347  1.1543
15540TIP3   OH268034   5.054   1.645   5.551 -0.5299  0.1955  0.0990
15540TIP3    H168035   4.995   1.572   5.569 -1.0664  0.1382 -1.7766
15540TIP3    H268036   4.998   1.722   5.549 -0.3587  0.3120 -0.4021
15541TIP3   OH268037   0.282   0.174  13.398 -0.1032  0.2211  0.0846
15541TIP3    H168038   0.321   0.203  13.315 -1.5947  1.7436 -0.1122
15541TIP3    H268039   0.323   0.230  13.464 -0.3295  0.3169  0.1418
15542TIP3   OH268040   5.140   3.817   5.881 -0.0937 -0.3813  0.0714
15542TIP3    H168041   5.173   3.850   5.965  0.9653  1.1992 -0.9524
15542TIP3    H268042   5.045   3.820   5.890  0.0006  0.6827  0.8658
15543TIP3   OH268043   5.610   5.807   1.734 -0.0456  0.0168  0.0470
15543TIP3    H168044   5.540   5.860   1.696  0.7183  1.3691  0.5088
15543TIP3    H268045   5.574   5.777   1.818  0.2710  1.5334  0.7463
15544TIP3   OH268046   4.189   1.047   4.988 -0.2149 -0.8615  0.2982
15544TIP3    H168047   4.243   1.031   5.065  1.5757  1.0339 -0.4799
15544TIP3    H268048   4.250   1.039   4.914 -1.7527 -2.0205 -0.8709
15545TIP3   OH268049   3.497   5.403   4.117 -0.1146 -0.4308  0.0503
15545TIP3    H168050   3.508   5.467   4.046  0.8021 -1.1988 -0.5064
15545TIP3    H268051   3.437   5.446   4.178 -0.3740  0.5177 -0.8538
15546TIP3   OH268052   6.652   1.254  17.178 -0.2395 -0.0466 -0.1869
15546TIP3    H168053   6.687   1.318  17.240  0.2567  0.0479 -0.5548
15546TIP3    H268054   6.702   1.174  17.194 -0.1798 -0.0517 -0.3924
15547TIP3   OH268055   0.217   3.346  14.560  0.5170  0.1470 -0.5547
15547TIP3    H168056   0.230   3.281  14.630  1.1181 -1.0680 -1.7867
15547TIP3    H268057   0.217   3.430  14.606 -2.0944 -0.8090  1.2990
15548TIP3   OH268058   2.996   4.771  12.590 -0.2679  0.1012 -0.5965
15548TIP3    H168059   2.923   4.833  12.591  0.0899  0.5096  0.3600
15548TIP3    H268060   3.056   4.803  12.657  0.1981 -0.9548 -0.5029
15549TIP3   OH268061   4.137   1.445  13.563  0.7130 -0.4593  0.0263
15549TIP3    H168062   4.127   1.538  13.543  0.0699 -0.9737 -2.1615
15549TIP3    H268063   4.231   1.428  13.554  0.8070 -0.0612  0.2646
15550TIP3   OH268064   6.074   0.763   3.201 -0.1770  0.0799 -0.4567
15550TIP3    H168065   6.061   0.725   3.114  1.5374 -1.3266 -0.1101
15550TIP3    H268066   6.065   0.690   3.262  1.7538  0.4528  0.3179
15551TIP3   OH268067   5.637   4.272   2.400  0.9088  0.1198  0.4930
15551TIP3    H168068   5.594   4.263   2.315 -0.3934 -0.3938  1.1927
15551TIP3    H268069   5.595   4.349   2.440  1.3498  0.2172  0.7778
15552TIP3   OH268070   2.949   5.222   1.066  0.4653 -0.2344  0.3376
15552TIP3    H168071   3.029   5.263   1.032 -0.2033  1.8040  1.1579
15552TIP3    H268072   2.976   5.182   1.148  0.7992 -0.1030  0.2935
15553TIP3   OH268073   1.741   2.566  15.027 -0.0446 -0.0761 -0.2480
15553TIP3    H168074   1.674   2.525  14.973  1.4686 -1.0703 -1.3917
15553TIP3    H268075   1.744   2.512  15.106  0.4300 -0.8778 -0.8188
15554TIP3   OH268076   0.324   0.574   1.747  0.3288 -0.6739  0.2137
15554TIP3    H168077   0.349   0.666   1.739  0.4752 -0.6353  1.0539
15554TIP3    H268078   0.335   0.539   1.659 -0.5671  0.3190 -0.3218
15555TIP3   OH268079   1.894   0.057  12.946 -0.4260 -0.0794  0.2330
15555TIP3    H168080   1.879   0.140  12.991  0.8011  0.4133 -0.2601
15555TIP3    H268081   1.829   0.058  12.875 -1.5096 -0.2932  1.1976
15556TIP3   OH268082   4.505   6.300  14.349 -0.2641  0.4711  0.3391
15556TIP3    H168083   4.533   6.384  14.314  0.6244  0.1101  0.1508
15556TIP3    H268084   4.549   6.294  14.434  1.5841 -0.8251 -0.6758
15557TIP3   OH268085   1.190   0.625  13.326 -0.1499  0.1524  0.6230
15557TIP3    H168086   1.125   0.616  13.396 -0.3900 -1.6037  0.2093
15557TIP3    H268087   1.259   0.562  13.350 -0.0685 -0.1996 -0.5129
15558TIP3   OH268088   5.211   2.149  11.197  0.4878 -0.5961 -0.0784
15558TIP3    H168089   5.133   2.098  11.173 -0.9847  0.8090  1.5755
15558TIP3    H268090   5.204   2.229  11.144  0.3958 -0.1316  0.6302
15559TIP3   OH268091   2.847   2.038  14.145  0.0850  0.0210  0.2363
15559TIP3    H168092   2.848   1.988  14.063  0.7835  1.2082 -0.4964
15559TIP3    H268093   2.831   1.973  14.213 -2.1055 -0.7817 -0.9841
15560TIP3   OH268094   1.044   1.605  13.342  0.5210  0.2978  0.2078
15560TIP3    H168095   1.117   1.542  13.336 -0.5392 -0.9289 -0.0838
15560TIP3    H268096   1.076   1.673  13.401  0.8582 -1.7178  2.4062
15561TIP3   OH268097   3.816   2.463   5.491  0.0529  0.0577 -0.2749
15561TIP3    H168098   3.861   2.547   5.505 -3.3895  1.9226  0.1980
15561TIP3    H268099   3.870   2.399   5.536  1.0711  2.5350  2.2206
15562TIP3   OH268100   0.216   5.467   1.231  0.3163  0.0283  0.5443
15562TIP3    H168101   0.252   5.457   1.143  1.1554  1.1711  0.7551
15562TIP3    H268102   0.245   5.388   1.278 -2.6721 -2.1225 -1.0269
15563TIP3   OH268103   3.036   3.500  11.521  0.1283 -0.1476 -0.5452
15563TIP3    H168104   2.992   3.582  11.545  0.1157 -0.4762  0.5968
15563TIP3    H268105   3.118   3.529  11.482  0.9875  0.4104  1.5838
15564TIP3   OH268106   2.410   0.337   4.548 -0.1097  0.5983  0.3768
15564TIP3    H168107   2.464   0.299   4.617 -0.5810  2.8020  2.0234
15564TIP3    H268108   2.377   0.419   4.586 -0.9414  1.5131 -2.2194
15565TIP3   OH268109   5.803   0.064   0.407 -0.1998  0.5300 -0.5063
15565TIP3    H168110   5.820   0.124   0.334 -1.0483  0.4411 -0.7915
15565TIP3    H268111   5.805  -0.023   0.367  0.3980  0.4075 -0.2138
15566TIP3   OH268112   4.438   0.840  11.263  0.1233 -0.2330  0.8672
15566TIP3    H168113   4.459   0.750  11.239  0.5929 -0.8955  3.6518
15566TIP3    H268114   4.343   0.847  11.248  0.1108 -1.1284  0.4814
15567TIP3   OH268115   5.547   2.158   2.643  0.0671  0.1508  0.1486
15567TIP3    H168116   5.607   2.172   2.716  1.0688 -0.2517 -0.5939
15567TIP3    H268117   5.548   2.241   2.595  0.3535  0.0101 -0.0931
15568TIP3   OH268118   4.319   4.001  17.075  0.6044 -0.4131 -0.4271
15568TIP3    H168119   4.309   4.055  16.997 -0.7393  0.8725  0.6121
15568TIP3    H268120   4.314   4.063  17.148 -0.7180 -1.9089  0.7786
15569TIP3   OH268121   0.503   4.217   0.699  0.2011 -0.0219 -0.0498
15569TIP3    H168122   0.453   4.192   0.622  0.4693  0.2393 -0.3114
15569TIP3    H268123   0.559   4.142   0.717  0.6054  0.1651 -0.5027
15570TIP3   OH268124   2.568   1.803  17.097  0.5139  0.4454 -0.1711
15570TIP3    H168125   2.592   1.869  17.162  2.0373 -1.5719  1.3347
15570TIP3    H268126   2.472   1.808  17.093  0.5160  1.7633  0.9720
15571TIP3   OH268127   1.856   3.400   6.436 -0.5400 -0.5847 -0.6217
15571TIP3    H168128   1.796   3.365   6.370  0.3592  0.9973 -2.3025
15571TIP3    H268129   1.914   3.458   6.388 -0.2522  1.1134  1.6655
15572TIP3   OH268130   3.680   5.243  12.528  0.4010  0.0525  0.0680
15572TIP3    H168131   3.741   5.256  12.601 -1.1721 -2.5657  1.9402
15572TIP3    H268132   3.722   5.177  12.473  0.1991 -0.2671  0.2913
15573TIP3   OH268133   5.733   5.483   2.282 -0.9299  0.1227 -0.1891
15573TIP3    H168134   5.816   5.482   2.330 -0.9713 -2.8786 -0.1375
15573TIP3    H268135   5.758   5.501   2.192 -0.4605  1.3912  0.1734
15574TIP3   OH268136   6.544   1.846  15.968 -0.1252 -0.2139 -0.1309
15574TIP3    H168137   6.484   1.919  15.955  0.9220  0.5212 -1.0286
15574TIP3    H268138   6.536   1.793  15.888 -2.0868 -2.0008  1.2181
15575TIP3   OH268139   3.333   5.328  16.979  0.5986 -0.3449 -0.0885
15575TIP3    H168140   3.283   5.318  16.898  1.6703 -3.0682 -0.4745
15575TIP3    H268141   3.411   5.275  16.965  1.1539 -0.2458  2.4490
15576TIP3   OH268142   6.624   1.446   5.423  0.1072  0.0387 -0.0008
15576TIP3    H168143   6.637   1.358   5.389 -1.1292  0.2237 -0.9630
15576TIP3    H268144   6.712   1.484   5.426  0.5460 -0.9571 -0.3157
15577TIP3   OH268145   0.019   1.594   5.222 -0.1040  0.0479 -0.2224
15577TIP3    H168146   0.034   1.583   5.129  0.3938 -0.5504 -0.0774
15577TIP3    H268147   0.089   1.544   5.264  0.1257  0.9395  0.4727
15578TIP3   OH268148   0.771   0.668  15.926 -0.0347 -0.3273 -0.0134
15578TIP3    H168149   0.852   0.618  15.934  0.5954  0.4037 -1.6840
15578TIP3    H268150   0.797   0.759  15.940 -0.2048  0.1302 -2.4604
15579TIP3   OH268151   0.052   5.893  12.162  0.6662  0.0912 -0.0782
15579TIP3    H168152   0.104   5.970  12.142 -2.5963  2.7138  1.0048
15579TIP3    H268153   0.063   5.880  12.256 -0.1651  0.3355  0.0583
15580TIP3   OH268154   5.691   2.266  14.450 -0.0899 -0.1662 -0.1723
15580TIP3    H168155   5.626   2.287  14.516  0.7496  0.2496  0.5300
15580TIP3    H268156   5.650   2.292  14.367 -1.2189 -0.8753  0.1558
15581TIP3   OH268157   4.450   5.929  11.810  0.3477  0.3700 -0.3196
15581TIP3    H168158   4.428   5.971  11.727 -0.1610  1.8918  0.5727
15581TIP3    H268159   4.545   5.939  11.818  0.4751 -0.2472 -0.9510
15582TIP3   OH268160   4.793   4.772   6.510 -0.2372 -0.0237 -0.4714
15582TIP3    H168161   4.712   4.782   6.560 -0.1876 -0.0166 -0.3902
15582TIP3    H268162   4.789   4.682   6.476  0.2541 -0.4386  0.5134
15583TIP3   OH268163   0.059   3.892  16.102 -0.1783 -0.4550 -0.6120
15583TIP3    H168164   0.079   3.977  16.062 -0.8756  0.8334  1.6825
15583TIP3    H268165   0.136   3.872  16.155 -1.1533  0.0947  1.0304
15584TIP3   OH268166   2.118   1.757   2.232  0.4492 -0.2697  0.4144
15584TIP3    H168167   2.198   1.753   2.180  1.0529  0.6641  1.2481
15584TIP3    H268168   2.121   1.843   2.274 -1.9043  0.5366 -0.9780
15585TIP3   OH268169   3.822   5.954   1.338  0.1070  0.6451 -0.5196
15585TIP3    H168170   3.897   5.904   1.305 -0.2598 -0.3994  0.1959
15585TIP3    H268171   3.852   6.044   1.341  1.2276  0.2772 -0.5788
15586TIP3   OH268172   5.323   2.503  16.380 -0.1842 -0.6911  0.6168
15586TIP3    H168173   5.341   2.541  16.466  0.6067  0.5060 -0.0562
15586TIP3    H268174   5.249   2.553  16.346  1.9932  1.5675 -1.0326
15587TIP3   OH268175   6.225   0.521   1.679 -0.0959 -0.6487  0.3946
15587TIP3    H168176   6.161   0.470   1.728 -0.4641 -0.9658 -0.4058
15587TIP3    H268177   6.173   0.567   1.613  0.4852 -0.7801 -0.1542
15588TIP3   OH268178   3.114   4.359  12.508 -0.1011  0.5609  0.2049
15588TIP3    H168179   3.112   4.439  12.560  2.0987  0.1700  0.9216
15588TIP3    H268180   3.173   4.377  12.436  0.1702 -0.3038  0.1984
15589TIP3   OH268181   6.138   3.771  15.822 -0.4629  0.6489  0.0462
15589TIP3    H168182   6.089   3.743  15.899 -2.3357  0.7634 -1.0760
15589TIP3    H268183   6.150   3.691  15.770  0.8499  0.5595  0.4486
15590TIP3   OH268184   2.763   2.194  16.582 -0.1050 -0.6736 -0.0444
15590TIP3    H168185   2.796   2.188  16.671  0.1086  0.0406 -0.0760
15590TIP3    H268186   2.720   2.279  16.578 -0.3897 -0.8367 -0.5331
15591TIP3   OH268187   3.903   5.932  14.035 -0.4418  0.5494 -0.2411
15591TIP3    H168188   3.828   5.985  14.065 -1.3046 -0.4805 -0.5392
15591TIP3    H268189   3.897   5.935  13.940 -0.8396 -0.5327 -0.2628
15592TIP3   OH268190   6.275   2.315  16.660  0.9073 -0.1636 -0.2623
15592TIP3    H168191   6.290   2.249  16.592  0.7265  0.3351 -0.7895
15592TIP3    H268192   6.361   2.328  16.699  0.9328 -0.7581 -0.1144
15593TIP3   OH268193   6.470   2.366  11.125  0.8573  0.5378  0.4380
15593TIP3    H168194   6.532   2.293  11.120  0.3791  0.0539  1.2915
15593TIP3    H268195   6.517   2.435  11.171  1.5716  1.0616 -1.0352
15594TIP3   OH268196   4.591   2.368  16.275 -0.1169 -0.4703  0.3134
15594TIP3    H168197   4.589   2.305  16.203  0.3420  0.2657 -0.3544
15594TIP3    H268198   4.580   2.315  16.353  0.1927 -1.3775 -0.2429
15595TIP3   OH268199   3.786   3.258   3.805 -0.3862 -0.1769  0.3199
15595TIP3    H168200   3.810   3.208   3.728 -1.1188 -0.2021  0.1006
15595TIP3    H268201   3.713   3.209   3.844 -0.4439  0.1786  0.6644
15596TIP3   OH268202   6.781   5.135   5.331 -0.3783 -0.0320 -0.3519
15596TIP3    H168203   6.803   5.056   5.282 -0.1337 -0.7211  0.8339
15596TIP3    H268204   6.687   5.131   5.344 -0.3304 -0.2662 -0.0687
15597TIP3   OH268205   0.067   5.351  12.095  0.3925  0.2031 -0.3736
15597TIP3    H168206   0.066   5.446  12.104  0.2588  0.1808 -0.1572
15597TIP3    H268207  -0.025   5.325  12.101  0.4504  0.0374 -0.1965
15598TIP3   OH268208   5.808   1.345  12.018 -0.0066 -0.7471  0.1484
15598TIP3    H168209   5.766   1.388  11.944  0.2174  0.4111  0.6809
15598TIP3    H268210   5.736   1.319  12.076 -0.0355  0.9242  0.8943
15599TIP3   OH268211   0.841   2.775  12.064 -0.0572  0.2399 -0.0228
15599TIP3    H168212   0.880   2.696  12.101  0.3856  0.6878  0.4610
15599TIP3    H268213   0.759   2.744  12.025 -0.5141 -0.2476  1.2824
15600TIP3   OH268214   0.962   0.395  11.657 -0.1823  0.7630 -0.0258
15600TIP3    H168215   0.938   0.350  11.738 -1.6651  4.5428  1.7340
15600TIP3    H268216   0.881   0.401  11.608  0.6999 -1.4520 -1.8489
15601TIP3   OH268217   2.041   1.048   4.321 -0.9894  0.3315 -0.1548
15601TIP3    H168218   1.993   1.050   4.238  0.7909  0.3563 -1.2018
15601TIP3    H268219   1.995   1.111   4.376 -1.6356  1.0077 -1.4362
15602TIP3   OH268220   1.170   5.446  14.174 -0.5434  0.3450 -0.0696
15602TIP3    H168221   1.196   5.356  14.158  1.7026  0.6875  1.4618
15602TIP3    H268222   1.083   5.440  14.214 -0.8225 -1.0600 -0.8762
15603TIP3   OH268223   4.862   5.764   4.511 -0.6196 -0.0538  0.2636
15603TIP3    H168224   4.957   5.775   4.508 -0.5203 -0.2332  2.0869
15603TIP3    H268225   4.848   5.671   4.530 -1.1249  0.1898  1.1324
15604TIP3   OH268226   4.448   4.128  14.165  0.5893  0.0484  0.9509
15604TIP3    H168227   4.395   4.077  14.226  0.2354  0.1634  0.7490
15604TIP3    H268228   4.538   4.106  14.186  0.4374 -0.8820  0.6810
15605TIP3   OH268229   0.078   0.099  12.927  0.4843 -0.0698  0.4502
15605TIP3    H168230   0.145   0.084  12.994  1.6371  0.6151 -0.5189
15605TIP3    H268231   0.110   0.175  12.878 -0.8294  0.0393 -0.2555
15606TIP3   OH268232   3.860   6.074  11.092  0.4198 -0.1720 -0.3880
15606TIP3    H168233   3.821   6.016  11.158  2.1035 -0.7507  0.1222
15606TIP3    H268234   3.873   6.157  11.138 -0.2643  0.0448 -0.5808
15607TIP3   OH268235   4.420   0.347  11.420 -0.0513  0.0034  0.0301
15607TIP3    H168236   4.428   0.420  11.481 -0.1872 -0.0937  0.1631
15607TIP3    H268237   4.446   0.270  11.470 -0.6376 -0.1437  0.1134
15608TIP3   OH268238   3.578   4.151  15.080 -0.0684  0.1473 -0.6316
15608TIP3    H168239   3.629   4.230  15.062  1.1880 -0.3839  0.5126
15608TIP3    H268240   3.641   4.079  15.069 -0.3701 -0.4709  1.5341
15609TIP3   OH268241   3.500   5.075  11.241  0.6278  0.0822 -0.0471
15609TIP3    H168242   3.433   5.036  11.185 -1.0331  1.4767  0.9100
15609TIP3    H268243   3.580   5.073  11.189 -0.8594  1.3079 -2.4517
15610TIP3   OH268244   6.251   5.289  14.212 -0.0847 -0.3324  0.5471
15610TIP3    H168245   6.251   5.364  14.271 -1.8160 -1.1431  1.6150
15610TIP3    H268246   6.285   5.323  14.130  2.0405  0.9015  1.9036
15611TIP3   OH268247   3.948   6.202   3.740 -0.8412  0.4190 -0.2897
15611TIP3    H168248   3.925   6.290   3.770 -1.0414  0.5039 -0.6888
15611TIP3    H268249   3.942   6.148   3.818  0.8064  1.0435  0.2853
15612TIP3   OH268250   5.194   1.316   4.902  0.3427  0.1446  0.6032
15612TIP3    H168251   5.226   1.230   4.876 -1.0876 -0.6892  1.4983
15612TIP3    H268252   5.213   1.321   4.996 -0.3271  0.4618  0.7228
15613TIP3   OH268253   1.444   0.019  14.520  0.6180 -0.0934  0.2907
15613TIP3    H168254   1.472  -0.014  14.434 -1.4941  0.4966 -0.6381
15613TIP3    H268255   1.421   0.110  14.505 -0.1415 -0.0910  1.4033
15614TIP3   OH268256   3.230   0.910   0.524  0.4858 -0.6470 -0.0972
15614TIP3    H168257   3.326   0.922   0.524  0.4174 -0.0710  0.0056
15614TIP3    H268258   3.206   0.915   0.617  0.3426 -0.6687 -0.1342
15615TIP3   OH268259   1.341   6.467  16.666  0.4738 -0.3040  0.4825
15615TIP3    H168260   1.280   6.530  16.628  0.8552 -0.3173 -0.1595
15615TIP3    H268261   1.408   6.456  16.599  0.0581 -1.8982  0.3118
15616TIP3   OH268262   1.184   3.600   3.973 -0.7312  0.1526  0.2523
15616TIP3    H168263   1.186   3.511   4.007 -0.2893  0.3246  0.6876
15616TIP3    H268264   1.239   3.597   3.895 -2.1518 -0.3564 -0.7529
15617TIP3   OH268265   6.604   5.201  15.179 -0.1966 -0.0283 -0.4531
15617TIP3    H168266   6.524   5.151  15.194 -0.4489  0.7533  0.9805
15617TIP3    H268267   6.622   5.191  15.086 -2.2986  0.2614 -0.9257
15618TIP3   OH268268   3.775   4.641  15.690  0.0384 -0.2266 -0.1454
15618TIP3    H168269   3.796   4.563  15.638 -1.0330  0.7477 -2.1036
15618TIP3    H268270   3.679   4.641  15.695  0.1580 -0.9789  2.9497
15619TIP3   OH268271   3.493   1.424   5.720  0.2301  0.5898  0.4687
15619TIP3    H168272   3.424   1.369   5.759  1.1297  0.2183  1.5558
15619TIP3    H268273   3.573   1.397   5.765  1.0213  1.3120 -0.5033
15620TIP3   OH268274   2.572   3.309  17.107  0.4017  0.3527  0.7553
15620TIP3    H168275   2.662   3.306  17.075  0.4582 -0.6728  0.9751
15620TIP3    H268276   2.580   3.326  17.201  0.4413 -1.1414  1.0384
15621TIP3   OH268277   0.515   5.599   0.406  0.1907 -0.3132 -0.2671
15621TIP3    H168278   0.552   5.517   0.440  0.3081 -0.1213  0.0730
15621TIP3    H268279   0.579   5.666   0.430 -0.7856  0.1540  1.0940
15622TIP3   OH268280   2.928   1.199  16.943  0.0413 -0.1620 -0.1682
15622TIP3    H168281   2.900   1.161  16.860 -1.1932 -0.5031  0.3923
15622TIP3    H268282   2.938   1.293  16.924 -1.3943 -0.0495 -0.4146
15623TIP3   OH268283   1.053   4.618   0.784 -0.7426 -0.1394  0.2268
15623TIP3    H168284   0.997   4.552   0.824 -0.6116 -0.1167  0.4500
15623TIP3    H268285   1.104   4.654   0.857  1.1892 -1.7472 -0.2897
15624TIP3   OH268286   1.647   6.718  16.629  0.5857 -0.3751 -0.9012
15624TIP3    H168287   1.638   6.654  16.699  2.1500 -2.0251 -2.1691
15624TIP3    H268288   1.682   6.796  16.673 -1.1020 -0.4356  0.6059
15625TIP3   OH268289   2.266   3.056   6.089 -0.2401 -0.2308  0.1667
15625TIP3    H168290   2.207   3.046   6.164 -0.7142  2.3404  0.1995
15625TIP3    H268291   2.342   3.101   6.126 -0.0469  0.1553 -0.6977
15626TIP3   OH268292   5.619   4.697  15.807 -0.1455  0.0930  0.5164
15626TIP3    H168293   5.586   4.787  15.811  0.1304  0.3433 -1.7530
15626TIP3    H268294   5.709   4.702  15.839  0.1825  0.8278 -0.4794
15627TIP3   OH268295   2.815   3.755  16.098 -0.4746  0.4582  0.6328
15627TIP3    H168296   2.764   3.695  16.044  1.5300  1.3642 -2.4197
15627TIP3    H268297   2.757   3.829  16.114 -1.5110 -0.3777  0.8285
15628TIP3   OH268298   2.052   5.519  14.253 -0.4237 -0.1961  0.7773
15628TIP3    H168299   1.972   5.471  14.231 -0.5571  0.0703  0.6803
15628TIP3    H268300   2.023   5.595  14.302 -0.4320  1.0225 -1.0446
15629TIP3   OH268301   6.275   1.885  13.475  0.1764 -0.0506 -0.0914
15629TIP3    H168302   6.188   1.898  13.437 -0.5583 -0.2762  1.4954
15629TIP3    H268303   6.258   1.853  13.564  1.8858 -2.8572 -0.7148
15630TIP3   OH268304   5.788   0.436   0.588  0.3676 -0.2757 -0.0565
15630TIP3    H168305   5.875   0.430   0.550  1.3700  1.7336  1.8475
15630TIP3    H268306   5.799   0.409   0.679 -0.7405  1.2306  0.5447
15631TIP3   OH268307   2.483   2.690  14.763  0.1230  0.1829  0.4143
15631TIP3    H168308   2.450   2.660  14.678  0.6829 -0.8234  0.5425
15631TIP3    H268309   2.406   2.727  14.807 -0.6093 -1.1449  0.2824
15632TIP3   OH268310   1.935   6.079   2.805  0.5115  0.3944 -0.4542
15632TIP3    H168311   1.852   6.039   2.829  0.3869  0.0842 -1.3607
15632TIP3    H268312   1.914   6.172   2.792 -0.0345  0.0573 -2.1740
15633TIP3   OH268313   4.130   2.279  11.634  0.4842  0.0819 -0.0088
15633TIP3    H168314   4.078   2.341  11.582  0.2300 -0.5811 -0.5424
15633TIP3    H268315   4.153   2.328  11.713 -1.1967  0.2803  0.3678
15634TIP3   OH268316   1.407   5.570   3.933  0.4220 -0.1018 -0.3868
15634TIP3    H168317   1.389   5.653   3.889 -2.4379 -0.3888  0.1367
15634TIP3    H268318   1.326   5.519   3.923  0.9406 -1.5186  2.1766
15635TIP3   OH268319   1.935   6.565   2.519 -0.4864  0.3408 -0.6577
15635TIP3    H168320   1.890   6.519   2.448 -0.5795 -1.0959  0.3150
15635TIP3    H268321   2.023   6.582   2.485 -0.6288 -0.0432 -1.2255
15636TIP3   OH268322   4.241   4.800   4.702 -0.4262  0.1094 -0.2279
15636TIP3    H168323   4.329   4.820   4.733 -0.4587 -0.9852  0.6098
15636TIP3    H268324   4.235   4.842   4.616  0.3539  1.5368  0.3929
15637TIP3   OH268325   5.847   3.955  16.895  0.2129  0.4414 -0.1633
15637TIP3    H168326   5.904   3.891  16.937  0.0808 -0.8303 -1.8936
15637TIP3    H268327   5.870   3.951  16.803 -1.7124  0.9173 -0.6832
15638TIP3   OH268328   3.613   5.771  16.029  0.5271 -0.0389 -0.3826
15638TIP3    H168329   3.646   5.837  16.090 -1.0266 -0.3679  0.8421
15638TIP3    H268330   3.610   5.816  15.945  2.5223  0.4778 -0.2023
15639TIP3   OH268331   6.175   4.271  15.895 -0.4575  0.1819  0.3602
15639TIP3    H168332   6.111   4.203  15.874 -1.2098  1.1863 -0.6298
15639TIP3    H268333   6.260   4.231  15.875 -0.8564 -0.6389  0.2884
15640TIP3   OH268334   4.716   0.557  14.232 -0.0313  0.3391  0.4823
15640TIP3    H168335   4.717   0.528  14.140 -0.5718 -0.4322  0.7148
15640TIP3    H268336   4.669   0.488  14.278 -2.2328  2.0344  0.8990
15641TIP3   OH268337   0.120   4.027  15.688 -0.3696  0.0530  0.5124
15641TIP3    H168338   0.150   4.113  15.660 -0.9076  0.1627  0.2681
15641TIP3    H268339   0.175   4.005  15.763  1.8895 -0.7150 -1.2781
15642TIP3   OH268340   2.425   6.422  14.070 -0.0181 -0.3580  0.1084
15642TIP3    H168341   2.355   6.484  14.089  0.5775  0.6498 -0.9260
15642TIP3    H268342   2.414   6.400  13.978  1.1641 -0.0013 -0.1336
15643TIP3   OH268343   3.991   1.460   0.319  0.0729 -0.3315 -0.0898
15643TIP3    H168344   4.049   1.390   0.288 -1.4253 -1.0492 -1.4109
15643TIP3    H268345   3.959   1.501   0.238  0.1486  1.2106  0.6618
15644TIP3   OH268346   3.390   0.522   5.836 -0.0217 -0.3210 -0.3787
15644TIP3    H168347   3.421   0.433   5.820  0.9058  0.0044 -0.4017
15644TIP3    H268348   3.335   0.542   5.760  0.9422 -0.3426 -1.0871
15645TIP3   OH268349   2.763   1.168  15.840 -0.0482 -0.0443 -0.0346
15645TIP3    H168350   2.672   1.185  15.863 -0.4715 -1.3195 -0.7165
15645TIP3    H268351   2.769   1.190  15.747  0.5299  0.7578  0.1873
15646TIP3   OH268352   1.794   4.984   0.674  0.2884 -0.0180 -0.1732
15646TIP3    H168353   1.863   4.947   0.730  0.2220  0.4740  0.2412
15646TIP3    H268354   1.825   5.073   0.654 -0.0545  0.0751 -0.2859
15647TIP3   OH268355   0.044   1.917  17.091  0.2094  0.3591  0.0452
15647TIP3    H168356   0.050   1.840  17.148  1.3602 -0.3493 -0.9975
15647TIP3    H268357   0.133   1.954  17.092  0.1104  0.6234 -0.8993
15648TIP3   OH268358   3.333   5.772   1.018  0.5420  0.2303  0.2130
15648TIP3    H168359   3.380   5.704   0.970 -0.9444 -0.4620 -0.2971
15648TIP3    H268360   3.391   5.848   1.017  2.3757 -1.1350  1.1068
15649TIP3   OH268361   4.148   2.028  17.046  0.0722 -0.2003  0.2923
15649TIP3    H168362   4.231   2.049  17.088  0.2238 -2.5933  1.2852
15649TIP3    H268363   4.168   2.028  16.952  1.0460 -0.1818  0.4933
15650TIP3   OH268364   5.723   2.174   0.941  0.1322  0.1637  0.1592
15650TIP3    H168365   5.630   2.160   0.958  0.1060  1.4211  1.1843
15650TIP3    H268366   5.754   2.221   1.018  1.0272  2.0874 -1.3332
15651TIP3   OH268367   3.424   1.342   0.471  0.5338  0.2637  0.1321
15651TIP3    H168368   3.376   1.362   0.551  0.2212 -1.8488  0.4922
15651TIP3    H268369   3.356   1.325   0.406  0.8006  0.2487 -0.1422
15652TIP3   OH268370   2.657   1.508  15.967  0.3573 -0.4112  0.0831
15652TIP3    H168371   2.633   1.419  15.940 -2.5005 -0.0364  1.2302
15652TIP3    H268372   2.654   1.559  15.886  0.9636 -1.1475 -0.4102
15653TIP3   OH268373   2.442   0.197  12.263  0.1848 -0.3756  0.4395
15653TIP3    H168374   2.455   0.131  12.195 -1.2147 -0.2167  0.0050
15653TIP3    H268375   2.392   0.151  12.331  0.3006 -0.1110  0.7043
15654TIP3   OH268376   3.588   0.262   3.118 -0.3258  0.2419 -0.0945
15654TIP3    H168377   3.569   0.355   3.127  0.9947  0.3919  1.2792
15654TIP3    H268378   3.643   0.256   3.040  2.4569  1.0635  1.7382
15655TIP3   OH268379   0.466   6.687  13.909  0.0951 -0.3313 -0.2433
15655TIP3    H168380   0.429   6.646  13.987 -0.5453 -0.4973 -0.6369
15655TIP3    H268381   0.393   6.692  13.847  0.5930 -0.1768 -0.8216
15656TIP3   OH268382   3.439   4.206  16.774 -0.3682 -0.2454 -0.4654
15656TIP3    H168383   3.475   4.242  16.855 -0.3211  0.0822 -0.6294
15656TIP3    H268384   3.396   4.125  16.801 -1.4827  0.5189  0.1029
15657TIP3   OH268385   2.016   5.178  12.333  0.3331 -0.1588  0.0040
15657TIP3    H168386   1.979   5.168  12.245 -0.9576 -0.4194  0.5659
15657TIP3    H268387   2.011   5.271  12.351 -1.2463 -0.3495  0.5836
15658TIP3   OH268388   3.876   2.097   1.595  0.2637  0.1662 -0.3529
15658TIP3    H168389   3.809   2.105   1.527 -0.1346  1.2834  0.1783
15658TIP3    H268390   3.945   2.044   1.553  0.0210  0.8313 -1.6348
15659TIP3   OH268391   1.864   2.364   5.924 -0.5830 -0.1125  0.1557
15659TIP3    H168392   1.784   2.414   5.907  0.6091  1.4096 -1.1240
15659TIP3    H268393   1.833   2.277   5.947 -2.5486 -0.0838 -2.1776
15660TIP3   OH268394   4.190   0.960   5.501  0.1558  0.2599 -0.2181
15660TIP3    H168395   4.281   0.990   5.505 -0.0857  1.0791 -0.6660
15660TIP3    H268396   4.174   0.919   5.586  1.1360 -0.4469 -0.3715
15661TIP3   OH268397   1.337   0.213   3.655  0.3505  0.3039 -0.4875
15661TIP3    H168398   1.245   0.233   3.637 -0.7139 -2.3389  1.5661
15661TIP3    H268399   1.346   0.224   3.750  2.4206  1.4735 -0.7920
15662TIP3   OH268400   3.818   5.581   1.242  0.0624  0.4408 -0.1166
15662TIP3    H168401   3.772   5.621   1.168 -1.2668 -0.8216 -0.0096
15662TIP3    H268402   3.754   5.585   1.314  0.2562 -0.9737  0.1442
15663TIP3   OH268403   1.479   4.707   1.522 -0.6212  0.0475 -0.3195
15663TIP3    H168404   1.500   4.786   1.572  1.4635 -0.0690 -0.9937
15663TIP3    H268405   1.427   4.654   1.582 -1.3370  1.5402  0.4266
15664TIP3   OH268406   2.092   3.620   5.122  0.1703  0.4608  0.0084
15664TIP3    H168407   2.063   3.603   5.212  0.2335 -1.5528 -0.3317
15664TIP3    H268408   2.187   3.622   5.127  0.2222 -0.8723 -0.1955
15665TIP3   OH268409   2.504   4.434  14.260  0.0631 -0.0096  0.4626
15665TIP3    H168410   2.562   4.489  14.313 -2.3731  2.2000  0.9487
15665TIP3    H268411   2.416   4.458  14.288 -1.1457 -2.9175 -0.6171
15666TIP3   OH268412   1.492   0.825  10.574  0.2876 -0.4599 -0.0150
15666TIP3    H168413   1.436   0.813  10.651 -0.6731  0.1870 -0.6123
15666TIP3    H268414   1.451   0.895  10.524  0.8901 -0.8925 -1.1446
15667TIP3   OH268415   2.802   2.520  16.645 -0.1941  0.3751 -0.5628
15667TIP3    H168416   2.827   2.555  16.731 -0.2967  1.0871 -0.8247
15667TIP3    H268417   2.870   2.550  16.586 -0.8786  1.0685 -0.9969
15668TIP3   OH268418   1.249   5.187  14.120 -0.0138  0.2780 -0.9606
15668TIP3    H168419   1.259   5.170  14.026  0.5028 -0.9288 -0.6956
15668TIP3    H268420   1.206   5.109  14.154  0.8218  0.2322 -0.0055
15669TIP3   OH268421   2.188   4.062   1.233 -0.2818  0.6240  0.1851
15669TIP3    H168422   2.141   4.088   1.153 -0.4499 -1.4827 -0.4203
15669TIP3    H268423   2.121   4.018   1.286  0.6087 -0.9437  0.0286
15670TIP3   OH268424   0.419   3.829  15.598 -0.2487 -0.0515  0.3059
15670TIP3    H168425   0.382   3.755  15.646 -0.0981  0.5511  1.3592
15670TIP3    H268426   0.421   3.900  15.661  0.2837  0.6548 -0.4958
15671TIP3   OH268427   3.681   3.805  11.161 -0.2988 -0.5882 -0.9762
15671TIP3    H168428   3.752   3.865  11.137  0.0798 -0.5735  0.1500
15671TIP3    H268429   3.726   3.723  11.185 -0.7070 -0.8056 -0.9436
15672TIP3   OH268430   3.883   3.505  12.055  0.5761  0.6886  0.2822
15672TIP3    H168431   3.929   3.425  12.030 -0.9100 -0.1757  0.2172
15672TIP3    H268432   3.799   3.474  12.088  1.1503  2.0420  3.1181
15673TIP3   OH268433   6.350   5.843   2.327  0.0748  0.8300  0.1890
15673TIP3    H168434   6.263   5.803   2.323 -0.1400  1.3149  0.0025
15673TIP3    H268435   6.362   5.883   2.241  0.8812 -0.0615 -0.1297
15674TIP3   OH268436   2.590   0.365  14.321  0.3858 -0.6150  0.5204
15674TIP3    H168437   2.596   0.426  14.248 -0.2389  0.6817  1.5262
15674TIP3    H268438   2.634   0.286  14.290 -0.5519 -0.3677 -1.5249
15675TIP3   OH268439   1.559   1.671  13.712 -0.5545  0.3750  0.0766
15675TIP3    H168440   1.534   1.740  13.650  2.0945  1.7991  0.5334
15675TIP3    H268441   1.615   1.613  13.660 -0.3345  0.2030  0.5120
15676TIP3   OH268442   0.108   2.536  11.759  0.4901  0.1697 -0.3447
15676TIP3    H168443   0.124   2.614  11.812  1.4046  0.5743 -1.2080
15676TIP3    H268444   0.013   2.527  11.758  0.3639  1.4070 -0.4204
15677TIP3   OH268445   2.658   5.339   0.523 -0.4666  0.3726  0.3277
15677TIP3    H168446   2.640   5.421   0.478 -1.4356  0.1214  0.2559
15677TIP3    H268447   2.750   5.346   0.549 -0.5986  1.5725  0.5185
15678TIP3   OH268448   0.638   1.853   3.438  0.0475 -0.4018 -0.2499
15678TIP3    H168449   0.606   1.881   3.352  0.7014  0.8697 -0.0915
15678TIP3    H268450   0.674   1.932   3.478 -3.3898 -0.1519  2.6259
15679TIP3   OH268451   0.678   0.051  17.124 -0.1486  0.3009  0.1030
15679TIP3    H168452   0.588   0.073  17.101 -0.5490 -0.7373  0.6369
15679TIP3    H268453   0.731   0.117  17.080 -1.2269  1.5513  0.6326
15680TIP3   OH268454   0.941   2.259  14.193 -0.1495  0.1413  0.0942
15680TIP3    H168455   0.909   2.225  14.277 -1.4413  0.3338 -0.3083
15680TIP3    H268456   0.976   2.183  14.148 -0.6992 -0.1996  0.2439
15681TIP3   OH268457   0.100   4.401   4.384 -0.2038 -0.4040 -0.0997
15681TIP3    H168458   0.107   4.346   4.462 -0.5414 -0.7244 -0.2920
15681TIP3    H268459   0.028   4.462   4.403 -1.0673 -1.2481 -0.6212
15682TIP3   OH268460   4.497   0.721   4.183  0.1076 -0.5066 -0.6868
15682TIP3    H168461   4.478   0.795   4.125 -2.5845 -0.4376  0.2134
15682TIP3    H268462   4.545   0.758   4.256 -0.4666  0.2189 -0.6747
15683TIP3   OH268463   5.787   3.848   6.225 -0.0555 -0.2410 -0.1848
15683TIP3    H168464   5.771   3.910   6.154  1.8004  1.2531  0.6577
15683TIP3    H268465   5.860   3.794   6.193 -0.2216 -0.5663 -0.0171
15684TIP3   OH268466   1.282   3.408   4.550  0.5682  0.6803 -0.2177
15684TIP3    H168467   1.361   3.361   4.577  0.4077  0.8048  0.4748
15684TIP3    H268468   1.244   3.440   4.632 -1.3855 -1.2353 -0.3206
15685TIP3   OH268469   3.350   5.764   4.932  0.2209  0.4125  0.5773
15685TIP3    H168470   3.320   5.722   4.851 -0.2851  0.4262  0.7580
15685TIP3    H268471   3.437   5.727   4.947  0.2993  0.3779  0.0461
15686TIP3   OH268472   5.748   3.140  13.222  0.0450  0.4245  0.5512
15686TIP3    H168473   5.723   3.174  13.308  0.8742  0.9540  0.5871
15686TIP3    H268474   5.794   3.059  13.240 -0.0502  0.3791  0.5898
15687TIP3   OH268475   1.010   5.317   3.047  0.2490  0.7374  0.3534
15687TIP3    H168476   0.979   5.271   3.125  1.4174  2.9243  2.1800
15687TIP3    H268477   1.100   5.288   3.037 -0.7811 -1.8586 -2.0485
15688TIP3   OH268478   1.372   3.481  14.413  0.3071 -0.1235  0.3200
15688TIP3    H168479   1.463   3.459  14.394 -0.6162 -1.3047 -2.9973
15688TIP3    H268480   1.369   3.576  14.404  1.3839  0.0292  1.3695
15689TIP3   OH268481   3.524   6.592   1.028 -0.1132  0.0764  0.0268
15689TIP3    H168482   3.603   6.639   1.052 -0.3446  0.8864 -0.7890
15689TIP3    H268483   3.456   6.627   1.086  0.0435 -0.3667  0.4836
15690TIP3   OH268484   0.505   2.872  11.865 -0.4955 -0.2747  0.3663
15690TIP3    H168485   0.429   2.833  11.908 -0.4174  0.6936  1.3896
15690TIP3    H268486   0.478   2.882  11.773 -0.3361 -3.1849 -0.0452
15691TIP3   OH268487   1.057   3.053   3.280  0.5252  0.3099 -0.6120
15691TIP3    H168488   0.969   3.081   3.305  0.7725  0.9405 -0.4423
15691TIP3    H268489   1.055   3.049   3.185  0.3342  0.3948 -0.6125
15692TIP3   OH268490   2.186   0.563   6.062  0.6257  0.8535  0.6859
15692TIP3    H168491   2.137   0.623   6.006 -1.6172 -0.3311  1.3224
15692TIP3    H268492   2.248   0.519   6.003 -1.9729 -0.6676 -0.9822
15693TIP3   OH268493   5.086   5.353   1.036  0.1116 -0.3780  0.9137
15693TIP3    H168494   5.098   5.288   0.968  0.4246 -1.3687  1.9034
15693TIP3    H268495   5.094   5.304   1.118  0.2086  0.8727  1.6660
15694TIP3   OH268496   1.187   5.019  15.245 -0.3240 -0.0879  0.0333
15694TIP3    H168497   1.248   5.087  15.272  1.4174 -1.5986  0.0240
15694TIP3    H268498   1.115   5.025  15.307 -0.2516  1.8082 -0.0333
15695TIP3   OH268499   1.370   2.303   0.030 -0.2131  0.5034  0.1958
15695TIP3    H168500   1.336   2.373   0.085 -0.9730  1.2686 -1.2075
15695TIP3    H268501   1.320   2.311  -0.052  1.8913  0.3570 -1.1485
15696TIP3   OH268502   2.116   2.996  11.555  0.7778  0.3430 -0.5154
15696TIP3    H168503   2.078   2.941  11.486  1.0045  0.9395 -1.1241
15696TIP3    H268504   2.196   2.950  11.582 -1.1551 -1.7241  1.8701
15697TIP3   OH268505   6.735   2.208  11.988  0.1598  0.8527 -0.4678
15697TIP3    H168506   6.818   2.246  12.015  0.2199 -0.6506  1.5305
15697TIP3    H268507   6.757   2.147  11.918  1.2999 -2.3934  2.5959
15698TIP3   OH268508   1.334   6.416  11.548 -0.5207 -0.0228  0.6882
15698TIP3    H168509   1.305   6.344  11.604 -0.5950 -1.1764 -0.7955
15698TIP3    H268510   1.400   6.461  11.600 -0.2081 -1.3728  1.5041
15699TIP3   OH268511   5.872   5.823  15.135 -0.0558 -0.6154 -0.2143
15699TIP3    H168512   5.951   5.768  15.130 -1.1338 -2.1715 -0.5504
15699TIP3    H268513   5.846   5.836  15.044  0.3507  0.7181 -0.1493
15700TIP3   OH268514   2.395   5.988   2.291  0.5386 -0.0747  0.5468
15700TIP3    H168515   2.384   5.943   2.208  2.4298  1.9465 -0.8639
15700TIP3    H268516   2.459   5.936   2.339 -1.6304 -2.0381  1.3794
15701TIP3   OH268517   4.172   4.710   6.413  0.0387 -0.1631 -0.3979
15701TIP3    H168518   4.150   4.617   6.415  1.1746 -0.4610 -1.1305
15701TIP3    H268519   4.088   4.754   6.404 -0.5194 -1.1155  0.0449
15702TIP3   OH268520   1.189   0.416  14.040 -0.5608  0.3327 -0.4445
15702TIP3    H168521   1.163   0.324  14.044 -0.9362  0.4421 -0.2644
15702TIP3    H268522   1.106   0.464  14.041 -0.5088  0.5915 -3.6237
15703TIP3   OH268523   5.422   5.655  16.730  0.5451  0.5784 -0.1258
15703TIP3    H168524   5.363   5.580  16.723  3.3635 -1.6780 -0.5593
15703TIP3    H268525   5.382   5.710  16.798 -0.5123 -2.3339  1.7036
15704TIP3   OH268526   4.215   2.648  11.491  0.6409 -0.0314 -0.1028
15704TIP3    H168527   4.262   2.643  11.574  0.7434 -1.2247 -0.2192
15704TIP3    H268528   4.282   2.676  11.428  0.5188  1.0594  0.2474
15705TIP3   OH268529   1.795   1.871  16.032 -0.6553  0.0180 -0.0188
15705TIP3    H168530   1.747   1.863  16.114 -0.9893 -0.1788 -0.2323
15705TIP3    H268531   1.804   1.781  16.001  0.3957 -0.0089  0.3264
15706TIP3   OH268532   4.868   5.970  16.250 -0.6114  0.0860 -0.1510
15706TIP3    H168533   4.844   5.938  16.337 -1.8309 -0.5133 -0.6861
15706TIP3    H268534   4.961   5.949  16.241 -0.9147 -1.5784  0.2819
15707TIP3   OH268535   1.821   0.897   5.719  0.3225  0.2891 -0.0879
15707TIP3    H168536   1.838   0.814   5.676 -1.5327  0.5341 -1.3512
15707TIP3    H268537   1.889   0.904   5.786  1.3422 -1.5670 -0.9025
15708TIP3   OH268538   1.471   3.281  10.583 -0.2714  0.1756 -0.4568
15708TIP3    H168539   1.391   3.272  10.633 -0.2306  1.7886 -0.0915
15708TIP3    H268540   1.525   3.342  10.633  0.3847  0.6262 -1.6805
15709TIP3   OH268541   5.309   1.769   3.612 -0.4413 -0.0849 -0.1613
15709TIP3    H168542   5.243   1.758   3.543  0.7260 -0.2311 -1.2715
15709TIP3    H268543   5.388   1.797   3.565  0.1812  0.4598  1.1991
15710TIP3   OH268544   3.650   4.783   5.765  0.6388  0.1963 -0.0746
15710TIP3    H168545   3.697   4.734   5.698  1.1816  0.2593  0.2639
15710TIP3    H268546   3.558   4.758   5.753  0.7971 -0.1628 -0.5247
15711TIP3   OH268547   0.453   0.169  12.864  0.5235 -0.0773 -0.0631
15711TIP3    H168548   0.398   0.246  12.846 -0.2771 -0.1938  1.7587
15711TIP3    H268549   0.445   0.156  12.959  0.7302 -2.3600 -0.3362
15712TIP3   OH268550   5.062   4.434  10.922 -0.0250 -0.0563  0.3234
15712TIP3    H168551   5.097   4.345  10.920  2.3899  0.8455 -0.0407
15712TIP3    H268552   5.121   4.483  10.865 -2.0016  1.5457 -0.3699
15713TIP3   OH268553   1.986   5.415  15.242  0.2410 -1.0069 -0.0086
15713TIP3    H168554   2.021   5.344  15.295  0.8521 -2.0011 -1.6954
15713TIP3    H268555   1.914   5.376  15.192  0.6930 -0.5189 -1.0826
15714TIP3   OH268556   4.421   0.464  12.066  0.2499  0.1442  0.0171
15714TIP3    H168557   4.466   0.451  12.150 -0.7342 -0.5215  0.4548
15714TIP3    H268558   4.490   0.455  12.000  1.1165  1.1221  0.7665
15715TIP3   OH268559   6.057   6.011  15.218 -0.0460 -0.1080  0.3337
15715TIP3    H168560   6.008   6.080  15.262 -0.9450  1.3521 -2.8177
15715TIP3    H268561   5.990   5.956  15.177  0.7905 -0.8939 -0.0030
15716TIP3   OH268562   0.642   3.575  16.348 -0.3863  1.0224  0.1480
15716TIP3    H168563   0.665   3.644  16.287 -1.3556  1.4570  0.2658
15716TIP3    H268564   0.702   3.586  16.422 -0.0162  1.2381 -0.1854
15717TIP3   OH268565   0.921   3.159  11.462 -0.0697  0.4336 -0.3544
15717TIP3    H168566   0.999   3.212  11.482  0.4523  0.5393 -2.5651
15717TIP3    H268567   0.885   3.197  11.382  0.4122 -2.6116 -2.1127
15718TIP3   OH268568   4.921   1.642  14.414  0.7207 -0.2021 -0.3353
15718TIP3    H168569   4.906   1.735  14.395 -0.6693 -0.2287  0.5101
15718TIP3    H268570   4.998   1.618  14.362  1.7844  1.7131  0.3450
15719TIP3   OH268571   4.796   5.921   3.288 -0.1476  0.0195  0.5057
15719TIP3    H168572   4.744   5.974   3.228  1.3745  0.7371 -0.1974
15719TIP3    H268573   4.796   5.971   3.370  0.5480  0.6754  0.1093
15720TIP3   OH268574   1.152   2.675  16.082 -0.5422  0.0393 -0.7493
15720TIP3    H168575   1.155   2.766  16.051  0.1356  1.1863  2.4666
15720TIP3    H268576   1.227   2.633  16.041  0.8089  1.7341 -0.0664
15721TIP3   OH268577   5.357   4.144  12.883  0.0410  0.4614  0.1148
15721TIP3    H168578   5.415   4.114  12.953 -0.1122 -2.6736 -1.0344
15721TIP3    H268579   5.409   4.136  12.803 -1.3242 -0.6138 -0.6971
15722TIP3   OH268580   3.090   3.342   4.481  0.1461  0.5173  0.6115
15722TIP3    H168581   3.172   3.355   4.433 -1.3790  0.4015 -2.0985
15722TIP3    H268582   3.025   3.392   4.432 -1.9833 -1.6986  1.0903
15723TIP3   OH268583   4.840   1.710   0.517  0.2045 -0.1911 -0.1540
15723TIP3    H168584   4.873   1.792   0.554  0.4089 -0.0033 -0.7523
15723TIP3    H268585   4.857   1.717   0.423 -0.6785 -0.4998 -0.3386
15724TIP3   OH268586   5.668   3.586   2.111 -0.3794 -0.3734 -0.5155
15724TIP3    H168587   5.595   3.610   2.169  1.0108  1.5748  0.4820
15724TIP3    H268588   5.730   3.542   2.169 -0.3272 -1.1300 -1.1555
15725TIP3   OH268589   1.876   5.878  17.080  0.2204  0.0976  0.0138
15725TIP3    H168590   1.781   5.885  17.079  0.2479  0.3398 -3.1982
15725TIP3    H268591   1.892   5.787  17.105 -0.8323 -0.0682  0.1199
15726TIP3   OH268592   6.399   0.699   5.912 -0.1673  0.8127 -0.3448
15726TIP3    H168593   6.341   0.774   5.924 -0.6347  0.4658 -0.4140
15726TIP3    H268594   6.457   0.700   5.989 -0.6013  0.8632 -0.0187
15727TIP3   OH268595   3.340   5.800   6.589 -0.2232  0.0971 -0.1329
15727TIP3    H168596   3.294   5.873   6.631 -1.1619 -1.9092  2.4673
15727TIP3    H268597   3.272   5.755   6.539  0.2472  0.6641 -1.3023
15728TIP3   OH268598   4.269   1.401   0.902 -0.2301 -0.6456 -0.1306
15728TIP3    H168599   4.257   1.444   0.817  1.2224 -0.2928 -0.1854
15728TIP3    H268600   4.288   1.473   0.962 -1.5181 -0.8751  0.5438
15729TIP3   OH268601   3.662   0.968  11.930  0.0797 -0.0307 -0.2851
15729TIP3    H168602   3.611   0.915  11.991  2.2914  0.2037  1.8522
15729TIP3    H268603   3.671   0.913  11.852 -1.1066 -1.1450  0.3403
15730TIP3   OH268604   4.104   5.269   5.847  0.4568  0.2842 -0.4278
15730TIP3    H168605   4.171   5.329   5.815 -0.1879  1.0358 -0.3853
15730TIP3    H268606   4.126   5.185   5.809  0.0244  1.0423 -2.4068
15731TIP3   OH268607   4.092   3.582  14.681  0.4749  0.2407  0.3974
15731TIP3    H168608   4.131   3.495  14.675  2.6592  1.1267  1.3546
15731TIP3    H268609   4.039   3.579  14.761  0.9264 -0.0609  0.6866
15732TIP3   OH268610   4.816   2.396  14.282  0.0211 -0.3667  0.4358
15732TIP3    H168611   4.727   2.373  14.306 -0.0005 -0.0225  0.6967
15732TIP3    H268612   4.870   2.327  14.321 -0.1262 -0.5471  0.3180
15733TIP3   OH268613   6.766   1.403  16.672  0.5596 -0.2138  0.0101
15733TIP3    H168614   6.778   1.495  16.647  1.0278 -0.2802 -0.0208
15733TIP3    H268615   6.716   1.407  16.754 -0.5616  0.0234 -0.6715
15734TIP3   OH268616   6.395   4.816   0.444 -0.5765 -0.1560 -0.3738
15734TIP3    H168617   6.334   4.798   0.372 -1.6263 -0.6296  0.6176
15734TIP3    H268618   6.345   4.871   0.504  0.4797  0.7029 -0.2601
15735TIP3   OH268619   0.041   2.075  11.777 -0.4990 -0.0113 -0.4407
15735TIP3    H168620   0.076   2.159  11.749 -0.9241  0.2264 -0.2613
15735TIP3    H268621   0.114   2.033  11.822 -0.1266  0.0381 -0.9930
15736TIP3   OH268622   6.472   5.236   2.500  0.8104  0.7319  0.0051
15736TIP3    H168623   6.461   5.220   2.407  0.2518  0.1645  0.1580
15736TIP3    H268624   6.393   5.285   2.525  0.6663  0.3591  0.2901
15737TIP3   OH268625   1.756   6.595   0.758  0.7503 -0.2627 -0.5571
15737TIP3    H168626   1.701   6.673   0.760  0.7827 -0.2248 -1.2805
15737TIP3    H268627   1.723   6.542   0.831  2.0729  1.3279  1.2435
15738TIP3   OH268628   6.202   3.564   2.384 -0.6470 -0.1105 -0.2448
15738TIP3    H168629   6.125   3.619   2.374 -0.2434  0.1536 -1.9584
15738TIP3    H268630   6.248   3.571   2.301  1.4236  0.0368  0.8726
15739TIP3   OH268631   0.809   5.845  16.679 -0.3856 -0.5733 -0.1110
15739TIP3    H168632   0.725   5.798  16.679 -1.5172  1.3999  1.0616
15739TIP3    H268633   0.836   5.844  16.770 -0.1929  0.6585 -0.1552
15740TIP3   OH268634   0.590   3.536  13.950 -0.0423  0.0721  0.5579
15740TIP3    H168635   0.666   3.536  14.008  0.9036 -1.5127 -0.6534
15740TIP3    H268636   0.535   3.465  13.982  0.3669 -0.6501 -0.3355
15741TIP3   OH268637   5.778   4.683  16.792  0.0682 -0.4051  0.4083
15741TIP3    H168638   5.825   4.628  16.855  0.2784  1.1048  1.5675
15741TIP3    H268639   5.848   4.726  16.742 -0.0300  2.6631  2.8345
15742TIP3   OH268640   1.751   6.609  13.113  0.4397  0.1381  0.0799
15742TIP3    H168641   1.810   6.684  13.127  2.3022 -1.4403  0.8536
15742TIP3    H268642   1.765   6.586  13.021 -0.3093  0.8697 -0.2259
15743TIP3   OH268643   5.166   1.292  16.719 -0.4457  0.6817 -0.0855
15743TIP3    H168644   5.209   1.207  16.713  1.5412  1.5996  0.8125
15743TIP3    H268645   5.104   1.292  16.646  0.9676 -0.7279 -1.3271
15744TIP3   OH268646   4.802   4.181  14.831 -0.3853 -1.0031 -0.1749
15744TIP3    H168647   4.763   4.231  14.903  0.8916 -1.0449  0.5742
15744TIP3    H268648   4.727   4.148  14.782 -1.2788 -0.3972  0.7413
15745TIP3   OH268649   1.687   4.437  15.901 -0.5718 -0.4887  0.0578
15745TIP3    H168650   1.718   4.380  15.831 -1.9712 -1.0785 -0.1105
15745TIP3    H268651   1.641   4.508  15.855 -0.4966 -0.2597  0.3355
15746TIP3   OH268652   4.397   6.301   2.860  0.2551 -0.6767 -0.4397
15746TIP3    H168653   4.357   6.324   2.776  0.6515  0.3575 -0.3465
15746TIP3    H268654   4.423   6.210   2.849  1.2090 -0.2611 -1.7983
15747TIP3   OH268655   6.621   4.756   3.502 -0.8267 -0.2619 -0.0803
15747TIP3    H168656   6.613   4.661   3.504  1.9625 -0.5427 -0.2345
15747TIP3    H268657   6.602   4.784   3.592 -0.6863 -1.0772  0.2072
15748TIP3   OH268658   5.630   6.500   2.021 -0.3042  0.0308 -0.8568
15748TIP3    H168659   5.641   6.405   2.029 -0.1485  0.1136 -0.0174
15748TIP3    H268660   5.635   6.532   2.111  1.7514  1.0698 -1.3034
15749TIP3   OH268661   5.348   2.957   1.046  0.1294 -0.1456 -0.1353
15749TIP3    H168662   5.271   3.012   1.031  0.6922  0.8298  0.5015
15749TIP3    H268663   5.406   2.976   0.972  0.1948 -0.1031 -0.0738
15750TIP3   OH268664   2.407   3.855  14.472  0.3619 -0.4974  0.2207
15750TIP3    H168665   2.473   3.866  14.540  1.9577 -0.6451 -1.2848
15750TIP3    H268666   2.450   3.802  14.405 -1.1082 -0.1379 -1.0260
15751TIP3   OH268667   0.880   4.842   2.890 -0.5820  1.0307 -0.5108
15751TIP3    H168668   0.798   4.884   2.916 -2.1396 -0.6458 -2.5326
15751TIP3    H268669   0.882   4.851   2.794  0.7070 -0.5200 -0.6509
15752TIP3   OH268670   5.569   5.138  13.732 -0.1028 -0.0336  0.4579
15752TIP3    H168671   5.638   5.205  13.728 -0.5523  0.5421  1.8876
15752TIP3    H268672   5.538   5.130  13.642  1.0408  0.5334 -0.0002
15753TIP3   OH268673   3.931   3.519  15.566  0.2083 -0.4493 -0.6946
15753TIP3    H168674   3.921   3.540  15.473  0.7096  1.0314 -0.4357
15753TIP3    H268675   4.022   3.541  15.585  0.1270 -0.8313  0.1263
15754TIP3   OH268676   0.566   5.549  11.444  0.4030  0.3773  0.4977
15754TIP3    H168677   0.556   5.619  11.379 -1.2889  0.3811  0.7509
15754TIP3    H268678   0.550   5.469  11.394 -2.0394  0.4468  1.1302
15755TIP3   OH268679   0.709   5.932  15.300  0.1856 -0.4550  0.1464
15755TIP3    H168680   0.690   6.023  15.324  0.0534 -0.3547 -0.3419
15755TIP3    H268681   0.656   5.880  15.360  1.4832 -0.2481  1.5285
15756TIP3   OH268682   0.456   1.804  14.675 -0.1458  0.6886 -0.1897
15756TIP3    H168683   0.467   1.725  14.621 -3.0717  0.2863 -0.2660
15756TIP3    H268684   0.426   1.871  14.613 -2.8157  0.4204  0.7638
15757TIP3   OH268685   1.561   1.939  12.747 -0.4802  0.0448  0.6679
15757TIP3    H168686   1.526   1.851  12.741  0.3603 -0.3447  1.2711
15757TIP3    H268687   1.618   1.937  12.825  0.8822  0.6388 -0.2794
15758TIP3   OH268688   6.090   6.054   6.515  0.1933  0.7992 -0.3208
15758TIP3    H168689   6.121   6.069   6.425  0.8496  2.2380  0.1302
15758TIP3    H268690   5.995   6.061   6.508  0.2265  0.7033 -0.9440
15759TIP3   OH268691   5.344   4.706  14.270 -0.1047 -0.3755  0.0349
15759TIP3    H168692   5.254   4.700  14.303 -0.4878  0.1786 -0.9112
15759TIP3    H268693   5.347   4.789  14.223  0.5695 -0.9428 -0.9395
15760TIP3   OH268694   4.221   2.596  14.894  0.3702 -0.0213  0.1139
15760TIP3    H168695   4.172   2.626  14.971  1.6877  0.3238  0.8292
15760TIP3    H268696   4.185   2.648  14.822  0.5650  1.1574  0.8488
15761TIP3   OH268697   3.519   3.755   5.207  0.1338 -0.0207 -0.2864
15761TIP3    H168698   3.533   3.716   5.122  1.4197  0.8980 -0.5210
15761TIP3    H268699   3.425   3.771   5.212  0.0744  0.0481 -1.5890
15762TIP3   OH268700   4.628   1.837   1.813  0.0082 -0.1128 -0.0085
15762TIP3    H168701   4.643   1.744   1.799  1.4310  0.0850  0.1411
15762TIP3    H268702   4.543   1.854   1.772  0.0639 -1.3217 -0.6504
15763TIP3   OH268703   4.726   1.281  12.295 -0.1271  0.1733  0.0519
15763TIP3    H168704   4.771   1.198  12.310 -0.4515  0.2336  1.4419
15763TIP3    H268705   4.673   1.266  12.216  0.5337 -0.6292 -0.2489
15764TIP3   OH268706   2.968   5.496   2.601  0.1740 -0.1679 -0.5963
15764TIP3    H168707   3.020   5.573   2.626  0.0137  0.7030 -2.8055
15764TIP3    H268708   3.018   5.422   2.634  2.0978  0.7303 -1.3773
15765TIP3   OH268709   2.027   4.509  11.428 -0.0805  0.0884  0.2186
15765TIP3    H168710   2.028   4.519  11.332 -1.6314  2.4679  0.4038
15765TIP3    H268711   1.938   4.481  11.447  0.4197 -1.0330  0.9287
15766TIP3   OH268712   5.633   6.639  14.139 -0.2185  0.4970 -0.3257
15766TIP3    H168713   5.617   6.640  14.233 -0.2699 -0.7302 -0.3162
15766TIP3    H268714   5.554   6.677  14.101 -1.1347 -1.0364  0.0118
15767TIP3   OH268715   6.432   3.845   0.212  0.5422 -0.1201 -0.6325
15767TIP3    H168716   6.398   3.865   0.299  1.1743  1.1233 -0.6619
15767TIP3    H268717   6.380   3.900   0.153  1.1749  0.2252 -0.8796
15768TIP3   OH268718   5.979   0.109   3.533 -0.6054  0.1875 -0.3428
15768TIP3    H168719   5.941   0.174   3.591  0.2607  1.1119 -0.7871
15768TIP3    H268720   5.915   0.098   3.463 -1.5500 -0.7683  0.6522
15769TIP3   OH268721   3.721   4.418   5.296  0.0617  0.2954 -0.3143
15769TIP3    H168722   3.629   4.440   5.315  0.3381  1.2234 -0.0054
15769TIP3    H268723   3.758   4.395   5.382 -0.0604 -0.7725 -0.5441
15770TIP3   OH268724   5.782   5.715   0.879  0.0540  0.0647 -0.1784
15770TIP3    H168725   5.688   5.714   0.898  0.3232 -0.7549  1.1477
15770TIP3    H268726   5.796   5.798   0.834 -1.4885 -0.2956 -1.3410
15771TIP3   OH268727   0.576   3.138   5.748  0.0727 -0.2574  0.0194
15771TIP3    H168728   0.510   3.179   5.692 -2.7216 -2.0284  1.9105
15771TIP3    H268729   0.560   3.175   5.835  2.8586  0.7086  0.1870
15772TIP3   OH268730   4.861   4.861   4.911 -0.0537  0.0200 -0.2835
15772TIP3    H168731   4.888   4.777   4.875  1.8331 -0.4564  2.1038
15772TIP3    H268732   4.937   4.918   4.899  0.5402 -0.0792  2.5984
15773TIP3   OH268733   3.516   3.143   2.894  0.8659 -0.0874  0.2744
15773TIP3    H168734   3.489   3.175   2.808  1.7967 -0.5584 -0.1931
15773TIP3    H268735   3.443   3.088   2.922 -0.0304  1.1305  0.3773
15774TIP3   OH268736   0.808   3.582   0.168  0.0897  0.2411 -0.2396
15774TIP3    H168737   0.731   3.553   0.119 -1.0722  0.9617  1.1378
15774TIP3    H268738   0.797   3.677   0.175  0.6621  0.2352  0.7258
15775TIP3   OH268739   4.258   5.946  14.685 -0.1597  0.1917  0.9471
15775TIP3    H168740   4.312   5.981  14.756  0.8990  2.0164 -0.7101
15775TIP3    H268741   4.312   5.956  14.607 -1.6407 -1.0010 -0.2530
15776TIP3   OH268742   6.604   6.175  11.111 -0.0705  0.2520 -0.1247
15776TIP3    H168743   6.546   6.243  11.144 -0.7328 -0.9322  1.1871
15776TIP3    H268744   6.655   6.146  11.187  0.6261 -0.3038 -0.7871
15777TIP3   OH268745   0.268   0.047   3.944 -0.5116 -0.5876  1.1250
15777TIP3    H168746   0.243  -0.031   3.894 -0.2076  0.0164  0.0257
15777TIP3    H268747   0.186   0.080   3.980 -1.0045  0.0740 -0.5777
15778TIP3   OH268748   2.689   0.879  12.652 -0.3554  0.7290 -0.3353
15778TIP3    H168749   2.635   0.958  12.654 -0.1175  0.9353 -1.4750
15778TIP3    H268750   2.760   0.900  12.590 -0.1046 -0.2516 -0.3876
15779TIP3   OH268751   4.059   6.129   2.944 -0.1312 -0.0332  0.2448
15779TIP3    H168752   4.050   6.216   2.906 -1.3970 -0.2159  0.0848
15779TIP3    H268753   3.972   6.089   2.933  0.0993 -0.8824  1.3454
15780TIP3   OH268754   3.227   6.568  17.039 -0.2211  0.0117  0.3850
15780TIP3    H168755   3.247   6.495  17.097  1.9561 -0.2904 -0.7307
15780TIP3    H268756   3.204   6.528  16.956  0.4561  0.5878 -0.0794
15781TIP3   OH268757   2.628   2.234  15.492  0.4396 -0.1465  0.5980
15781TIP3    H168758   2.714   2.199  15.470 -0.2113 -1.7808  0.5755
15781TIP3    H268759   2.567   2.189  15.433 -0.4856  0.6682  0.9064
15782TIP3   OH268760   0.510   2.627  13.880  0.1446 -0.0057 -0.2336
15782TIP3    H168761   0.418   2.629  13.905  1.0479 -0.2036  3.3505
15782TIP3    H268762   0.533   2.718  13.865 -0.1324  0.2559  0.8901
15783TIP3   OH268763   3.519   3.205  15.869  0.3857  0.3468  0.1533
15783TIP3    H168764   3.487   3.285  15.828  0.9574  0.6552  0.2978
15783TIP3    H268765   3.563   3.234  15.949  0.5469 -0.1102  0.2357
15784TIP3   OH268766   2.421   4.000  10.782 -0.2660 -0.0599  0.2129
15784TIP3    H168767   2.413   4.091  10.809 -0.4197 -0.0980  0.2979
15784TIP3    H268768   2.330   3.970  10.771 -0.1761  0.3943 -1.8318
15785TIP3   OH268769   1.549   3.333   2.107  0.1366 -0.2719 -0.5869
15785TIP3    H168770   1.601   3.392   2.163 -0.1683  1.1813 -1.8148
15785TIP3    H268771   1.608   3.311   2.035  0.0005 -0.9045 -0.5062
15786TIP3   OH268772   2.951   6.156  15.654 -0.0213  0.0906 -0.3265
15786TIP3    H168773   2.913   6.136  15.740 -1.7605 -1.2534 -1.3660
15786TIP3    H268774   3.044   6.137  15.664  0.0160  1.1796  1.6150
15787TIP3   OH268775   0.499   5.000   4.582  0.4873  0.3570  0.0943
15787TIP3    H168776   0.459   5.041   4.659 -0.6093  0.0385 -0.2989
15787TIP3    H268777   0.426   4.987   4.521  0.9046 -1.7030 -0.0022
15788TIP3   OH268778   0.446   1.449   0.765 -0.2984  0.7088  0.2079
15788TIP3    H168779   0.417   1.503   0.692 -0.4139  0.2186 -0.1084
15788TIP3    H268780   0.497   1.379   0.724  0.3354  0.8990  0.6599
15789TIP3   OH268781   0.849   6.292  11.840  0.3921 -0.1618 -0.4635
15789TIP3    H168782   0.835   6.303  11.746  1.9314  1.9325 -0.4760
15789TIP3    H268783   0.821   6.202  11.858  0.0200 -0.5626 -2.8994
15790TIP3   OH268784   2.473   5.254   3.211 -0.1022  0.1902 -0.4084
15790TIP3    H168785   2.397   5.297   3.249 -0.8688  0.5052 -2.2094
15790TIP3    H268786   2.454   5.161   3.215  1.7810 -0.0984  3.9625
15791TIP3   OH268787   5.972   5.463  11.605  0.3597  0.5001 -0.1897
15791TIP3    H168788   5.930   5.382  11.577 -0.3385  0.2554  1.4753
15791TIP3    H268789   6.030   5.437  11.676  0.7489  1.3338 -0.1956
15792TIP3   OH268790   4.268   6.395   6.515 -0.0701 -0.6075  0.0084
15792TIP3    H168791   4.268   6.404   6.610  1.6397  0.8519 -0.0926
15792TIP3    H268792   4.346   6.343   6.496  0.8414  0.9900 -0.7162
15793TIP3   OH268793   2.705   0.355   2.159 -0.1285 -0.3527  0.0153
15793TIP3    H168794   2.793   0.324   2.139 -0.5620 -1.5731 -0.1029
15793TIP3    H268795   2.652   0.275   2.160 -0.8175  0.0932  2.2971
15794TIP3   OH268796   0.185   2.193   1.688 -0.2843  0.0017  0.1674
15794TIP3    H168797   0.117   2.256   1.665 -1.0159 -0.6457  0.5505
15794TIP3    H268798   0.260   2.218   1.634 -0.4654  1.3935  0.5558
15795TIP3   OH268799   4.828   0.617  13.183 -0.2634  0.4294  0.4967
15795TIP3    H168800   4.822   0.682  13.113 -1.1519  1.0865  1.1845
15795TIP3    H268801   4.922   0.599  13.190 -0.2136 -0.0772 -1.2600
15796TIP3   OH268802   2.884   1.140   0.803  0.2800  0.0230  0.4464
15796TIP3    H168803   2.946   1.075   0.836  0.7892  0.4653  0.3545
15796TIP3    H268804   2.931   1.186   0.734 -0.5845 -0.4911 -0.4922
15797TIP3   OH268805   3.695   5.254  14.375  0.1724 -0.3389  0.5069
15797TIP3    H168806   3.656   5.305  14.446 -2.0576 -0.7587 -0.3700
15797TIP3    H268807   3.622   5.204  14.338  1.5579 -1.1797 -1.1948
15798TIP3   OH268808   1.310   3.423   5.175 -0.2323 -0.0754  0.3615
15798TIP3    H168809   1.370   3.427   5.100 -0.5120  3.5704  0.2266
15798TIP3    H268810   1.359   3.375   5.242  2.2672  1.4678 -0.2826
15799TIP3   OH268811   6.448   2.472   0.409  0.0173  0.1084 -0.5494
15799TIP3    H168812   6.404   2.397   0.451  2.2452 -0.5983  0.6060
15799TIP3    H268813   6.495   2.433   0.335  1.7583  0.2083  0.4708
15800TIP3   OH268814   1.567   6.425  14.430  0.0260 -0.1287 -0.0970
15800TIP3    H168815   1.510   6.450  14.358 -0.7574 -2.4593 -0.2970
15800TIP3    H268816   1.522   6.458  14.508 -1.3523 -1.4639 -0.2998
15801TIP3   OH268817   6.603   4.119   4.682  0.2037  0.1432 -0.6097
15801TIP3    H168818   6.691   4.082   4.679 -0.1577 -0.6531 -2.5602
15801TIP3    H268819   6.607   4.195   4.625 -0.3561  0.1219 -0.6865
15802TIP3   OH268820   1.618   6.343   2.785 -0.2012 -0.6192 -0.4157
15802TIP3    H168821   1.539   6.316   2.833 -1.4900  0.3635 -1.9593
15802TIP3    H268822   1.593   6.338   2.693  1.5592 -0.3208 -0.9194
15803TIP3   OH268823   0.829   5.410   4.205 -0.0703 -0.3027 -0.2529
15803TIP3    H168824   0.831   5.440   4.114 -0.2926 -2.1662 -0.8936
15803TIP3    H268825   0.853   5.317   4.200 -0.9972 -0.6520  1.4918
15804TIP3   OH268826   0.719   3.134   2.916  0.2216 -0.3229 -0.1369
15804TIP3    H168827   0.651   3.118   2.851 -0.3791 -0.7648  0.5915
15804TIP3    H268828   0.783   3.188   2.871 -0.1608 -0.6762 -1.1139
15805TIP3   OH268829   1.885   4.761  11.290 -0.6376 -0.0264 -0.2043
15805TIP3    H168830   1.825   4.831  11.316 -0.5742  0.4538 -1.3124
15805TIP3    H268831   1.900   4.776  11.197  3.2893  1.4129  0.5684
15806TIP3   OH268832   1.895   2.466   1.319  0.6511  0.1748 -0.9201
15806TIP3    H168833   1.981   2.432   1.296  0.8768  0.1468 -0.0485
15806TIP3    H268834   1.894   2.467   1.414 -1.1048 -1.8531 -0.8851
15807TIP3   OH268835   1.644   4.561  15.130  0.1672  0.7166  0.1734
15807TIP3    H168836   1.724   4.519  15.099 -0.0712  0.4419 -0.0655
15807TIP3    H268837   1.573   4.505  15.099 -0.1352  1.1211  0.1264
15808TIP3   OH268838   0.733   4.192   5.505  0.1671 -0.5761 -0.0583
15808TIP3    H168839   0.786   4.119   5.472  2.4198  0.2461  1.5660
15808TIP3    H268840   0.661   4.151   5.551  1.3221 -1.7908  0.7018
15809TIP3   OH268841   1.717   2.594   5.347  0.6588 -0.0749 -0.2205
15809TIP3    H168842   1.689   2.506   5.321 -0.7258 -0.0402  1.0748
15809TIP3    H268843   1.726   2.589   5.442  2.3617  0.7029 -0.3417
15810TIP3   OH268844   1.086   6.663  16.996 -0.0296  0.1404  0.0074
15810TIP3    H168845   1.053   6.675  16.907 -0.7603  0.0426  0.2618
15810TIP3    H268846   1.177   6.634  16.985 -0.7835 -2.0194 -0.7673
15811TIP3   OH268847   2.892   3.019   3.920 -0.2355  0.4494 -0.0902
15811TIP3    H168848   2.825   3.086   3.935  0.8725  1.7268 -0.7327
15811TIP3    H268849   2.878   2.955   3.990 -0.7144  1.8295  1.1079
15812TIP3   OH268850   5.339   4.715  14.824  0.4508 -0.7058  0.1130
15812TIP3    H168851   5.418   4.699  14.774 -0.6328  0.4693 -2.0459
15812TIP3    H268852   5.279   4.646  14.798 -0.4917  0.5244 -1.0737
15813TIP3   OH268853   2.836   4.721  14.389  0.2194 -0.1890 -0.1480
15813TIP3    H168854   2.834   4.685  14.301 -1.2791  0.0775 -0.2439
15813TIP3    H268855   2.870   4.650  14.444  0.4365 -0.6078 -0.8252
15814TIP3   OH268856   1.085   5.732  15.898  0.0016  0.1830  0.1188
15814TIP3    H168857   1.093   5.640  15.875  1.0281  0.4943 -0.8024
15814TIP3    H268858   1.163   5.750  15.951  0.1469  0.6940 -0.2717
15815TIP3   OH268859   4.111   6.240  13.706 -0.4503 -0.3172  0.3988
15815TIP3    H168860   4.156   6.156  13.701 -0.4624 -0.4178  1.7613
15815TIP3    H268861   4.177   6.299  13.744 -0.8429 -0.0072  0.5970
15816TIP3   OH268862   6.674   3.797   5.021 -0.3198 -0.2497  0.2495
15816TIP3    H168863   6.724   3.836   5.093  0.5575 -0.0914 -0.4491
15816TIP3    H268864   6.647   3.872   4.968 -1.2119 -0.3420  0.5647
15817TIP3   OH268865   6.775   2.063  14.029  0.2581 -0.0271  0.4977
15817TIP3    H168866   6.773   2.029  14.118 -0.2824 -1.2691  0.0352
15817TIP3    H268867   6.777   1.984  13.974  1.7796  0.7298 -0.5564
15818TIP3   OH268868   5.553   1.087   2.518 -0.3315 -0.2452 -0.1637
15818TIP3    H168869   5.549   1.048   2.605  0.9514 -1.9147 -0.8157
15818TIP3    H268870   5.476   1.052   2.473 -1.4305  1.2367  0.5147
15819TIP3   OH268871   3.349   0.753   6.432  0.0628 -0.2057  0.1387
15819TIP3    H168872   3.422   0.804   6.467  0.8951 -0.5042 -1.1266
15819TIP3    H268873   3.271   0.795   6.468  0.8662 -0.6741  2.5815
15820TIP3   OH268874   4.522   5.506  11.495 -0.2287 -0.2895 -0.7870
15820TIP3    H168875   4.590   5.456  11.449  2.8330  2.6628  0.2949
15820TIP3    H268876   4.564   5.532  11.577 -3.3052  0.1966  0.6882
15821TIP3   OH268877   2.671   3.525  15.674 -0.6747  0.3220 -0.3949
15821TIP3    H168878   2.683   3.565  15.760  2.1460  1.6228 -1.3446
15821TIP3    H268879   2.696   3.433  15.687  1.8411  0.9860 -0.2653
15822TIP3   OH268880   5.034   6.451  11.174  0.1094 -0.1352 -0.1564
15822TIP3    H168881   4.957   6.435  11.120  1.5411  0.2491 -2.3741
15822TIP3    H268882   5.081   6.521  11.129  1.8935 -0.5263  1.0331
15823TIP3   OH268883   5.747   5.552   2.010  0.4622  0.7408  0.1149
15823TIP3    H168884   5.699   5.634   2.015 -0.8060 -0.0246  0.8365
15823TIP3    H268885   5.683   5.489   1.977  1.2181 -0.1039  0.2412
15824TIP3   OH268886   5.276   5.106   0.434 -0.3959 -0.6267  0.1669
15824TIP3    H168887   5.318   5.128   0.351 -0.5284 -1.3757 -0.1021
15824TIP3    H268888   5.346   5.066   0.486 -0.7531 -1.8183 -0.2585
15825TIP3   OH268889   1.630   3.920   1.123 -0.2360 -0.0669 -0.6960
15825TIP3    H168890   1.646   3.999   1.071 -0.4466  0.4513  0.0138
15825TIP3    H268891   1.550   3.939   1.172  1.0474  0.2520  1.3364
15826TIP3   OH268892   2.633   2.305  13.078 -0.1922  0.3985 -0.1122
15826TIP3    H168893   2.640   2.375  13.013  0.5710 -0.4970 -1.0187
15826TIP3    H268894   2.564   2.334  13.137 -2.1055  0.4645 -2.2832
15827TIP3   OH268895   4.347   3.297  12.697 -0.7343  0.0951 -0.3099
15827TIP3    H168896   4.276   3.355  12.725 -0.0587 -0.0418  1.6988
15827TIP3    H268897   4.420   3.318  12.754  0.3460 -0.9329 -1.2817
15828TIP3   OH268898   2.130   4.075   1.803 -0.5991 -0.3572 -0.3417
15828TIP3    H168899   2.204   4.040   1.752  0.5255  1.4136  0.0429
15828TIP3    H268900   2.078   4.124   1.739 -2.2160 -2.6609 -0.8944
15829TIP3   OH268901   1.379   5.861   4.419 -0.0824  0.0883 -0.2807
15829TIP3    H168902   1.319   5.788   4.433  0.6951 -0.2524  1.4461
15829TIP3    H268903   1.377   5.876   4.325 -1.2260 -1.3178 -0.5019
15830TIP3   OH268904   4.922   2.968   0.013 -0.0407 -0.3349 -0.0714
15830TIP3    H168905   4.887   2.948  -0.074 -2.1772  0.8476  0.4872
15830TIP3    H268906   4.964   2.886   0.041 -0.9896 -1.3034 -1.4041
15831TIP3   OH268907   1.451   1.215  12.543 -0.3040 -0.0001  0.2914
15831TIP3    H168908   1.393   1.251  12.475 -1.0034  0.6567  1.2185
15831TIP3    H268909   1.391   1.184  12.611  0.4278  0.4169  1.1317
15832TIP3   OH268910   4.152   4.361   2.727  0.0490  0.3557  0.8668
15832TIP3    H168911   4.165   4.424   2.798  0.6259 -0.7278  1.7531
15832TIP3    H268912   4.211   4.289   2.748  0.3730  0.0969 -0.8331
15833TIP3   OH268913   3.843   0.944  11.486 -0.2625  0.2119  0.0446
15833TIP3    H168914   3.924   0.990  11.507 -0.3031  0.3586 -0.1199
15833TIP3    H268915   3.835   0.877  11.554 -0.9781  1.4203  1.1685
15834TIP3   OH268916   0.550   0.657   0.305  0.3414 -0.8273 -0.0310
15834TIP3    H168917   0.544   0.748   0.333  0.1325 -1.5926  2.5767
15834TIP3    H268918   0.459   0.630   0.291  0.2256 -1.2856  1.5038
15835TIP3   OH268919   6.746   5.699   1.828 -0.4743 -0.0006  0.4809
15835TIP3    H168920   6.834   5.737   1.826 -0.7910  0.7440  0.3275
15835TIP3    H268921   6.733   5.665   1.739 -0.5565  0.4027  0.3358
15836TIP3   OH268922   0.614   5.743   2.162  0.5406 -0.4075  0.0115
15836TIP3    H168923   0.548   5.801   2.200  2.4796  0.5668  2.0122
15836TIP3    H268924   0.664   5.711   2.237  1.3650 -2.3619 -1.3409
15837TIP3   OH268925   0.262   6.470  12.711  0.4660 -0.3087 -0.0367
15837TIP3    H168926   0.211   6.466  12.630  0.9618 -1.3285 -0.2985
15837TIP3    H268927   0.353   6.459  12.683  0.5579 -1.6645  0.7371
15838TIP3   OH268928   0.329   0.083  15.820  0.1154  0.0786 -0.1805
15838TIP3    H168929   0.240   0.047  15.814  0.3135 -0.6069  0.7668
15838TIP3    H268930   0.320   0.175  15.794 -1.0319  0.2372  0.7332
15839TIP3   OH268931   2.748   4.149  15.166  0.4425 -0.4562  0.0218
15839TIP3    H168932   2.653   4.140  15.174  0.1835  2.2642  0.5223
15839TIP3    H268933   2.765   4.146  15.072 -0.2083 -0.3896 -0.0968
15840TIP3   OH268934   6.091   1.047  15.610  0.5128 -0.0395  0.1501
15840TIP3    H168935   6.048   1.041  15.525  0.8077 -1.9979  0.1277
15840TIP3    H268936   6.176   1.004  15.598 -0.0084 -1.6001  1.7773
15841TIP3   OH268937   5.049   6.442  12.783 -0.2899  0.2402  0.0553
15841TIP3    H168938   5.083   6.517  12.831 -0.1301 -1.0500  1.9953
15841TIP3    H268939   4.954   6.451  12.788 -0.2717  0.3900  0.1419
15842TIP3   OH268940   6.716   0.130   2.779 -0.5911  0.0818 -0.3066
15842TIP3    H168941   6.779   0.132   2.851  0.7750 -0.7215 -1.4541
15842TIP3    H268942   6.722   0.217   2.739 -1.2480  0.4791  0.4604
15843TIP3   OH268943   0.959   5.143  13.041 -0.2700 -0.5390 -0.4774
15843TIP3    H168944   0.933   5.130  13.133  0.5058 -0.6551 -0.2744
15843TIP3    H268945   1.014   5.221  13.042  0.1753 -0.8462 -0.7638
15844TIP3   OH268946   5.934   5.121  11.332 -0.1291  0.4978  0.1201
15844TIP3    H168947   5.998   5.051  11.325 -0.0238  0.4889  1.1445
15844TIP3    H268948   5.933   5.162  11.246 -0.8196 -1.3026 -0.7538
15845TIP3   OH268949   5.992   5.731  11.060  0.3468  0.9292 -0.1395
15845TIP3    H168950   5.997   5.806  11.119  2.8474 -1.1198  2.4245
15845TIP3    H268951   5.909   5.688  11.083  0.2625  1.3586  0.3653
15846TIP3   OH268952   5.530   2.837   3.047  0.1893  0.6086  0.2557
15846TIP3    H168953   5.454   2.779   3.039  0.4478  0.3405 -0.3409
15846TIP3    H268954   5.588   2.792   3.108  0.4537  0.1598 -0.3173
15847TIP3   OH268955   0.646   0.650  13.675  0.5137 -0.0227  0.0877
15847TIP3    H168956   0.638   0.580  13.610 -0.3148 -1.3507  1.5709
15847TIP3    H268957   0.676   0.726  13.625  0.3414 -1.1273 -1.7533
15848TIP3   OH268958   0.150   1.351   4.205 -0.1122  0.1743  0.1073
15848TIP3    H168959   0.145   1.360   4.110 -1.4898  2.4968  0.3521
15848TIP3    H268960   0.241   1.369   4.227 -0.1030  1.0131 -0.6405
15849TIP3   OH268961   4.252   1.604   2.855  0.4060  0.2353  0.2340
15849TIP3    H168962   4.281   1.521   2.817 -0.5911 -0.3749  0.7948
15849TIP3    H268963   4.288   1.671   2.796  1.8231 -0.5488  0.1792
15850TIP3   OH268964   0.155   6.044   5.510 -0.3093  0.6471 -0.7361
15850TIP3    H168965   0.122   6.030   5.598 -0.9504  1.2844 -0.8721
15850TIP3    H268966   0.099   5.991   5.454 -0.7116  1.2344 -0.8971
15851TIP3   OH268967   0.766   2.662  14.185 -0.4145  0.2430 -0.3138
15851TIP3    H168968   0.706   2.589  14.170 -0.9250  0.6462 -0.2460
15851TIP3    H268969   0.757   2.681  14.279 -2.1707  2.0314 -0.8254
15852TIP3   OH268970   3.650   0.721  14.502 -0.0924  0.1969  0.0445
15852TIP3    H168971   3.570   0.711  14.451 -0.0063  0.7022 -0.1938
15852TIP3    H268972   3.716   0.671  14.454  0.5917  2.6776 -1.7235
15853TIP3   OH268973   0.900   0.906  16.784  0.2560  0.1062 -0.1038
15853TIP3    H168974   0.994   0.904  16.771  0.4938  1.5911  1.2171
15853TIP3    H268975   0.886   0.857  16.865 -0.1417 -0.3189 -0.4262
15854TIP3   OH268976   5.936   1.027  16.393 -0.2371  0.1092  0.4247
15854TIP3    H168977   5.948   1.046  16.486  0.1276  0.9197  0.2141
15854TIP3    H268978   5.860   1.080  16.367 -0.7032 -0.5657  0.4016
15855TIP3   OH268979   6.556   4.012   2.945 -0.5884 -0.3839 -0.4238
15855TIP3    H168980   6.478   4.062   2.967 -1.1124 -0.9800 -0.8815
15855TIP3    H268981   6.523   3.939   2.891  0.3873 -0.1065 -1.4173
15856TIP3   OH268982   4.029   0.030  16.274 -0.1525 -0.2517  0.5613
15856TIP3    H168983   4.057   0.083  16.200  0.4880 -1.8272 -0.3508
15856TIP3    H268984   4.068   0.072  16.351  0.9831  0.1275 -0.2266
15857TIP3   OH268985   6.289   6.570   4.228 -0.2309 -0.4775  0.7260
15857TIP3    H168986   6.304   6.549   4.321  0.3156 -1.1683  0.4862
15857TIP3    H268987   6.363   6.626   4.204 -0.1427 -0.6475  0.5973
15858TIP3   OH268988   5.707   5.422   0.191  0.0912  0.1923 -0.6242
15858TIP3    H168989   5.750   5.396   0.273 -0.5226  0.3669 -0.2442
15858TIP3    H268990   5.758   5.497   0.160 -0.2064  0.6821  0.0596
15859TIP3   OH268991   4.783   5.040   1.992 -0.3544  0.0311  0.3939
15859TIP3    H168992   4.699   5.067   2.030 -0.7822  0.9017 -1.1628
15859TIP3    H268993   4.846   5.102   2.029 -0.7267  0.7156 -0.1164
15860TIP3   OH268994   4.989   3.421   1.423  0.3259 -0.0912 -0.5735
15860TIP3    H168995   5.011   3.489   1.359 -2.4444  1.2747 -0.1321
15860TIP3    H268996   4.990   3.465   1.507 -1.0716 -0.6772 -0.2336
15861TIP3   OH268997   0.799   5.543  12.879  0.0036 -0.0373 -0.0907
15861TIP3    H168998   0.720   5.536  12.825  0.4629  2.1083 -1.0917
15861TIP3    H268999   0.768   5.532  12.968 -1.2363 -0.5010 -0.5654
15862TIP3   OH269000   1.698   3.832   4.373  0.0473 -0.6273 -0.1378
15862TIP3    H169001   1.744   3.767   4.427 -1.4305 -1.5160  0.0704
15862TIP3    H269002   1.687   3.790   4.288 -0.3852 -0.4180 -0.1875
15863TIP3   OH269003   1.476   4.729  12.427 -0.0784 -0.1104 -0.0103
15863TIP3    H169004   1.551   4.754  12.374 -0.8489  0.3836 -0.8874
15863TIP3    H269005   1.464   4.802  12.487  0.8505 -0.7105  0.9170
15864TIP3   OH269006   0.111   5.988  11.052 -0.0256  0.0161 -0.0038
15864TIP3    H169007   0.039   5.930  11.027 -0.0898 -0.1865  0.6422
15864TIP3    H269008   0.072   6.076  11.055  0.2162  0.1870 -1.5934
15865TIP3   OH269009   6.767   0.132  13.265  0.5651  0.2731  0.3902
15865TIP3    H169010   6.794   0.110  13.355 -2.0072 -0.6445  0.9719
15865TIP3    H269011   6.709   0.207  13.276 -1.9687 -1.5370 -0.1801
15866TIP3   OH269012   3.314   4.202  11.703  0.0085 -0.0632 -0.2915
15866TIP3    H169013   3.407   4.198  11.724 -0.0136 -1.3813 -0.3984
15866TIP3    H269014   3.308   4.166  11.615 -0.4490  1.2424 -0.8047
15867TIP3   OH269015   3.347   4.601   1.953 -0.5265  0.6403 -0.2913
15867TIP3    H169016   3.313   4.565   2.034 -0.6213  0.9001 -0.2171
15867TIP3    H269017   3.411   4.536   1.923  0.2215  1.0134  0.4938
15868TIP3   OH269018   2.370   3.495  13.662 -0.6564 -0.1002  0.2884
15868TIP3    H169019   2.294   3.503  13.604 -0.1725  1.3851 -0.1800
15868TIP3    H269020   2.346   3.426  13.723 -3.7856  2.5298  2.2230
15869TIP3   OH269021   1.586   4.190   3.207 -0.2457  0.0909  0.0119
15869TIP3    H169022   1.585   4.230   3.294 -0.3202  1.0965 -0.4463
15869TIP3    H269023   1.661   4.230   3.163  1.3245 -2.2543  0.4559
15870TIP3   OH269024   6.705   5.518  14.707 -0.5918  0.0481 -0.1939
15870TIP3    H169025   6.725   5.513  14.800 -0.0187 -0.1039 -0.3212
15870TIP3    H269026   6.664   5.604  14.696 -0.8383 -0.0175  0.2332
15871TIP3   OH269027   1.538   3.759  13.119  0.2299 -0.0750  0.9989
15871TIP3    H169028   1.499   3.778  13.204 -2.0576 -0.8771  0.1735
15871TIP3    H269029   1.520   3.837  13.066 -0.5031 -0.5404  0.5474
15872TIP3   OH269030   3.852   6.710  14.811  0.3834  0.5344 -0.3616
15872TIP3    H169031   3.848   6.800  14.842 -2.1205 -0.2078  1.6262
15872TIP3    H269032   3.869   6.658  14.890  1.9786 -0.7435 -1.5129
15873TIP3   OH269033   3.043   4.632   4.241 -0.1131 -0.0691 -0.3868
15873TIP3    H169034   3.119   4.577   4.262  0.2037 -0.0496 -1.4317
15873TIP3    H269035   3.053   4.651   4.148 -1.0273  0.5255 -0.3666
15874TIP3   OH269036   5.181   3.080   2.398 -0.1154  0.1381 -0.3719
15874TIP3    H169037   5.158   3.143   2.329  0.6173  0.1364 -0.6188
15874TIP3    H269038   5.210   3.002   2.350 -2.2294 -0.8747 -0.0935
15875TIP3   OH269039   3.643   1.430   5.352 -0.2301  0.2235 -0.2563
15875TIP3    H169040   3.580   1.376   5.304 -0.7525 -1.7209  2.5242
15875TIP3    H269041   3.589   1.499   5.391 -0.5167 -0.7672  1.1534
15876TIP3   OH269042   2.269   3.705   2.040  0.0739  0.6122 -0.4689
15876TIP3    H169043   2.245   3.625   1.995 -1.8201 -0.4717  2.3345
15876TIP3    H269044   2.220   3.774   1.994 -1.4696 -0.4020 -0.3750
15877TIP3   OH269045   0.798   1.689   1.770 -0.1353 -0.2801 -0.0934
15877TIP3    H169046   0.759   1.602   1.766  0.4675 -0.6472  1.4921
15877TIP3    H269047   0.886   1.674   1.805  0.7641  0.7411 -1.8024
15878TIP3   OH269048   0.133   6.003  13.430 -0.4576  0.2969 -0.1808
15878TIP3    H169049   0.198   6.074  13.425 -0.1371 -0.0785 -1.7387
15878TIP3    H269050   0.138   5.972  13.520  2.8817 -0.9555 -0.7266
15879TIP3   OH269051   4.255   2.430  17.085  0.0665 -0.0785  0.4593
15879TIP3    H169052   4.321   2.400  17.147  0.2570 -0.6026  0.0134
15879TIP3    H269053   4.288   2.400  17.000 -0.1815  0.6393  0.1073
15880TIP3   OH269054   0.453   1.539  11.525  0.4708  0.2237  0.1844
15880TIP3    H169055   0.461   1.448  11.499 -1.6787 -0.4390  1.6671
15880TIP3    H269056   0.371   1.569  11.486  1.6858  1.8664 -1.1873
15881TIP3   OH269057   0.809   5.630  14.184  0.3742  0.4524  0.4891
15881TIP3    H169058   0.797   5.539  14.158 -0.7906  0.1078  2.1382
15881TIP3    H269059   0.850   5.672  14.108  2.4918 -1.8000  0.3114
15882TIP3   OH269060   2.489   0.068   3.471 -0.4806  0.0350  0.1241
15882TIP3    H169061   2.547   0.102   3.539 -0.0995 -0.4219  0.0341
15882TIP3    H269062   2.546   0.059   3.394 -1.3826  2.6065 -0.8899
15883TIP3   OH269063   2.786   0.456   6.570 -0.1959  0.3326 -0.5637
15883TIP3    H169064   2.811   0.364   6.564 -1.7564 -0.0606 -1.4345
15883TIP3    H269065   2.840   0.501   6.504  0.9569  0.1418  0.2398
15884TIP3   OH269066   6.147   1.530   2.933 -0.7197 -0.0056 -0.2524
15884TIP3    H169067   6.194   1.609   2.904 -0.4079  0.0346  0.3402
15884TIP3    H269068   6.165   1.465   2.865 -2.4861  0.9676 -1.6721
15885TIP3   OH269069   6.400   5.956  12.355  0.2759  0.7292  0.9325
15885TIP3    H169070   6.418   6.007  12.276 -1.7984  1.0013  0.5843
15885TIP3    H269071   6.369   5.871  12.323 -2.3485  1.4642  1.3510
15886TIP3   OH269072   3.816   3.929  14.751  0.1981  0.2320 -0.7801
15886TIP3    H169073   3.727   3.938  14.785  0.9774 -0.0277  1.3634
15886TIP3    H269074   3.860   4.010  14.776  2.1106 -1.8542  2.9983
15887TIP3   OH269075   6.590   2.711   4.479  0.3159  0.1582  0.0799
15887TIP3    H169076   6.519   2.766   4.444  1.5041  0.6377 -1.6726
15887TIP3    H269077   6.667   2.738   4.429  1.0148 -2.8132 -0.5462
15888TIP3   OH269078   0.553   4.182   4.639  0.3434  0.1413  0.6331
15888TIP3    H169079   0.531   4.267   4.602  0.2848  0.0802  0.5277
15888TIP3    H269080   0.638   4.161   4.601 -0.4871 -0.6985 -0.7934
15889TIP3   OH269081   3.135   1.606  10.224  0.5833 -0.1948 -0.3965
15889TIP3    H169082   3.155   1.697  10.244  0.1431  0.2086 -1.7273
15889TIP3    H269083   3.185   1.588  10.144 -0.6282 -0.6200 -1.0673
15890TIP3   OH269084   2.441   6.651   0.935 -0.6546 -0.4465  0.0449
15890TIP3    H169085   2.445   6.664   1.030 -3.3995  0.4405  0.0864
15890TIP3    H269086   2.433   6.739   0.899  2.2510 -0.6315 -1.1853
15891TIP3   OH269087   4.600   3.557   5.577  0.8753  0.3294 -0.3973
15891TIP3    H169088   4.593   3.652   5.563  0.6832  0.7180  2.0038
15891TIP3    H269089   4.691   3.543   5.602  0.8765 -0.0982 -0.6492
15892TIP3   OH269090   2.707   5.267   2.308 -0.2152 -0.0132 -0.1794
15892TIP3    H169091   2.618   5.277   2.342 -0.4110  1.8489 -1.1822
15892TIP3    H269092   2.758   5.335   2.352  0.5259 -0.4925 -0.2779
15893TIP3   OH269093   2.664   1.860  10.691 -1.0912 -0.2484 -0.4410
15893TIP3    H169094   2.622   1.815  10.617 -3.1113 -0.4311  0.7729
15893TIP3    H269095   2.670   1.952  10.663 -1.3584 -0.4194 -1.0595
15894TIP3   OH269096   3.869   2.341   4.971  0.2418 -0.0586  0.5354
15894TIP3    H169097   3.799   2.383   4.920 -0.9926 -2.0743  0.5218
15894TIP3    H269098   3.832   2.257   4.997  1.1772  0.5675  4.0546
15895TIP3   OH269099   5.460   5.528   4.969  0.8144  0.1892 -0.0672
15895TIP3    H169100   5.442   5.509   4.876 -0.5113  1.0436 -0.0022
15895TIP3    H269101   5.537   5.476   4.989  1.2632  0.1648 -1.7243
15896TIP3   OH269102   5.028   2.018  15.445  0.0176 -0.5484  0.0071
15896TIP3    H169103   4.976   2.080  15.496 -0.4231 -1.0757  0.2059
15896TIP3    H269104   5.081   2.073  15.387  0.1953  0.0397  0.7191
15897TIP3   OH269105   0.733   6.486   2.725 -0.1924 -0.2046  0.0453
15897TIP3    H169106   0.775   6.405   2.753 -0.2920 -0.7727 -1.3665
15897TIP3    H269107   0.666   6.502   2.791  0.0857 -1.0597  0.5545
15898TIP3   OH269108   4.122   0.511   5.262  0.0185 -0.1736  0.1012
15898TIP3    H169109   4.059   0.450   5.301  0.8616 -1.0015  0.1796
15898TIP3    H269110   4.097   0.596   5.297 -1.4865 -0.3894 -0.3860
15899TIP3   OH269111   6.651   3.589   3.832  0.7148 -0.2317  0.3451
15899TIP3    H169112   6.702   3.555   3.906 -0.7279 -1.4282  0.8065
15899TIP3    H269113   6.563   3.552   3.844  0.3800 -0.2098 -1.8014
15900TIP3   OH269114   6.462   0.487   2.135  0.1822 -0.0504  0.3460
15900TIP3    H169115   6.394   0.490   2.068  0.6374  1.6080 -0.0660
15900TIP3    H269116   6.503   0.401   2.125 -0.1316 -0.0269 -1.1370
15901TIP3   OH269117   3.137   6.585  10.439  0.0444 -0.2923  0.4465
15901TIP3    H169118   3.213   6.564  10.385 -2.0633 -1.4976 -2.2182
15901TIP3    H269119   3.099   6.500  10.461 -1.3187  0.3284  0.5435
15902TIP3   OH269120   4.864   6.025   1.417  0.5046 -0.2809  0.4067
15902TIP3    H169121   4.825   5.969   1.485  0.4858 -0.8750 -0.0886
15902TIP3    H269122   4.951   5.988   1.402 -0.4238 -1.7208 -1.6865
15903TIP3   OH269123   0.354   5.767   4.171  0.2640  0.4394  0.1154
15903TIP3    H169124   0.403   5.686   4.187 -1.4524 -0.6860 -0.1855
15903TIP3    H269125   0.264   5.745   4.192 -0.4644  1.8608 -1.3661
15904TIP3   OH269126   2.126   6.251   3.739  1.8567  0.2559 -0.2473
15904TIP3    H169127   2.192   6.319   3.747  2.9155 -0.8313  0.2710
15904TIP3    H269128   2.108   6.223   3.828  2.8606 -1.5139 -0.5886
15905TIP3   OH269129   4.366   3.626   0.382  0.6400  0.0889 -0.4369
15905TIP3    H169130   4.405   3.615   0.296  0.8283  0.2361 -0.3692
15905TIP3    H269131   4.291   3.566   0.382  0.4627  0.3095 -0.8108
15906TIP3   OH269132   4.861   2.707  13.631 -0.3546  0.5785  0.4212
15906TIP3    H169133   4.786   2.763  13.649  0.5368  1.5098  1.3401
15906TIP3    H269134   4.880   2.664  13.714  0.3270  0.5965  0.2774
15907TIP3   OH269135   4.641   1.883  11.795 -0.0397  0.3310  0.0060
15907TIP3    H169136   4.676   1.887  11.706 -0.7317 -0.2275 -0.2932
15907TIP3    H269137   4.547   1.895  11.785 -0.2116 -0.5040  0.5866
15908TIP3   OH269138   1.819   2.560   4.040 -0.6458 -0.1711  0.5215
15908TIP3    H169139   1.835   2.654   4.050 -2.0803  0.0145  1.1337
15908TIP3    H269140   1.792   2.531   4.127  0.7585 -1.3510  0.5829
15909TIP3   OH269141   0.885   3.555   0.982  0.1418  0.2717  0.7995
15909TIP3    H169142   0.957   3.603   1.023  0.0580 -0.1767  1.4869
15909TIP3    H269143   0.866   3.484   1.044  0.2131 -0.5973 -0.1680
15910TIP3   OH269144   5.727   3.090  11.480  0.5093  0.2739  0.2156
15910TIP3    H169145   5.801   3.148  11.462 -0.3307  0.9789 -1.0403
15910TIP3    H269146   5.655   3.150  11.501  0.3240 -0.4110  1.5737
15911TIP3   OH269147   1.080   3.847  13.304  0.3331  0.6186 -0.9103
15911TIP3    H169148   1.084   3.932  13.350 -1.5012 -1.5237  3.4882
15911TIP3    H269149   0.987   3.834  13.286 -0.0237 -2.3631  2.4934
15912TIP3   OH269150   1.229   1.250  15.088 -1.0169 -1.1345  0.6219
15912TIP3    H169151   1.192   1.267  15.175 -1.5417  1.1843 -0.0102
15912TIP3    H269152   1.324   1.247  15.102 -1.0261  0.3539  1.1355
15913TIP3   OH269153   6.782   3.819   1.701 -0.2956  0.4015  0.4883
15913TIP3    H169154   6.793   3.833   1.607 -0.2063 -0.5146  0.3534
15913TIP3    H269155   6.745   3.731   1.708 -2.5909  1.3794  1.2127
15914TIP3   OH269156   3.037   2.942  15.578  0.1515  0.1664  0.3504
15914TIP3    H169157   3.025   2.902  15.492  0.5845 -2.0219  1.2957
15914TIP3    H269158   2.994   2.882  15.639  0.7386  1.1747  1.7824
15915TIP3   OH269159   1.015   3.344   1.685 -0.1805 -0.5050  0.0796
15915TIP3    H169160   1.093   3.399   1.684  0.1951 -1.0435 -0.2786
15915TIP3    H269161   1.036   3.274   1.746 -0.9894  0.2127  1.2107
15916TIP3   OH269162   0.470   4.951   3.806  0.4618 -0.0734  0.6816
15916TIP3    H169163   0.525   4.879   3.777  0.5931  0.1836  0.3027
15916TIP3    H269164   0.417   4.913   3.876 -0.5457 -0.9545 -0.5337
15917TIP3   OH269165   0.894   1.281  11.803 -0.2861 -0.5347  0.1107
15917TIP3    H169166   0.934   1.218  11.743  0.1327 -0.4505  0.2968
15917TIP3    H269167   0.843   1.340  11.747  0.3820 -0.2467 -0.1954
15918TIP3   OH269168   5.566   1.044  10.663 -0.1311 -0.6137 -0.0682
15918TIP3    H169169   5.500   1.023  10.597  0.7253  2.4802 -2.0208
15918TIP3    H269170   5.646   1.003  10.630 -0.2395 -1.2425  0.4231
15919TIP3   OH269171   5.035   3.372   4.147 -0.1197  0.1695  0.5011
15919TIP3    H169172   5.042   3.283   4.115  1.2737  0.0367  1.1559
15919TIP3    H269173   4.949   3.376   4.188 -0.5877 -0.5801 -0.3944
15920TIP3   OH269174   4.394   2.127  13.106  0.3173  0.4717  0.4424
15920TIP3    H169175   4.308   2.087  13.096  0.7300 -0.0278 -1.5164
15920TIP3    H269176   4.398   2.155  13.197 -1.3529 -0.8005  0.9357
15921TIP3   OH269177   1.652   0.457  13.913 -0.0023  0.7332  0.0102
15921TIP3    H169178   1.661   0.550  13.894 -0.1745  0.8820  0.6774
15921TIP3    H269179   1.594   0.452  13.988 -0.0781  0.0809 -0.0832
15922TIP3   OH269180   5.586   2.093  13.953 -0.2174 -0.2806 -0.1877
15922TIP3    H169181   5.550   2.041  14.025 -0.0422 -1.5456 -1.0110
15922TIP3    H269182   5.572   2.040  13.875  2.1472 -0.1707 -0.7228
15923TIP3   OH269183   2.134   6.704  12.883 -0.1549 -0.3775 -0.0912
15923TIP3    H169184   2.180   6.750  12.812  0.9033 -0.7686  0.3371
15923TIP3    H269185   2.060   6.761  12.904  0.9089  0.9530  0.1599
15924TIP3   OH269186   5.038   3.248  15.424  0.3615 -0.3097 -0.2619
15924TIP3    H169187   5.058   3.204  15.506  0.4520  0.0776 -0.0766
15924TIP3    H269188   5.112   3.307  15.410  1.0707 -1.4284 -1.3645
15925TIP3   OH269189   4.382   3.817  15.529  0.0552 -0.3133  0.2902
15925TIP3    H169190   4.370   3.821  15.624 -1.0354  0.8046  0.1129
15925TIP3    H269191   4.400   3.725  15.511 -1.5031 -0.8412  1.3723
15926TIP3   OH269192   1.737   4.971   0.183 -0.2399  0.1009 -0.0726
15926TIP3    H169193   1.755   5.065   0.189  0.5383 -0.0800  0.3500
15926TIP3    H269194   1.804   4.929   0.236  0.7001 -0.8380 -1.9663
15927TIP3   OH269195   5.512   0.689   0.422  0.1428  0.3183 -0.2171
15927TIP3    H169196   5.584   0.720   0.368  0.3539  0.6073  0.2339
15927TIP3    H269197   5.498   0.598   0.394  0.2701  0.4609 -0.7386
15928TIP3   OH269198   5.409   4.917   0.645  0.4457  0.0004 -0.0213
15928TIP3    H169199   5.447   4.899   0.731  0.8628  4.1910  0.7811
15928TIP3    H269200   5.449   4.852   0.588  1.3211 -1.9198  2.6325
15929TIP3   OH269201   0.303   1.690  16.260 -0.1994  0.6726  0.3581
15929TIP3    H169202   0.341   1.646  16.336 -0.0663 -0.1135 -0.1574
15929TIP3    H269203   0.225   1.639  16.239 -0.4987  1.1674  0.2558
15930TIP3   OH269204   2.158   6.311  15.577 -0.4679  0.8165 -0.1754
15930TIP3    H169205   2.211   6.353  15.509 -2.5672  1.5868 -1.3819
15930TIP3    H269206   2.211   6.237  15.607  1.4327  1.7925 -1.0684
15931TIP3   OH269207   2.962   4.673  12.335  0.1449 -0.1989 -0.0237
15931TIP3    H169208   2.976   4.690  12.428 -0.1644 -1.1789  0.2122
15931TIP3    H269209   3.047   4.689  12.294  0.3286  0.0498  0.4534
15932TIP3   OH269210   4.001   4.727  13.138 -0.3336  0.6052 -0.3873
15932TIP3    H169211   3.958   4.789  13.078 -1.1032  0.4535 -0.0047
15932TIP3    H269212   3.930   4.668  13.164  1.1693 -2.9998 -3.9342
15933TIP3   OH269213   4.336   5.534   5.706  0.4104  0.1906  0.0696
15933TIP3    H169214   4.380   5.563   5.626  0.3439  0.7654  0.2377
15933TIP3    H269215   4.299   5.614   5.743 -0.7409 -0.2824 -0.0383
15934TIP3   OH269216   4.240   6.502  11.067  0.0707  0.4626 -0.0853
15934TIP3    H169217   4.277   6.589  11.084  2.6760 -0.4320 -0.9848
15934TIP3    H269218   4.208   6.507  10.977  0.6570  0.3556 -0.3029
15935TIP3   OH269219   6.504   3.793   2.777 -0.4625  0.4935  0.2421
15935TIP3    H169220   6.430   3.756   2.730 -0.5298  1.2178 -0.2137
15935TIP3    H269221   6.567   3.721   2.781 -0.6402  0.2861 -0.5537
15936TIP3   OH269222   2.654   5.176   1.061  0.2173 -0.7015  0.3650
15936TIP3    H169223   2.663   5.094   1.012  1.4687  1.0999 -2.5240
15936TIP3    H269224   2.727   5.229   1.032 -0.4159  1.3451  2.4351
15937TIP3   OH269225   6.203   2.077   2.169 -0.1885 -0.0667 -0.3646
15937TIP3    H169226   6.182   2.160   2.213  0.0278  0.3796 -1.0871
15937TIP3    H269227   6.261   2.103   2.098 -2.4376 -0.4611 -2.4120
15938TIP3   OH269228   4.808   3.187  11.726  0.2830 -0.3311  0.0060
15938TIP3    H169229   4.727   3.222  11.762 -0.1801 -0.7224 -0.6495
15938TIP3    H269230   4.849   3.261  11.681 -0.0006 -0.2847 -0.1734
15939TIP3   OH269231   1.245   2.244  15.436  0.2234  0.0688  0.2092
15939TIP3    H169232   1.201   2.266  15.518  0.4325 -0.3429  0.4339
15939TIP3    H269233   1.179   2.263  15.368  0.2012  0.8067  0.4368
15940TIP3   OH269234   2.852   3.360  15.071 -0.4089  0.3783  0.1300
15940TIP3    H169235   2.872   3.334  14.982  0.0278 -0.1793  0.3875
15940TIP3    H269236   2.816   3.281  15.112 -1.5387  0.9064  0.1615
15941TIP3   OH269237   5.954   0.926  14.254  0.1316  0.2880 -0.1173
15941TIP3    H169238   5.950   0.928  14.350 -0.8066  1.0136 -0.1701
15941TIP3    H269239   5.956   0.833  14.232 -3.2739  0.0114  0.4734
15942TIP3   OH269240   4.629   0.198  15.977 -0.2225  0.3040 -0.1695
15942TIP3    H169241   4.660   0.270  15.922 -2.1840  1.0005 -0.4247
15942TIP3    H269242   4.693   0.191  16.047  0.1906  2.0501 -0.3511
15943TIP3   OH269243   2.345   6.771  11.676 -0.6517  0.1224 -0.3994
15943TIP3    H169244   2.398   6.748  11.753 -0.1028  0.1558 -0.7638
15943TIP3    H269245   2.409   6.785  11.606 -1.0420  1.6319 -0.4727
15944TIP3   OH269246   2.754   2.869  13.970 -0.0079 -0.2715 -0.0573
15944TIP3    H169247   2.814   2.849  13.897  0.7803 -2.9400  1.2651
15944TIP3    H269248   2.671   2.829  13.944  0.4925 -1.9254  0.8367
15945TIP3   OH269249   0.214   0.612   2.145  0.0398  1.0624  0.5665
15945TIP3    H169250   0.142   0.671   2.122  0.1647 -0.1540 -3.3788
15945TIP3    H269251   0.182   0.525   2.121  2.6443  0.4618 -1.0322
15946TIP3   OH269252   3.297   0.840  15.626  0.1290  0.5138  0.1782
15946TIP3    H169253   3.322   0.763  15.678 -1.1656  0.3870  0.6406
15946TIP3    H269254   3.365   0.904  15.644  0.5979 -0.1263  0.7158
15947TIP3   OH269255   5.523   0.056  16.716  0.0286  0.4785 -0.0829
15947TIP3    H169256   5.467   0.133  16.702 -0.8834  0.0726  1.2741
15947TIP3    H269257   5.468  -0.006  16.764  0.8239 -0.9656 -1.0043
15948TIP3   OH269258   0.103   3.005   0.199 -0.0864 -0.1139  0.3936
15948TIP3    H169259   0.127   2.983   0.289 -0.4992 -2.4292 -0.0428
15948TIP3    H269260   0.008   2.993   0.196 -0.0034 -0.5827 -0.4919
15949TIP3   OH269261   1.005   0.591   5.380 -0.1676 -0.2496  0.2802
15949TIP3    H169262   0.930   0.556   5.428 -0.1030  0.6701  1.0768
15949TIP3    H269263   1.052   0.514   5.349 -1.3745 -0.8305 -0.1184
15950TIP3   OH269264   2.841   5.167  16.180  0.3462  0.3673 -0.1665
15950TIP3    H169265   2.890   5.091  16.212  0.0265  0.2244 -0.0177
15950TIP3    H269266   2.788   5.133  16.107  0.1830  0.4387 -0.0815
15951TIP3   OH269267   0.975   1.981  10.883 -0.1608  0.2383 -0.0012
15951TIP3    H169268   0.961   1.986  10.789 -1.0077  0.8021  0.1521
15951TIP3    H269269   1.034   1.906  10.895 -2.8239 -2.0480 -0.6905
15952TIP3   OH269270   1.075   4.098   5.273  0.0430  0.1249  0.0875
15952TIP3    H169271   1.115   4.029   5.325  1.7091  0.2690 -0.9605
15952TIP3    H269272   1.014   4.052   5.215 -1.3112 -0.0991  1.6252
15953TIP3   OH269273   4.964   6.593   5.267 -0.3760  0.5964 -0.1721
15953TIP3    H169274   4.979   6.646   5.345  0.9195 -0.1352  0.0882
15953TIP3    H269275   4.948   6.658   5.198  2.2317  1.4157 -0.0810
15954TIP3   OH269276   5.364   2.279  15.158 -0.6633  0.4970 -0.3038
15954TIP3    H169277   5.413   2.344  15.208 -1.6899  1.8102 -0.9715
15954TIP3    H269278   5.431   2.217  15.127  0.3247  1.2327  0.3244
15955TIP3   OH269279   4.289   6.556  15.149  0.2357  0.1663 -0.0122
15955TIP3    H169280   4.343   6.484  15.117  1.4500  0.5754  1.0478
15955TIP3    H269281   4.336   6.588  15.227 -0.6554  1.6367 -0.0607
15956TIP3   OH269282   0.414   4.126   2.287 -0.3085  0.1050  0.1831
15956TIP3    H169283   0.423   4.221   2.284 -3.4228  0.5152  1.1180
15956TIP3    H269284   0.340   4.108   2.229  0.5231 -1.7933 -0.3020
15957TIP3   OH269285   6.069   5.628   0.340 -0.1146 -0.3659  0.1346
15957TIP3    H169286   6.133   5.558   0.330 -0.5448 -0.7712  0.1640
15957TIP3    H269287   6.114   5.697   0.388  0.8200  0.0532 -1.2974
15958TIP3   OH269288   0.369   4.392   1.236 -0.2158 -0.2005  0.3457
15958TIP3    H169289   0.415   4.394   1.152 -0.0486  0.5636  0.4521
15958TIP3    H269290   0.277   4.380   1.214 -0.1699 -0.0012  0.0552
15959TIP3   OH269291   5.808   1.142   5.274  0.1786 -0.6080 -0.2143
15959TIP3    H169292   5.791   1.101   5.189  1.2009 -1.9384  0.2085
15959TIP3    H269293   5.899   1.171   5.269  0.3736 -1.0788  0.5812
15960TIP3   OH269294   2.561   1.112  17.150  0.5696  0.0773 -0.2835
15960TIP3    H169295   2.637   1.158  17.184  0.8568 -0.5175 -0.1240
15960TIP3    H269296   2.521   1.071  17.226  0.0589  0.4282 -0.3581
15961TIP3   OH269297   4.514   5.361   3.723  0.6156  0.3085 -0.1054
15961TIP3    H169298   4.532   5.326   3.811 -2.3682 -1.4036 -0.1099
15961TIP3    H269299   4.423   5.391   3.727  1.2306  2.6061 -1.9086
15962TIP3   OH269300   5.963   2.463   1.019  0.0102  0.3407 -0.6887
15962TIP3    H169301   6.050   2.455   1.058  0.3457  0.5264 -1.3919
15962TIP3    H269302   5.921   2.378   1.036 -0.4181  0.9511  1.4184
15963TIP3   OH269303   2.443   5.652  11.741 -0.7046 -0.0638 -0.0425
15963TIP3    H169304   2.402   5.587  11.798 -1.3054 -0.0661 -0.4749
15963TIP3    H269305   2.380   5.665  11.670 -0.5180  0.8695 -0.0425
15964TIP3   OH269306   0.289   5.039   0.090 -0.1386 -0.0073  0.5990
15964TIP3    H169307   0.360   5.042   0.155  0.3225  0.5759  0.0809
15964TIP3    H269308   0.322   5.092   0.017 -1.4101  0.8824  0.6498
15965TIP3   OH269309   3.945   4.366   4.108 -0.2071  0.2435  0.0746
15965TIP3    H169310   4.012   4.412   4.057  1.1546 -1.1494  0.5625
15965TIP3    H269311   3.874   4.351   4.045  0.6656  0.2325 -0.9321
15966TIP3   OH269312   2.747   1.754   2.280 -0.0801 -0.1442 -0.5113
15966TIP3    H169313   2.691   1.695   2.330 -0.2325  1.2416  1.0048
15966TIP3    H269314   2.702   1.839   2.284  1.1223  0.5246 -0.9503
15967TIP3   OH269315   3.768   1.782  14.988 -0.2449  0.0929  0.7186
15967TIP3    H169316   3.766   1.748  15.078  2.3819  0.8862  1.1320
15967TIP3    H269317   3.729   1.713  14.935 -3.2115  0.2239  2.6456
15968TIP3   OH269318   3.918   5.005  12.976 -0.2871 -1.0867 -0.2420
15968TIP3    H169319   3.831   4.995  13.014  0.1617 -0.9823  0.8289
15968TIP3    H269320   3.912   5.087  12.926 -0.0656  0.3125  1.9577
15969TIP3   OH269321   0.732   6.002  13.521  0.1297  0.2996  0.6663
15969TIP3    H169322   0.650   5.960  13.494 -0.2467  1.3601  0.1427
15969TIP3    H269323   0.789   5.929  13.546 -0.3350 -0.5735 -0.7468
15970TIP3   OH269324   2.636   4.641   4.147 -0.1795  0.3635  0.1453
15970TIP3    H169325   2.648   4.721   4.197  1.0919  0.4317 -0.2299
15970TIP3    H269326   2.624   4.573   4.213 -2.7237  1.0553  0.4380
15971TIP3   OH269327   1.084   0.399  14.447  0.2401 -0.0294  0.7764
15971TIP3    H169328   1.118   0.337  14.512 -0.4177 -0.6956  0.5049
15971TIP3    H269329   1.145   0.472  14.448  0.6357 -0.3690  1.6232
15972TIP3   OH269330   5.458   0.316  13.572 -0.2037 -0.0459  0.9870
15972TIP3    H169331   5.536   0.372  13.574 -0.6745  0.5879  1.4586
15972TIP3    H269332   5.385   0.376  13.584 -0.8208 -0.5496 -0.1808
15973TIP3   OH269333   4.739   1.499  10.638 -0.6700 -0.1584  0.2705
15973TIP3    H169334   4.696   1.473  10.719 -0.1915 -0.7836  0.3322
15973TIP3    H269335   4.687   1.459  10.569 -2.4212  2.2913  0.1364
15974TIP3   OH269336   0.614   3.615   6.264  0.3288  0.5950 -0.2162
15974TIP3    H169337   0.686   3.679   6.266  0.4556  0.4858 -1.1518
15974TIP3    H269338   0.643   3.545   6.323  1.3096  0.2243 -1.1071
15975TIP3   OH269339   2.081   3.665   5.784  0.5089 -0.8220 -0.5535
15975TIP3    H169340   2.104   3.601   5.852  0.1620 -1.6377 -1.1878
15975TIP3    H269341   2.137   3.740   5.801 -0.1222 -0.7086  1.1245
15976TIP3   OH269342   0.611   2.560  13.347 -0.0683 -0.1195  0.2125
15976TIP3    H169343   0.677   2.491  13.345 -2.6442 -2.6657  0.6974
15976TIP3    H269344   0.564   2.546  13.429 -3.4557 -0.5439 -1.7215
15977TIP3   OH269345   0.535   5.043   5.435  0.1234 -0.0615 -0.0699
15977TIP3    H169346   0.558   5.135   5.449  1.3546 -0.3350 -0.2571
15977TIP3    H269347   0.618   4.997   5.435 -0.3831 -1.0035 -1.2704
15978TIP3   OH269348   0.531   2.721  16.200  0.3321 -0.2352 -0.1124
15978TIP3    H169349   0.496   2.706  16.113  0.8412 -2.8568  0.0869
15978TIP3    H269350   0.609   2.774  16.186 -0.5104  0.7601 -1.0916
15979TIP3   OH269351   3.397   3.414   1.201 -0.0192  0.5979  0.1418
15979TIP3    H169352   3.329   3.405   1.268  0.0381 -0.3880  0.0754
15979TIP3    H269353   3.394   3.506   1.175 -1.0264  0.6524  0.4538
15980TIP3   OH269354   0.297   5.951   1.613 -0.1500  0.4290  0.5432
15980TIP3    H169355   0.370   6.013   1.627  1.2272 -1.0419  0.0577
15980TIP3    H269356   0.239   5.996   1.552 -0.0962  1.9829  1.6083
15981TIP3   OH269357   0.877   4.621   4.469 -0.2540  0.1195  0.0512
15981TIP3    H169358   0.811   4.557   4.445 -0.8182  0.6324  0.2165
15981TIP3    H269359   0.959   4.572   4.473 -0.9216 -0.9028  1.6444
15982TIP3   OH269360   1.580   0.104   0.532  0.3947 -0.0325  0.2809
15982TIP3    H169361   1.664   0.061   0.549  1.0725  2.1082  2.8181
15982TIP3    H269362   1.603   0.178   0.475 -0.3099 -1.3714 -1.7560
15983TIP3   OH269363   3.665   2.995  11.671 -0.2959  0.0105  0.5893
15983TIP3    H169364   3.587   3.035  11.633  0.6041  0.0276 -1.2720
15983TIP3    H269365   3.647   2.901  11.670 -0.3007  0.0167  0.1937
15984TIP3   OH269366   5.106   4.617  15.777 -0.4758  0.5342  0.0164
15984TIP3    H169367   5.076   4.589  15.690 -0.6412 -2.6294  1.0371
15984TIP3    H269368   5.200   4.630  15.767 -0.4156 -0.2887 -0.5288
15985TIP3   OH269369   5.761   4.375   3.295  1.0104 -0.0963  0.3618
15985TIP3    H169370   5.808   4.370   3.378  1.9157  2.4509  0.0468
15985TIP3    H269371   5.810   4.317   3.237 -0.2259 -2.6983  1.8344
15986TIP3   OH269372   4.669   6.373  15.286 -0.4866 -0.1907 -0.2762
15986TIP3    H169373   4.731   6.347  15.354 -1.2478 -2.6745 -0.4858
15986TIP3    H269374   4.725   6.396  15.211  0.3083  1.5654  0.8438
15987TIP3   OH269375   1.292   2.270  16.087  0.2870  0.0627 -0.2528
15987TIP3    H169376   1.216   2.266  16.028 -0.1907  0.0323  0.3612
15987TIP3    H269377   1.331   2.356  16.070 -0.6414  0.6095  0.3596
15988TIP3   OH269378   2.181   5.489   2.260  0.1826 -0.0763 -0.1066
15988TIP3    H169379   2.094   5.456   2.240  1.1100 -2.1797 -0.7360
15988TIP3    H269380   2.170   5.584   2.266 -1.9883 -0.2639 -0.9415
15989TIP3   OH269381   5.281   0.452   0.840  0.2352 -0.3975  0.3628
15989TIP3    H169382   5.238   0.391   0.900  1.6909 -0.3093  1.5080
15989TIP3    H269383   5.307   0.526   0.894  1.5037 -0.2820 -0.3647
15990TIP3   OH269384   0.572   0.726  16.784  0.0906  0.1562 -0.0014
15990TIP3    H169385   0.655   0.719  16.737 -0.4700  0.0249 -1.0006
15990TIP3    H269386   0.596   0.754  16.872  1.1519  0.6327 -0.4323
15991TIP3   OH269387   3.094   2.116   0.385  0.2019  0.4157  0.3406
15991TIP3    H169388   3.172   2.164   0.355  0.6216  0.5426  1.6043
15991TIP3    H269389   3.129   2.032   0.416 -0.1700  0.4677  0.8983
15992TIP3   OH269390   1.169   3.553   2.596 -0.1490 -0.8709 -0.8433
15992TIP3    H169391   1.251   3.602   2.583 -0.4410 -0.2374 -0.3732
15992TIP3    H269392   1.178   3.515   2.683 -0.3870 -0.7212 -0.7508
15993TIP3   OH269393   6.394   5.951  14.729  0.4035  0.4875  0.0019
15993TIP3    H169394   6.447   6.029  14.749 -1.4743  2.1005 -1.1690
15993TIP3    H269395   6.337   5.940  14.805  0.3728  0.5068 -0.0196
15994TIP3   OH269396   0.712   3.693  16.880 -0.3995 -0.1537  0.0257
15994TIP3    H169397   0.683   3.643  16.957  0.4574 -2.3489 -1.0132
15994TIP3    H269398   0.631   3.724  16.839 -0.8717  0.7212  1.6058
15995TIP3   OH269399   2.430   2.668   6.122  0.0812 -0.5866  0.8336
15995TIP3    H169400   2.438   2.739   6.185 -1.4905 -0.4533  0.9119
15995TIP3    H269401   2.508   2.615   6.135  1.2764  1.1156  0.7777
15996TIP3   OH269402   4.231   4.461  15.303 -0.0675  0.0835  0.2237
15996TIP3    H169403   4.250   4.494  15.391  0.6318  1.0862 -0.2920
15996TIP3    H269404   4.286   4.383  15.294 -0.3714 -0.1975  0.7842
15997TIP3   OH269405   2.154   4.616   5.802  0.5450  0.1759  0.2833
15997TIP3    H169406   2.236   4.600   5.848  0.8461  1.4316  0.2156
15997TIP3    H269407   2.162   4.706   5.770 -0.7538  0.2231  0.0575
15998TIP3   OH269408   4.978   3.647  15.232  0.2465 -0.4224 -0.3749
15998TIP3    H169409   4.943   3.603  15.155  1.7425 -1.6413 -0.3725
15998TIP3    H269410   5.062   3.682  15.203  0.7634 -0.7888  0.6714
15999TIP3   OH269411   5.791   1.875   3.492  0.4049  0.3306  0.1599
15999TIP3    H169412   5.840   1.954   3.470  0.8205 -0.0047 -0.1033
15999TIP3    H269413   5.817   1.811   3.427 -2.8636  1.1078 -2.0629
16000TIP3   OH269414   0.522   5.580  12.762 -0.4465  0.7275 -0.2594
16000TIP3    H169415   0.576   5.636  12.706  1.9053 -1.2071 -0.0251
16000TIP3    H269416   0.542   5.491  12.733 -1.3197 -0.1735  1.8021
16001TIP3   OH269417   6.250   0.027   3.598  0.3118  0.3224  0.0711
16001TIP3    H169418   6.245   0.000   3.690 -1.1323 -0.1906 -0.1510
16001TIP3    H269419   6.161   0.055   3.576  0.3533 -0.7970 -1.5535
16002TIP3   OH269420   4.069   4.677   4.901 -0.7038 -0.3547 -0.5283
16002TIP3    H169421   4.137   4.683   4.833 -0.4692 -0.0866 -0.2717
16002TIP3    H269422   4.055   4.584   4.914  0.6293 -0.4291  0.4317
16003TIP3   OH269423   4.279   0.218  10.438  0.1581 -0.0481 -0.2231
16003TIP3    H169424   4.374   0.216  10.422  0.8104  0.2632  3.1549
16003TIP3    H269425   4.263   0.307  10.471 -1.1913 -0.3027 -0.1961
16004TIP3   OH269426   6.042   4.915  17.001  0.2621  0.6839  0.5305
16004TIP3    H169427   6.082   4.837  16.963 -0.6065  0.4355  0.0968
16004TIP3    H269428   6.036   4.977  16.929 -0.3058  0.6441  0.5411
16005TIP3   OH269429   0.562   5.901  12.553 -0.7242  0.0789 -0.3239
16005TIP3    H169430   0.641   5.928  12.600 -0.0850 -0.1215 -1.2542
16005TIP3    H269431   0.490   5.941  12.602 -0.2798 -2.1383  2.2353
16006TIP3   OH269432   0.421   1.311  16.437 -0.2254 -0.0681 -0.9254
16006TIP3    H169433   0.463   1.336  16.354  0.5624 -0.4105 -0.6401
16006TIP3    H269434   0.493   1.279  16.491 -0.6893  0.4402  0.0086
16007TIP3   OH269435   3.175   2.705   1.246 -0.4059 -0.3900  0.4042
16007TIP3    H169436   3.251   2.755   1.276  0.6889 -0.5962 -1.9300
16007TIP3    H269437   3.108   2.771   1.229 -0.5928 -0.1623  2.0161
16008TIP3   OH269438   5.148   5.604   3.567 -0.0671  0.3088 -0.4153
16008TIP3    H169439   5.135   5.528   3.511 -0.9578  0.1600 -0.0160
16008TIP3    H269440   5.242   5.622   3.562  0.1812 -0.9428 -0.3443
16009TIP3   OH269441   1.094   4.764   5.076  0.1052 -0.0698  0.0658
16009TIP3    H169442   1.186   4.741   5.062  0.4158  0.6647  0.9087
16009TIP3    H269443   1.057   4.687   5.120  0.3651 -0.2633 -0.0495
16010TIP3   OH269444   4.853   3.430  15.695 -0.0571 -0.9987 -0.8844
16010TIP3    H169445   4.787   3.433  15.764  0.1326 -1.3770 -0.6842
16010TIP3    H269446   4.808   3.462  15.617 -1.0704 -3.1105 -1.2242
16011TIP3   OH269447   4.808   2.511   4.764  0.4900 -0.3184 -0.5373
16011TIP3    H169448   4.713   2.521   4.756  0.5353 -0.6063 -1.4989
16011TIP3    H269449   4.820   2.460   4.844 -0.2351 -1.5366 -1.2015
16012TIP3   OH269450   3.018   1.502  13.805 -0.2121 -0.2790  0.6859
16012TIP3    H169451   2.966   1.441  13.858 -0.1887 -0.6801  0.2598
16012TIP3    H269452   3.064   1.557  13.868 -1.6190  0.4794  1.0601
16013TIP3   OH269453   2.540   1.667   6.061 -0.1657  0.5657 -0.3181
16013TIP3    H169454   2.471   1.722   6.026  0.4269  2.4596  1.4073
16013TIP3    H269455   2.620   1.720   6.055  0.5961 -0.4592  0.4711
16014TIP3   OH269456   3.148   2.984  11.575 -0.1363  0.4411  0.0822
16014TIP3    H169457   3.161   3.044  11.501  1.1909 -0.5878 -0.5542
16014TIP3    H269458   3.102   3.036  11.640 -1.0351  1.4741 -1.3416
16015TIP3   OH269459   4.100   1.119  14.496  0.0738 -0.0981 -0.3350
16015TIP3    H169460   4.157   1.129  14.572 -1.8879  1.0055  1.0509
16015TIP3    H269461   4.158   1.094  14.425  1.8559 -2.1267  1.7372
16016TIP3   OH269462   1.542   3.489   1.444 -0.0911 -0.7261  0.0342
16016TIP3    H169463   1.564   3.532   1.361  0.0536 -1.4976 -0.3338
16016TIP3    H269464   1.545   3.395   1.424 -0.4218 -0.9092  0.8222
16017TIP3   OH269465   6.294   1.399  13.902 -0.5998  0.0722 -0.1847
16017TIP3    H169466   6.218   1.399  13.962 -0.1315  0.2238  0.4127
16017TIP3    H269467   6.274   1.330  13.839 -1.8433  0.9957 -0.8135
16018TIP3   OH269468   2.771   5.401   4.285  0.3284 -0.3932  0.0694
16018TIP3    H169469   2.789   5.307   4.279 -0.3523 -0.4127 -2.1899
16018TIP3    H269470   2.676   5.407   4.293 -0.0037  0.1664 -3.4695
16019TIP3   OH269471   0.793   2.332  11.667 -0.3260 -0.0643  0.3485
16019TIP3    H169472   0.735   2.306  11.595  0.6968 -0.4170 -0.3513
16019TIP3    H269473   0.788   2.259  11.728  0.7311 -0.8901 -0.5322
16020TIP3   OH269474   1.452   0.909   1.022  0.1470 -0.2945  0.0749
16020TIP3    H169475   1.537   0.950   1.004  0.6815 -1.6329 -0.5206
16020TIP3    H269476   1.390   0.960   0.970  0.9398 -0.8525 -1.4326
16021TIP3   OH269477   2.209   5.236  13.185 -0.0466 -0.1752 -0.0471
16021TIP3    H169478   2.242   5.154  13.148  0.1076 -0.3123  0.3870
16021TIP3    H269479   2.182   5.288  13.109 -0.6680 -0.8521 -0.3024
16022TIP3   OH269480   4.753   4.628   6.080 -0.2660 -0.2735  0.1878
16022TIP3    H169481   4.698   4.643   6.156 -1.4871 -0.0878 -0.7074
16022TIP3    H269482   4.731   4.539   6.052  0.4145 -0.4602  0.2456
16023TIP3   OH269483   2.774   6.318  11.652 -0.0515 -0.4489  0.0389
16023TIP3    H169484   2.831   6.384  11.614  0.7699 -1.5167 -0.6138
16023TIP3    H269485   2.832   6.268  11.711 -1.0738  0.5644  1.9593
16024TIP3   OH269486   6.284   0.790  15.550 -0.2837  0.5735  0.0724
16024TIP3    H169487   6.336   0.839  15.615  0.9977  0.8418 -1.1308
16024TIP3    H269488   6.193   0.804  15.577  0.1882  1.4010  1.3099
16025TIP3   OH269489   0.551   2.146  15.723  0.5825 -0.7848 -0.5948
16025TIP3    H169490   0.479   2.093  15.688 -0.0571 -0.0000 -0.4763
16025TIP3    H269491   0.545   2.135  15.818  0.3850 -0.4154 -0.5643
16026TIP3   OH269492   3.558   3.192  11.926  0.8065 -0.2818  0.0023
16026TIP3    H169493   3.598   3.245  11.858 -0.4493  0.0815 -0.4571
16026TIP3    H269494   3.481   3.242  11.954 -0.1088 -1.6094 -0.0858
16027TIP3   OH269495   4.736   4.350   6.014 -0.8462 -0.3621 -0.6134
16027TIP3    H169496   4.648   4.340   6.050 -1.2780  0.3340 -1.4614
16027TIP3    H269497   4.722   4.366   5.920  0.1937 -0.5013 -0.8008
16028TIP3   OH269498   3.597   2.105  10.664  0.0372  0.6041 -0.6701
16028TIP3    H169499   3.544   2.167  10.614  0.4929  1.5532  0.0017
16028TIP3    H269500   3.533   2.052  10.712 -0.3190  2.1920  0.6735
16029TIP3   OH269501   1.679   6.129   3.015  0.3449 -0.0995  0.3684
16029TIP3    H169502   1.666   6.094   3.103  1.7689  0.0385  0.6459
16029TIP3    H269503   1.755   6.187   3.023  0.0358  0.4927 -0.7943
16030TIP3   OH269504   1.380   4.606   3.347 -0.2580 -0.4005 -0.7390
16030TIP3    H169505   1.382   4.512   3.327  0.7472 -0.1081 -2.0857
16030TIP3    H269506   1.452   4.643   3.297  0.0816  0.9401  0.6998
16031TIP3   OH269507   1.206   5.824   1.682  0.2040 -0.3328  0.2080
16031TIP3    H169508   1.155   5.828   1.763 -0.0729  1.5772 -0.0275
16031TIP3    H269509   1.169   5.894   1.628 -0.3137 -2.2737 -1.9843
16032TIP3   OH269510   4.791   3.339  16.996  0.7933  0.1341 -1.3054
16032TIP3    H169511   4.882   3.361  16.973  1.1383 -1.4773 -1.5130
16032TIP3    H269512   4.744   3.422  16.987  2.2535  1.0006 -1.1348
16033TIP3   OH269513   4.839   2.977   5.964  0.1803 -0.2625 -0.0805
16033TIP3    H169514   4.891   2.913   6.013 -1.8870 -2.2043 -0.3300
16033TIP3    H269515   4.846   3.058   6.014 -1.3087 -2.0110  3.1129
16034TIP3   OH269516   3.262   5.972  12.548  0.0616  0.1388  0.2596
16034TIP3    H169517   3.330   6.031  12.580 -1.0905  1.6175  0.0498
16034TIP3    H269518   3.257   5.989  12.454 -1.8066  1.3792  0.5386
16035TIP3   OH269519   4.478   4.145   4.310 -0.2236  0.4489 -0.1025
16035TIP3    H169520   4.453   4.079   4.375 -1.1543  0.5004 -0.4032
16035TIP3    H269521   4.493   4.095   4.230  0.9427  0.3845  0.1467
16036TIP3   OH269522   2.436   3.932  13.177 -0.1149  0.7060 -0.0126
16036TIP3    H169523   2.435   3.973  13.263 -2.7587  1.1271 -0.1922
16036TIP3    H269524   2.518   3.883  13.174 -0.0757  0.5254  2.8038
16037TIP3   OH269525   0.444   2.403   1.777 -0.3143 -0.3242 -0.3839
16037TIP3    H169526   0.512   2.433   1.717 -0.6323 -0.6253 -0.9019
16037TIP3    H269527   0.468   2.313   1.798  1.1431  0.5465  1.8965
16038TIP3   OH269528   4.979   5.687  17.143  0.1525  0.2043  0.0611
16038TIP3    H169529   4.902   5.743  17.155 -1.1486 -1.3885 -0.6139
16038TIP3    H269530   5.024   5.723  17.067  1.2191  2.3688  1.6541
16039TIP3   OH269531   4.727   1.848  16.471  0.1462 -0.3713 -0.1560
16039TIP3    H169532   4.649   1.904  16.475 -0.9882 -1.9553  0.6437
16039TIP3    H269533   4.714   1.793  16.394  0.5232 -0.5657 -0.0850
16040TIP3   OH269534   1.806   4.555  15.433  0.2662 -0.0545  0.4377
16040TIP3    H169535   1.872   4.571  15.365  0.4575 -0.0186  0.6335
16040TIP3    H269536   1.773   4.641  15.455  2.0183  0.1791  2.2289
16041TIP3   OH269537   2.692   5.573   2.002  0.0531 -0.3109 -0.3801
16041TIP3    H169538   2.674   5.503   1.940  0.0070 -0.9551  0.3632
16041TIP3    H269539   2.764   5.622   1.962 -1.9302  1.1012 -2.4176
16042TIP3   OH269540   1.239   3.864   3.562  0.0895 -0.4674 -0.0729
16042TIP3    H169541   1.319   3.827   3.600  0.7276 -0.0919 -1.0241
16042TIP3    H269542   1.241   3.838   3.470  0.7450  2.1672 -0.8736
16043TIP3   OH269543   4.931   0.341   1.361 -0.2950 -0.1731 -0.1141
16043TIP3    H169544   4.942   0.436   1.359  1.9554 -0.3702  1.2597
16043TIP3    H269545   4.869   0.325   1.432 -1.4638  0.2979 -1.0026
16044TIP3   OH269546   0.594   6.400   5.861 -0.0886 -0.1443 -0.4616
16044TIP3    H169547   0.656   6.354   5.804 -1.4591  0.7157 -2.7045
16044TIP3    H269548   0.638   6.482   5.883  0.3825 -0.4139 -0.3858
16045TIP3   OH269549   6.251   5.302  14.507  0.3891  0.1667 -0.1455
16045TIP3    H169550   6.313   5.375  14.511 -0.9557  1.3155  0.0267
16045TIP3    H269551   6.303   5.225  14.533  1.5131  1.2413  0.8689
16046TIP3   OH269552   6.401   5.924   6.688 -0.5263  0.4603  0.3389
16046TIP3    H169553   6.345   5.991   6.726 -0.7947 -0.1733  1.0678
16046TIP3    H269554   6.397   5.940   6.594 -1.5157  0.7355  0.4234
16047TIP3   OH269555   2.948   1.047   0.411 -0.0966 -0.2275  0.1347
16047TIP3    H169556   3.009   1.073   0.480 -1.2262  1.9793  0.3482
16047TIP3    H269557   2.997   1.060   0.329 -0.6820  2.8648  0.2246
16048TIP3   OH269558   1.626   3.081   2.494  0.1069  0.2465  0.4154
16048TIP3    H169559   1.694   3.122   2.548 -0.1324  0.5986  0.4504
16048TIP3    H269560   1.674   3.042   2.421  0.2390  1.4975 -0.1787
16049TIP3   OH269561   2.956   0.870   3.155 -0.3715  0.2774 -0.7477
16049TIP3    H169562   2.920   0.851   3.241  0.1640  2.4385 -0.0124
16049TIP3    H269563   2.895   0.830   3.093 -1.9113  0.5618  0.5836
16050TIP3   OH269564   5.835   1.298  16.266  0.2426 -0.0346 -0.0164
16050TIP3    H169565   5.876   1.336  16.188  1.9010 -0.7481  0.4946
16050TIP3    H269566   5.799   1.374  16.313  2.2235  0.7933  0.2415
16051TIP3   OH269567   2.747   6.098  15.445 -0.8177 -0.2964 -0.5893
16051TIP3    H169568   2.796   6.072  15.523 -2.0213  1.2225  0.7105
16051TIP3    H269569   2.728   6.016  15.400 -1.6127 -1.3724  1.6383
16052TIP3   OH269570   3.728   6.247   0.062 -0.4067 -0.0364 -0.1697
16052TIP3    H169571   3.818   6.279   0.066 -0.3307 -0.0881 -1.3315
16052TIP3    H269572   3.722   6.184   0.133  0.3549  0.2669  0.1713
16053TIP3   OH269573   5.452   4.241  14.843 -0.4687  0.0418 -0.3385
16053TIP3    H169574   5.439   4.325  14.886 -1.3789 -0.3072  0.0780
16053TIP3    H269575   5.546   4.224  14.853 -0.5635  0.2506  0.9963
16054TIP3   OH269576   1.403   1.396  13.591  0.3417 -0.1367 -1.0217
16054TIP3    H169577   1.367   1.312  13.620  2.1332 -0.8026 -0.7140
16054TIP3    H269578   1.471   1.372  13.528  1.6052  1.0457 -0.1253
16055TIP3   OH269579   5.105   0.625   3.765 -0.0026 -0.1169  0.0133
16055TIP3    H169580   5.118   0.538   3.801 -0.2568 -0.3602 -0.4812
16055TIP3    H269581   5.164   0.630   3.690  0.2169  0.2382  0.2039
16056TIP3   OH269582   6.244   3.538  11.110 -0.1067 -0.3505 -0.8091
16056TIP3    H169583   6.244   3.611  11.171  0.9767 -1.0839  0.0885
16056TIP3    H269584   6.168   3.553  11.053  0.0086  1.3593 -0.5131
16057TIP3   OH269585   6.202   0.385   2.307 -0.7823  0.3450 -0.6525
16057TIP3    H169586   6.276   0.379   2.246  1.6164  1.3784  2.0658
16057TIP3    H269587   6.137   0.438   2.260  1.3094  1.7371 -2.0792
16058TIP3   OH269588   2.397   2.999  14.035  0.0675 -0.3634  0.5371
16058TIP3    H169589   2.464   3.052  14.080  0.7424 -1.2136  0.5394
16058TIP3    H269590   2.379   2.927  14.095 -2.8542  1.2940  1.7747
16059TIP3   OH269591   0.403   1.282   4.390  0.0511  0.2388  0.0282
16059TIP3    H169592   0.383   1.191   4.408 -1.1904  0.1697 -1.5235
16059TIP3    H269593   0.337   1.332   4.438 -0.0147  0.2654 -0.0883
16060TIP3   OH269594   5.119   2.678   4.521 -0.7810  0.1679 -0.3093
16060TIP3    H169595   5.175   2.754   4.503 -2.1238  0.6822 -2.4813
16060TIP3    H269596   5.103   2.639   4.435 -4.6016  0.6494  0.1064
16061TIP3   OH269597   6.437   1.876  12.973  0.2040  0.2136  0.1342
16061TIP3    H169598   6.386   1.872  12.893  1.0206 -0.0236 -0.3770
16061TIP3    H269599   6.492   1.954  12.963  0.4697  0.0563  0.3625
16062TIP3   OH269600   0.178   0.404  11.660 -0.3179  0.3306  0.3608
16062TIP3    H169601   0.164   0.462  11.735 -1.2995  0.0609  0.3994
16062TIP3    H269602   0.135   0.450  11.587  1.8273  1.2529 -0.3425
16063TIP3   OH269603   6.640   0.807  13.671 -0.2958 -0.2298  0.3436
16063TIP3    H169604   6.670   0.783  13.759 -0.2606 -1.4959  0.0052
16063TIP3    H269605   6.645   0.902  13.669 -2.0304 -0.0506  2.3408
16064TIP3   OH269606   0.807   3.195  15.092  0.4016 -0.2044 -0.3419
16064TIP3    H169607   0.745   3.146  15.037 -0.5292  1.4683 -0.7980
16064TIP3    H269608   0.786   3.167  15.181 -0.5298 -0.1917 -0.5482
16065TIP3   OH269609   1.918   3.157  12.921 -0.3832 -0.4283  0.5884
16065TIP3    H169610   1.886   3.092  12.858 -1.5152  0.0330  0.6963
16065TIP3    H269611   1.841   3.184  12.971  0.4493 -0.5830  2.0043
16066TIP3   OH269612   3.324   5.548  11.303 -0.2867  0.0639  0.1503
16066TIP3    H169613   3.329   5.641  11.327  1.8281  0.3100 -1.1014
16066TIP3    H269614   3.256   5.545  11.236  0.4301  0.9034 -0.6305
16067TIP3   OH269615   5.544   6.468  15.171  0.3152  0.5846 -0.4257
16067TIP3    H169616   5.542   6.561  15.152  1.7090  0.6741 -0.1554
16067TIP3    H269617   5.530   6.462  15.265 -0.0598  0.5006 -0.4848
16068TIP3   OH269618   3.287   4.323   5.825  0.2103 -0.1323 -0.1577
16068TIP3    H169619   3.240   4.398   5.789  0.1465 -0.6519 -1.1645
16068TIP3    H269620   3.378   4.354   5.833 -0.1876  0.7118  1.3474
16069TIP3   OH269621   1.885   2.612  11.955  0.1293  0.6153  0.0872
16069TIP3    H169622   1.803   2.563  11.962 -0.6872  1.6835 -1.7322
16069TIP3    H269623   1.950   2.547  11.929 -0.6251  0.1870 -0.7385
16070TIP3   OH269624   5.597   0.869   4.941 -0.5897 -0.1228 -0.2428
16070TIP3    H169625   5.680   0.899   4.979 -0.6070  1.0659 -1.0974
16070TIP3    H269626   5.562   0.806   5.005  0.8535 -0.4559  0.2270
16071TIP3   OH269627   6.157   4.235  16.778 -0.2422  0.6440 -0.3328
16071TIP3    H169628   6.140   4.155  16.826 -0.8571  1.0740  0.1723
16071TIP3    H269629   6.110   4.224  16.695 -0.2927  0.4650 -0.2800
16072TIP3   OH269630   3.732   1.095  14.491  0.6491 -0.0852  0.5588
16072TIP3    H169631   3.794   1.039  14.444 -0.1012 -1.0285  0.6728
16072TIP3    H269632   3.658   1.103  14.432 -0.1085 -0.9131  1.3782
16073TIP3   OH269633   2.135   3.912   3.989  0.2360 -0.5658 -0.3226
16073TIP3    H169634   2.146   3.908   3.894  0.6504 -1.5621 -0.2508
16073TIP3    H269635   2.053   3.958   4.003  0.8940  0.8651 -1.1257
16074TIP3   OH269636   3.811   4.240  12.684  0.0074 -0.0167 -0.3905
16074TIP3    H169637   3.860   4.259  12.604 -1.4463  0.3717 -1.2128
16074TIP3    H269638   3.855   4.291  12.752  0.8912  0.1200 -1.0586
16075TIP3   OH269639   5.997   4.003  11.544  0.5462  0.0612  0.1465
16075TIP3    H169640   5.913   4.000  11.498  0.7293  1.5118 -0.2878
16075TIP3    H269641   5.975   4.033  11.632  0.6032  0.4998  0.0153
16076TIP3   OH269642   1.981   3.498  16.428  0.1649  0.2030  0.0427
16076TIP3    H169643   2.011   3.554  16.499  1.2747 -0.5394  0.1761
16076TIP3    H269644   1.973   3.557  16.353  0.9809  0.6123  0.2655
16077TIP3   OH269645   3.645   4.375   0.902  0.0534  0.3035  0.0803
16077TIP3    H169646   3.573   4.370   0.966  0.7312  1.5639  0.9498
16077TIP3    H269647   3.724   4.370   0.955  0.6362 -2.6082 -1.0063
16078TIP3   OH269648   0.813   0.096  13.343 -0.2240 -0.6975 -0.2422
16078TIP3    H169649   0.829   0.096  13.438  1.4104  0.3736 -0.5134
16078TIP3    H269650   0.778   0.008  13.326  1.8368 -1.7971  0.9711
16079TIP3   OH269651   2.449   6.751  12.095 -0.5371 -0.6271 -0.2884
16079TIP3    H169652   2.471   6.744  12.002  0.4753  1.8463 -0.2522
16079TIP3    H269653   2.508   6.690  12.139  0.3570 -0.3191 -1.0692
16080TIP3   OH269654   0.826   2.074   1.841 -0.1617  0.3416  0.6322
16080TIP3    H169655   0.766   2.006   1.873  1.6189 -1.4147  0.3281
16080TIP3    H269656   0.874   2.101   1.919  1.0879 -0.7731  0.2606
16081TIP3   OH269657   2.114   6.031   4.448 -0.0730  0.4343  0.1274
16081TIP3    H169658   2.103   5.965   4.380  0.0546  1.5748 -1.0334
16081TIP3    H269659   2.050   6.098   4.426 -0.5562  0.4535  1.5862
16082TIP3   OH269660   3.439   6.095  14.881  0.6753  0.0946  0.2830
16082TIP3    H169661   3.477   6.013  14.850  0.1832 -0.3961  0.9522
16082TIP3    H269662   3.373   6.068  14.945  0.4805  1.0107  0.4786
16083TIP3   OH269663   3.781   3.251   4.797  0.1551  0.2063 -0.3125
16083TIP3    H169664   3.726   3.220   4.725 -1.1741 -0.2645  0.8817
16083TIP3    H269665   3.732   3.227   4.876  0.8843  2.0251  0.7150
16084TIP3   OH269666   1.630   5.457   0.543  0.1543 -0.2529 -0.5299
16084TIP3    H169667   1.709   5.449   0.489  1.5603  0.4867  1.3628
16084TIP3    H269668   1.594   5.369   0.545  1.3974 -0.7805 -0.7399
16085TIP3   OH269669   2.003   4.319  13.122  0.1662 -1.0220 -0.5865
16085TIP3    H169670   2.028   4.246  13.065  0.8700 -0.7457 -0.6360
16085TIP3    H269671   2.085   4.364  13.141 -0.3952  0.3976 -1.4306
16086TIP3   OH269672   4.096   0.527  13.584  0.2014  0.2645 -0.4267
16086TIP3    H169673   4.083   0.459  13.518  1.2795 -0.0680 -0.2903
16086TIP3    H269674   4.047   0.496  13.660 -0.6959  0.4483 -0.9210
16087TIP3   OH269675   6.129   4.034  16.216 -0.0484  0.0765  0.1226
16087TIP3    H169676   6.225   4.042  16.224  0.1024  0.1151 -1.5054
16087TIP3    H269677   6.103   4.109  16.162 -1.1898  0.8525  1.7173
16088TIP3   OH269678   0.188   2.953  11.690 -0.2830  0.2647 -0.4344
16088TIP3    H169679   0.275   2.960  11.650  0.7679  0.2943  1.7546
16088TIP3    H269680   0.205   2.917  11.777 -2.4584  0.5199  0.1236
16089TIP3   OH269681   1.401   2.477  12.436 -0.0473  0.2203 -0.3172
16089TIP3    H169682   1.491   2.505  12.419 -0.4968  1.5265 -0.6253
16089TIP3    H269683   1.354   2.558  12.457 -0.9854 -0.5468  0.5822
16090TIP3   OH269684   2.764   1.176   5.786 -0.4032 -0.2435  0.4568
16090TIP3    H169685   2.713   1.198   5.865  1.6763 -0.6675  1.9636
16090TIP3    H269686   2.782   1.083   5.795 -1.4740 -0.6495 -1.3468
16091TIP3   OH269687   6.581   1.066   0.301 -0.2537 -0.1315  0.7103
16091TIP3    H169688   6.558   1.065   0.208  0.0246  0.1206  0.6404
16091TIP3    H269689   6.579   0.974   0.327  0.7131 -0.2961  0.2042
16092TIP3   OH269690   2.660   4.274  13.503  0.1909 -0.2977  0.0100
16092TIP3    H169691   2.634   4.335  13.573 -0.4137 -0.6388  0.0883
16092TIP3    H269692   2.677   4.192  13.549  1.1718 -0.1464 -0.0748
16093TIP3   OH269693   5.004   1.731   4.026  0.0574  0.1792  0.9159
16093TIP3    H169694   5.009   1.826   4.028 -2.7108  0.3520  1.2501
16093TIP3    H269695   4.990   1.705   4.117  0.3244 -0.5282  0.7640
16094TIP3   OH269696   5.040   5.305  12.959  0.3747  0.1951 -0.5736
16094TIP3    H169697   4.960   5.347  12.989 -0.4113 -1.4906 -0.2384
16094TIP3    H269698   5.034   5.304  12.864 -0.6016 -1.0066 -0.5195
16095TIP3   OH269699   1.266   2.872  15.741  0.1786  0.2554  0.2335
16095TIP3    H169700   1.331   2.827  15.795  1.8238  2.8026  0.4859
16095TIP3    H269701   1.283   2.842  15.652  0.7208 -0.2421  0.5021
16096TIP3   OH269702   6.271   5.054  15.984 -0.2130  0.2706  0.2467
16096TIP3    H169703   6.245   5.020  16.070  0.5115  0.5858  0.5856
16096TIP3    H269704   6.188   5.076  15.942 -0.5930 -0.2231  0.7225
16097TIP3   OH269705   6.512   6.567  11.445  0.6020  0.1721 -0.1060
16097TIP3    H169706   6.577   6.537  11.382  1.8982 -1.4880  1.9580
16097TIP3    H269707   6.545   6.651  11.476  1.2459 -0.1746  0.1594
16098TIP3   OH269708   1.756   6.779  17.032 -0.5543 -0.0761 -0.3807
16098TIP3    H169709   1.826   6.750  16.973 -1.5271  0.8666 -2.0139
16098TIP3    H269710   1.749   6.708  17.097  2.8152  0.4041  0.6250
16099TIP3   OH269711   2.222   1.199   0.848  0.1119 -0.6136  0.7031
16099TIP3    H169712   2.221   1.250   0.767  0.5432 -0.9094  0.5119
16099TIP3    H269713   2.306   1.153   0.847  1.4734  1.7071  2.7664
16100TIP3   OH269714   3.410   3.322   4.382 -0.8798 -0.5081  0.7679
16100TIP3    H169715   3.470   3.362   4.445  0.7698  0.7472 -1.5367
16100TIP3    H269716   3.429   3.228   4.386  0.5583 -0.2260  0.7588
16101TIP3   OH269717   2.041   5.306  12.704  0.2172 -0.1198 -0.5376
16101TIP3    H169718   2.109   5.300  12.637 -0.5187 -1.3260 -1.2068
16101TIP3    H269719   2.065   5.239  12.768  0.8001  0.8842  0.3059
16102TIP3   OH269720   6.705   4.489  11.277 -0.0009  0.2264 -0.1952
16102TIP3    H169721   6.659   4.517  11.199  0.3266  0.4018 -0.3246
16102TIP3    H269722   6.771   4.556  11.292  0.7879 -0.4721 -0.5113
16103TIP3   OH269723   6.686   6.538   1.900  0.4320 -0.8363 -0.0901
16103TIP3    H169724   6.612   6.480   1.885  2.2470 -2.9660 -1.0671
16103TIP3    H269725   6.754   6.482   1.939  1.4709  1.0945  0.9586
16104TIP3   OH269726   3.026   0.413   1.110  0.0025 -0.0846 -0.1736
16104TIP3    H169727   3.007   0.465   1.189 -0.4420 -0.5971  0.0539
16104TIP3    H269728   3.119   0.393   1.117 -0.2424 -0.9243  0.6935
16105TIP3   OH269729   3.617   5.984  10.605 -0.6991  0.3025  0.0764
16105TIP3    H169730   3.562   5.907  10.591  0.0248  0.1135 -1.9993
16105TIP3    H269731   3.556   6.052  10.635 -1.9364 -0.1244 -1.3931
16106TIP3   OH269732   5.464   0.875   4.655  0.0647 -0.0599 -0.2044
16106TIP3    H169733   5.522   0.886   4.731 -2.6481 -2.8877  2.4401
16106TIP3    H269734   5.480   0.786   4.626  0.9965  0.9730 -2.9751
16107TIP3   OH269735   5.383   4.300  13.596  0.0372  0.4382 -0.7981
16107TIP3    H169736   5.423   4.272  13.514 -1.4737 -0.9579 -1.0917
16107TIP3    H269737   5.306   4.351  13.569 -1.1252 -1.0108 -0.2677
16108TIP3   OH269738   2.448   1.983   5.099  0.1419  0.9346 -0.1988
16108TIP3    H169739   2.543   1.971   5.109  0.3375  1.7264 -1.1075
16108TIP3    H269740   2.424   2.043   5.169  0.3100  0.7759 -0.0029
16109TIP3   OH269741   1.971   0.854   3.288  0.7195  0.3191 -0.2588
16109TIP3    H169742   2.005   0.772   3.252  0.1305  0.0417 -0.1921
16109TIP3    H269743   1.919   0.828   3.363 -0.3201  0.6602 -0.8469
16110TIP3   OH269744   3.155   6.710   1.903 -0.3610 -0.0188  0.4349
16110TIP3    H169745   3.219   6.774   1.871 -1.3763  0.4058 -0.7920
16110TIP3    H269746   3.207   6.646   1.952  1.0184  0.2293 -0.6817
16111TIP3   OH269747   3.088   3.910   2.596 -0.5423 -0.0791  0.0537
16111TIP3    H169748   3.094   3.951   2.682  0.3034  2.3055 -1.1096
16111TIP3    H269749   2.998   3.925   2.569 -0.0863  1.5725 -0.6117
16112TIP3   OH269750   3.849   5.938  13.746 -0.3507 -0.0136 -0.0080
16112TIP3    H169751   3.865   5.847  13.719 -2.3990  0.2623 -2.3573
16112TIP3    H269752   3.878   5.991  13.673 -2.6407  0.9822 -0.2491
16113TIP3   OH269753   0.045   1.859   5.279  0.3033  0.0089  0.4036
16113TIP3    H169754   0.020   1.770   5.254 -0.9038  0.4175  0.1064
16113TIP3    H269755  -0.032   1.894   5.323  0.9378  0.7511  0.9437
16114TIP3   OH269756   4.213   5.531  13.541 -0.0086  0.5896  0.2840
16114TIP3    H169757   4.149   5.545  13.611 -1.6996  0.4080 -1.1742
16114TIP3    H269758   4.213   5.613  13.491  0.2260  0.2675 -0.2519
16115TIP3   OH269759   5.569   1.598  14.858  0.1843  0.4139 -0.1078
16115TIP3    H169760   5.508   1.630  14.793  0.8035 -0.0155 -0.9102
16115TIP3    H269761   5.572   1.667  14.925 -0.5075  0.8152 -0.4884
16116TIP3   OH269762   0.663   0.748  17.020  0.0648  0.0723 -0.5167
16116TIP3    H169763   0.732   0.792  17.070 -0.2865  0.5818 -0.4792
16116TIP3    H269764   0.658   0.661  17.059 -0.9681  0.8250  1.0759
16117TIP3   OH269765   2.108   0.499  11.251  0.1716  0.0618 -0.1932
16117TIP3    H169766   2.121   0.515  11.345  1.0456  0.3039 -0.3466
16117TIP3    H269767   2.035   0.555  11.227 -0.5803 -0.6094  0.5179
16118TIP3   OH269768   2.741   2.209  14.537 -0.4109 -0.1073  0.3089
16118TIP3    H169769   2.756   2.114  14.537  2.4883  0.3302  0.4314
16118TIP3    H269770   2.816   2.246  14.492 -1.1902  2.2101  0.8253
16119TIP3   OH269771   1.523   0.655   5.857 -0.1411 -0.2579  0.4477
16119TIP3    H169772   1.464   0.653   5.932 -1.3749  0.1357 -0.4814
16119TIP3    H269773   1.486   0.591   5.796  0.3099  0.0911 -0.2008
16120TIP3   OH269774   3.505   2.128  16.705  0.1386  0.0296  0.2088
16120TIP3    H169775   3.474   2.091  16.623  1.8330  0.0267 -0.4591
16120TIP3    H269776   3.499   2.056  16.768  0.2211 -0.3911 -0.2646
16121TIP3   OH269777   1.893   1.532  14.729 -0.1367 -0.1380 -0.5178
16121TIP3    H169778   1.925   1.520  14.639  3.6644  0.7383  0.6352
16121TIP3    H269779   1.970   1.562  14.778 -2.1466 -0.5414  3.0399
16122TIP3   OH269780   6.317   4.492  13.297  0.2373 -0.0580  0.5254
16122TIP3    H169781   6.263   4.571  13.296 -0.4873 -0.5523 -1.9807
16122TIP3    H269782   6.406   4.525  13.311  0.0336  1.2853 -1.1951
16123TIP3   OH269783   5.398   6.592   1.598  0.0400  0.1466  0.1279
16123TIP3    H169784   5.390   6.589   1.503 -1.3987  0.5573  0.2248
16123TIP3    H269785   5.437   6.678   1.616  0.3284  0.0620 -0.0938
16124TIP3   OH269786   4.556   5.865  12.519  0.3125 -0.2609 -0.0615
16124TIP3    H169787   4.513   5.821  12.592  0.3513 -0.5894 -0.2314
16124TIP3    H269788   4.647   5.874  12.546 -0.0519  1.2532  0.6680
16125TIP3   OH269789   3.168   5.756  13.910 -0.4495  0.0721 -0.4949
16125TIP3    H169790   3.088   5.776  13.861  1.2550  1.7598 -2.6365
16125TIP3    H269791   3.170   5.822  13.980 -0.3256  0.7498 -1.1382
16126TIP3   OH269792   4.521   0.339  10.968  0.1955  0.8219 -0.3617
16126TIP3    H169793   4.441   0.331  10.916 -0.4976  0.3724  0.7714
16126TIP3    H269794   4.541   0.433  10.967 -0.2597  0.9121 -0.7682
16127TIP3   OH269795   6.182   4.937   5.330 -0.2094  0.1535 -0.5366
16127TIP3    H169796   6.211   4.988   5.254  0.3955 -0.4781 -0.7353
16127TIP3    H269797   6.236   4.858   5.328  1.0393  0.9245  1.5536
16128TIP3   OH269798   3.253   2.671   6.258 -0.3323 -0.4735 -0.0711
16128TIP3    H169799   3.237   2.763   6.277 -0.1163 -0.4033 -0.2190
16128TIP3    H269800   3.331   2.672   6.202  1.2037 -0.9056  2.0348
16129TIP3   OH269801   4.964   3.467   2.991  0.0256  0.2067  0.5373
16129TIP3    H169802   4.954   3.391   3.048 -0.5833 -0.4607 -0.4412
16129TIP3    H269803   4.875   3.487   2.962  0.1287  1.5483  1.0994
16130TIP3   OH269804   1.835   3.110   2.268 -0.1843  0.1148  0.1748
16130TIP3    H169805   1.827   3.143   2.179 -0.5082  1.3846  0.6631
16130TIP3    H269806   1.910   3.156   2.305  1.6095 -2.3397 -0.2538
16131TIP3   OH269807   4.763   0.581  12.178  0.8072 -0.7754  0.2936
16131TIP3    H169808   4.691   0.529  12.213  0.1040 -1.0118 -1.4209
16131TIP3    H269809   4.799   0.526  12.108  1.7429 -0.0666  0.2145
16132TIP3   OH269810   0.611   6.227  13.449 -0.3918  0.1870  0.5603
16132TIP3    H169811   0.652   6.144  13.473 -1.1222 -0.5617 -0.6874
16132TIP3    H269812   0.684   6.283  13.420 -0.1054 -0.7283 -0.5351
16133TIP3   OH269813   4.239   5.300   6.522 -0.1442 -0.1036 -0.0125
16133TIP3    H169814   4.274   5.352   6.594  1.0683  0.0625 -0.7103
16133TIP3    H269815   4.291   5.220   6.523 -1.0917 -0.7125  0.2015
16134TIP3   OH269816   4.978   4.447   0.555 -0.0811  0.2195 -0.1297
16134TIP3    H169817   5.042   4.377   0.548 -0.6298 -0.3490  0.4079
16134TIP3    H269818   5.016   4.520   0.508 -0.6377 -1.2690 -3.0120
16135TIP3   OH269819   1.892   4.038  12.186 -0.8705  0.9852  0.6015
16135TIP3    H169820   1.871   4.107  12.124  1.4281  1.5627  0.4286
16135TIP3    H269821   1.938   3.972  12.135  0.1990  1.0348  1.4632
16136TIP3   OH269822   3.887   1.944  15.697 -0.3255 -0.1244 -0.0903
16136TIP3    H169823   3.878   1.948  15.601  1.2997 -0.1311 -0.2651
16136TIP3    H269824   3.799   1.959  15.730 -0.6664  1.3647 -1.5665
16137TIP3   OH269825   2.265   4.788   0.354 -0.5302 -0.1964 -0.0643
16137TIP3    H169826   2.256   4.855   0.421 -0.7251  0.5971 -0.8760
16137TIP3    H269827   2.358   4.766   0.354 -0.5554 -0.3013  0.5579
16138TIP3   OH269828   2.923   3.075   5.580 -0.4500  0.1813  0.1224
16138TIP3    H169829   2.980   3.137   5.535 -0.4722  0.9362  1.1088
16138TIP3    H269830   2.836   3.115   5.574 -0.3676  0.5492  1.2706
16139TIP3   OH269831   3.771   3.846   4.056 -0.0852 -0.4473 -0.2536
16139TIP3    H169832   3.702   3.826   4.119 -0.8083 -0.2408 -0.9748
16139TIP3    H269833   3.780   3.767   4.004 -0.6384 -0.0489 -0.9580
16140TIP3   OH269834   2.107   2.220   4.962  0.5576 -0.1303  0.1987
16140TIP3    H169835   2.062   2.286   4.909 -1.2218 -0.5312  1.1629
16140TIP3    H269836   2.039   2.188   5.022  1.4537 -2.6404 -0.0923
16141TIP3   OH269837   1.213   0.021   1.293  0.8944 -0.3896 -0.0686
16141TIP3    H169838   1.208  -0.037   1.369  0.7663 -1.6222 -0.9957
16141TIP3    H269839   1.305   0.044   1.286  0.5738  1.5740  1.8000
16142TIP3   OH269840   1.802   0.032  10.664  0.1039  0.4726  0.2046
16142TIP3    H169841   1.788  -0.059  10.690  0.8254 -0.2570 -1.8567
16142TIP3    H269842   1.715   0.066  10.645 -0.0096 -0.3778 -0.8516
16143TIP3   OH269843   0.960   5.161  11.526  0.0031  0.2613 -0.5771
16143TIP3    H169844   0.973   5.160  11.431  0.6715 -1.3641 -0.4737
16143TIP3    H269845   0.887   5.101  11.541 -0.5432  1.0342 -0.1173
16144TIP3   OH269846   0.029   2.746   4.240  0.7485  0.1425  0.0383
16144TIP3    H169847   0.039   2.829   4.287  0.3942 -0.4780  1.2234
16144TIP3    H269848   0.033   2.770   4.148 -0.4165  1.6181  0.3544
16145TIP3   OH269849   3.998   3.647  14.423 -0.0861  0.4760 -0.7585
16145TIP3    H169850   4.067   3.654  14.357 -0.9643 -0.9576 -1.8631
16145TIP3    H269851   4.044   3.622  14.503  0.6178 -1.2371 -1.6674
16146TIP3   OH269852   6.287   6.358  14.130  0.0420  0.4642  0.1160
16146TIP3    H169853   6.229   6.283  14.144  1.7597 -0.5371  2.2976
16146TIP3    H269854   6.228   6.429  14.106 -1.8592 -1.0654  0.0761
16147TIP3   OH269855   1.944   5.344   5.492  0.1761 -0.3138 -0.5477
16147TIP3    H169856   1.921   5.273   5.432 -0.3499  0.2524 -1.0297
16147TIP3    H269857   1.927   5.424   5.441 -0.5918  0.1839  0.4780
16148TIP3   OH269858   3.486   5.295  13.536 -0.0760  0.6649  0.5629
16148TIP3    H169859   3.533   5.349  13.472 -0.9914  0.0909 -0.5905
16148TIP3    H269860   3.398   5.333  13.539 -0.1112  0.5269  1.2991
16149TIP3   OH269861   6.031   5.217   5.732  0.0274 -0.3809 -0.4922
16149TIP3    H169862   5.983   5.155   5.786  0.4983 -0.4982 -0.2079
16149TIP3    H269863   6.024   5.300   5.780 -1.3666  0.0065 -1.3140
16150TIP3   OH269864   3.997   1.579  16.047  0.2297 -0.4622 -0.0628
16150TIP3    H169865   4.021   1.525  15.972 -1.9545  0.1886 -1.2956
16150TIP3    H269866   3.937   1.645  16.010  0.7565  1.1599  1.8766
16151TIP3   OH269867   5.378   6.661   0.501 -0.1938  0.4435 -0.4807
16151TIP3    H169868   5.293   6.671   0.543  1.5474  2.2832  2.8423
16151TIP3    H269869   5.418   6.748   0.505  2.0962 -0.5093 -1.3905
16152TIP3   OH269870   2.627   5.177  14.544  0.3799  0.2058  0.2940
16152TIP3    H169871   2.686   5.135  14.482  0.2864  0.7451 -0.1615
16152TIP3    H269872   2.580   5.243  14.493  1.6301  1.9251  1.3222
16153TIP3   OH269873   1.112   1.701   5.038 -0.3131 -0.0436 -0.2234
16153TIP3    H169874   1.202   1.697   5.070 -0.0660  0.5241 -0.8264
16153TIP3    H269875   1.058   1.694   5.117  0.2051 -2.6939 -0.0673
16154TIP3   OH269876   3.993   2.042  11.036 -0.4721 -0.9198 -0.3567
16154TIP3    H169877   3.903   2.072  11.053 -0.2461 -0.7068  0.5355
16154TIP3    H269878   4.016   2.082  10.952 -0.7025  0.2241  0.1046
16155TIP3   OH269879   3.759   0.044  11.859  0.4561  0.4075  0.4557
16155TIP3    H169880   3.779   0.058  11.767 -1.0714  1.4991  0.2722
16155TIP3    H269881   3.833   0.080  11.906  1.7610 -1.1507 -0.3655
16156TIP3   OH269882   4.252   2.381  14.055  0.2875  0.7499  0.3332
16156TIP3    H169883   4.229   2.395  13.963 -1.3820  0.3746  0.6755
16156TIP3    H269884   4.336   2.337  14.053  0.2931  0.8107 -1.0144
16157TIP3   OH269885   3.640   2.952   4.140  0.0062  0.2215 -0.3934
16157TIP3    H169886   3.546   2.949   4.124 -0.8483  1.7710  3.7309
16157TIP3    H269887   3.658   2.872   4.189  1.0693 -0.5370 -1.9617
16158TIP3   OH269888   6.735   2.595  15.035 -0.2012  0.2801 -0.1420
16158TIP3    H169889   6.691   2.657  14.977  0.0871  0.8308  0.2238
16158TIP3    H269890   6.676   2.520  15.041  0.3292 -0.3323 -2.1605
16159TIP3   OH269891   6.332   5.325  12.664  0.4407 -0.1650  0.2880
16159TIP3    H169892   6.277   5.397  12.632  1.9569  1.2024  0.6974
16159TIP3    H269893   6.403   5.319  12.601  0.7176 -0.8352  0.6622
16160TIP3   OH269894   0.706   5.865   5.245  0.0677 -0.3811  0.6005
16160TIP3    H169895   0.793   5.903   5.237 -0.0812 -0.1080  0.2157
16160TIP3    H269896   0.658   5.925   5.302 -0.0744 -0.1488  0.2436
16161TIP3   OH269897   6.067   6.640  10.970 -0.5886 -0.1623  0.6617
16161TIP3    H169898   6.085   6.551  11.002 -1.8561 -0.6468  0.0637
16161TIP3    H269899   6.088   6.637  10.877  1.2472  0.7197  1.0229
16162TIP3   OH269900   5.138   5.202   0.037 -0.1830 -0.0218 -0.1775
16162TIP3    H169901   5.169   5.113   0.054 -0.3608 -0.2225 -0.9158
16162TIP3    H269902   5.132   5.208  -0.058  2.2123  1.5973 -0.2536
16163TIP3   OH269903   1.268   6.406   1.995 -0.5529 -0.5871  0.6443
16163TIP3    H169904   1.238   6.331   1.944 -0.4296  0.7871 -1.5227
16163TIP3    H269905   1.245   6.482   1.942  2.6549  0.7255  0.9908
16164TIP3   OH269906   5.961   0.875   0.870  0.1742 -0.5595  0.3150
16164TIP3    H169907   6.016   0.863   0.947 -0.1948 -1.2726  0.4731
16164TIP3    H269908   6.016   0.846   0.797 -0.7790 -3.4974  0.7155
16165TIP3   OH269909   1.236   6.276   1.538 -0.7021 -0.2179 -0.1604
16165TIP3    H169910   1.164   6.253   1.479 -0.9575 -0.0513  0.0905
16165TIP3    H269911   1.298   6.324   1.482 -1.4666  0.9265 -0.0278
16166TIP3   OH269912   1.270   3.307   3.711 -0.5161 -0.2592  0.5787
16166TIP3    H169913   1.182   3.278   3.735 -0.2917 -0.0602  1.6434
16166TIP3    H269914   1.299   3.244   3.645 -0.6272 -1.5997  1.7857
16167TIP3   OH269915   0.066   1.096   0.279 -0.1246  0.0180 -0.4712
16167TIP3    H169916   0.083   1.155   0.352 -1.0174 -0.7101  0.3483
16167TIP3    H269917  -0.028   1.076   0.285  0.3989 -2.5392  0.1186
16168TIP3   OH269918   1.765   5.287  12.556 -0.2597  0.5932 -0.0875
16168TIP3    H169919   1.696   5.272  12.621 -1.7988 -2.3348 -2.2935
16168TIP3    H269920   1.839   5.320  12.607 -2.2019  0.7084  2.7989
16169TIP3   OH269921   3.328   5.675  15.938 -0.3385  1.0320  0.4375
16169TIP3    H169922   3.361   5.599  15.890  0.8248  0.6836  1.7560
16169TIP3    H269923   3.406   5.717  15.974 -0.9358  3.0866 -0.5712
16170TIP3   OH269924   4.461   2.208   0.105  0.0957 -0.1276  0.4015
16170TIP3    H169925   4.435   2.300   0.115 -0.4016 -0.1557 -0.4962
16170TIP3    H269926   4.553   2.206   0.131  0.6808  1.0311 -1.4252
16171TIP3   OH269927   6.272   5.802   1.040  0.6138  0.4877 -0.7092
16171TIP3    H169928   6.269   5.849   1.124  2.6361  0.4412 -0.5897
16171TIP3    H269929   6.193   5.748   1.040  0.8935  0.0155  1.4827
16172TIP3   OH269930   4.079   3.303  14.707 -0.1406  0.0458 -0.3931
16172TIP3    H169931   4.087   3.306  14.802 -1.1972  0.1676 -0.2971
16172TIP3    H269932   4.167   3.284  14.676  0.1699 -0.2182  0.6223
16173TIP3   OH269933   6.594   3.177   5.951 -1.1646  0.3981 -0.3854
16173TIP3    H169934   6.666   3.240   5.959 -0.4271 -0.5472  0.4207
16173TIP3    H269935   6.542   3.189   6.030 -1.1396  0.1250 -0.3288
16174TIP3   OH269936   5.090   4.841  15.432  0.4032  0.2264  0.2701
16174TIP3    H169937   5.107   4.909  15.497 -1.1508  0.3025  0.6037
16174TIP3    H269938   5.177   4.815  15.402  1.1267  0.2565  2.2989
16175TIP3   OH269939   5.551   0.532  14.953  0.3223  0.1964  0.1611
16175TIP3    H169940   5.457   0.517  14.946  0.2339  0.7027  0.2068
16175TIP3    H269941   5.582   0.532  14.862  0.2791  0.0130  0.1471
16176TIP3   OH269942   2.866   6.036   4.485 -0.1319  0.5792 -0.1614
16176TIP3    H169943   2.787   6.059   4.533 -1.8131 -3.3260 -0.8471
16176TIP3    H269944   2.839   5.964   4.428  4.0690 -1.4073  0.1600
16177TIP3   OH269945   0.911   3.225   4.953  0.5283  0.2698 -0.0160
16177TIP3    H169946   0.884   3.316   4.947  2.9070  0.9703 -0.8114
16177TIP3    H269947   0.983   3.226   5.017  0.8920 -0.9549 -0.3906
16178TIP3   OH269948   5.508   1.984   2.285  0.2702 -0.1399  0.3840
16178TIP3    H169949   5.416   2.007   2.269  0.6860  0.9587 -0.5488
16178TIP3    H269950   5.548   1.986   2.198  0.8487 -2.1727  0.5906
16179TIP3   OH269951   5.981   6.225  15.980  0.2197 -0.5635  0.0512
16179TIP3    H169952   5.938   6.303  15.944 -2.0179 -0.2904  3.1404
16179TIP3    H269953   5.911   6.161  15.990  1.3044 -1.5962  1.1818
16180TIP3   OH269954   1.175   0.952  11.639 -0.3791  0.3416  0.5814
16180TIP3    H169955   1.257   0.952  11.589 -1.1564 -0.9617 -0.7212
16180TIP3    H269956   1.174   0.868  11.684 -0.2678  1.0075  1.8570
16181TIP3   OH269957   3.866   4.218  14.840 -0.2267 -0.5139 -0.2606
16181TIP3    H169958   3.775   4.242  14.819  0.2343  0.2764 -1.3782
16181TIP3    H269959   3.913   4.301  14.842 -0.2147 -0.5486  3.8621
16182TIP3   OH269960   0.760   4.668   0.705 -0.2402 -0.2988  0.1762
16182TIP3    H169961   0.785   4.733   0.639  1.5615 -1.9096 -0.7667
16182TIP3    H269962   0.785   4.708   0.788  0.4347  0.4146 -0.3627
16183TIP3   OH269963   0.925   2.164   4.619 -0.3281 -0.2409 -0.2460
16183TIP3    H169964   0.966   2.214   4.690  0.8199  0.1389 -1.1676
16183TIP3    H269965   0.833   2.160   4.643  0.0800 -0.2815  1.3734
16184TIP3   OH269966   0.938   2.893  14.986  0.3063 -0.2768 -0.0414
16184TIP3    H169967   0.848   2.875  15.012  0.3498 -1.6968 -0.8198
16184TIP3    H269968   0.938   2.985  14.961 -0.5621  0.1356  1.4534
16185TIP3   OH269969   3.301   0.756   6.123  0.2839  0.3211  0.4476
16185TIP3    H169970   3.252   0.713   6.193  0.5252  0.5469  0.7514
16185TIP3    H269971   3.271   0.847   6.124  0.7849  0.4796  0.6949
16186TIP3   OH269972   2.360   6.100   5.669 -0.4189 -0.0455  0.2098
16186TIP3    H169973   2.387   6.029   5.610 -2.8613  1.4840 -2.8892
16186TIP3    H269974   2.276   6.071   5.704  0.7249 -0.6563  2.5735
16187TIP3   OH269975   1.989   1.537  13.085 -0.1905 -0.6082 -0.4672
16187TIP3    H169976   1.986   1.577  13.172  1.0902  0.6784 -0.9942
16187TIP3    H269977   1.931   1.591  13.032  1.3098  0.4308 -1.1062
16188TIP3   OH269978   1.766   4.141  11.933 -0.2697  0.3409  0.0771
16188TIP3    H169979   1.823   4.175  11.864 -0.2465  1.8196  0.7964
16188TIP3    H269980   1.743   4.053  11.905 -0.9366  1.2197 -2.2164
16189TIP3   OH269981   5.448   3.946   0.563  0.2950  0.0254  0.3969
16189TIP3    H169982   5.451   4.015   0.629 -1.1792 -0.8596  1.4222
16189TIP3    H269983   5.531   3.899   0.573  1.2185  1.5019 -0.1786
16190TIP3   OH269984   2.081   2.106   3.941  0.1857 -0.0923 -0.1047
16190TIP3    H169985   2.091   2.200   3.959  0.7311 -0.0294 -0.6874
16190TIP3    H269986   2.022   2.103   3.865  0.0900 -0.2268 -0.0243
16191TIP3   OH269987   0.133   0.686  12.751 -0.7100  0.0931  0.0826
16191TIP3    H169988   0.186   0.620  12.705  0.7766  1.1911  0.1602
16191TIP3    H269989   0.065   0.636  12.796 -0.3375 -1.2701 -0.8467
16192TIP3   OH269990   1.094   5.526   1.910  0.1070  0.2148 -0.4519
16192TIP3    H169991   1.186   5.547   1.926  0.3644 -2.0852  1.5706
16192TIP3    H269992   1.087   5.432   1.930 -2.7909  0.4619  0.0397
16193TIP3   OH269993   6.174   2.874   2.879 -0.0114 -0.2975 -0.1233
16193TIP3    H169994   6.241   2.872   2.810  0.3029 -1.4181  0.2072
16193TIP3    H269995   6.092   2.883   2.832  0.3362  0.7553 -0.5515
16194TIP3   OH269996   3.231   6.659   2.433 -0.1172  0.0470  0.0610
16194TIP3    H169997   3.242   6.741   2.384  0.6999  0.3384  0.7164
16194TIP3    H269998   3.145   6.627   2.408  0.5783 -0.1775 -2.1138
16195TIP3   OH269999   1.904   0.522  11.960  1.0055 -0.2975 -0.2151
16195TIP3    H170000   1.901   0.603  12.012  2.4912 -0.9566  0.9409
16195TIP3    H270001   1.826   0.474  11.986 -1.2244  1.7979 -2.7050
16196TIP3   OH270002   4.013   2.145   6.112 -0.3953  0.0765 -0.2305
16196TIP3    H170003   4.091   2.111   6.158 -1.6208 -1.4564  0.7963
16196TIP3    H270004   4.028   2.239   6.107  1.4711 -0.1659  0.0691
16197TIP3   OH270005   4.129   4.270  15.656 -0.0933  0.1537 -0.1433
16197TIP3    H170006   4.152   4.222  15.577  0.8903  1.7192 -0.8285
16197TIP3    H270007   4.120   4.203  15.724  0.5534 -1.0472 -1.2379
16198TIP3   OH270008   3.221   1.539  12.423 -0.3086 -0.3622  0.7255
16198TIP3    H170009   3.185   1.517  12.337  0.3820 -3.0222  1.0638
16198TIP3    H270010   3.144   1.547  12.480 -0.7500  1.1482 -0.0761
16199TIP3   OH270011   6.368   3.226  11.323  0.2588  0.3083 -0.5294
16199TIP3    H170012   6.400   3.282  11.252 -0.1815  0.2539 -0.7725
16199TIP3    H270013   6.447   3.199  11.369  0.5711  0.1263 -1.1585
16200TIP3   OH270014   4.538   3.035  14.157 -0.3079  0.1124 -0.5047
16200TIP3    H170015   4.580   2.980  14.090 -0.3333  1.6842 -1.8382
16200TIP3    H270016   4.489   3.100  14.107 -0.6771  1.0541  1.0536
16201TIP3   OH270017   3.436   1.642   3.654 -0.8486 -0.0088  0.1146
16201TIP3    H170018   3.458   1.689   3.573 -0.4487  2.2083  1.4714
16201TIP3    H270019   3.341   1.649   3.660 -0.7522  1.0500  0.5397
16202TIP3   OH270020   1.005   1.436   1.162  0.1941  0.0863 -0.8252
16202TIP3    H170021   1.017   1.531   1.168 -2.3859  0.3399  0.9366
16202TIP3    H270022   0.947   1.424   1.087  2.1551 -0.3105 -2.3380
16203TIP3   OH270023   5.241   0.530  13.919 -0.3729  0.0154 -0.3119
16203TIP3    H170024   5.330   0.500  13.940  0.0454  0.8326 -0.9060
16203TIP3    H270025   5.190   0.511  13.998  0.1877 -1.0344 -0.1937
16204TIP3   OH270026   0.292   3.410  15.027  0.0023 -0.1089 -0.4074
16204TIP3    H170027   0.327   3.493  15.057  1.2536 -1.0660  0.8237
16204TIP3    H270028   0.199   3.412  15.052  0.0580  0.8528 -0.2733
16205TIP3   OH270029   4.271   1.146  11.118  0.4151 -0.1464 -0.4907
16205TIP3    H170030   4.191   1.194  11.094  0.6118 -0.3902 -1.6610
16205TIP3    H270031   4.242   1.056  11.129  0.5401 -0.2518 -1.0077
16206TIP3   OH270032   5.216   5.214   1.269 -0.2901 -0.3157  0.3680
16206TIP3    H170033   5.151   5.184   1.333 -0.5916 -2.6325 -0.9451
16206TIP3    H270034   5.275   5.139   1.259  2.5685  1.7087  1.4680
16207TIP3   OH270035   6.384   1.059   5.068 -0.1057  0.6162 -0.2749
16207TIP3    H170036   6.423   1.137   5.107  1.2093  0.0772 -0.4615
16207TIP3    H270037   6.359   1.087   4.979 -3.8204  2.0537  1.1381
16208TIP3   OH270038   2.816   0.229  10.909 -0.0368  0.1841  0.1437
16208TIP3    H170039   2.740   0.248  10.965  1.5489  1.1886  2.0112
16208TIP3    H270040   2.849   0.315  10.883  0.9060 -0.2309 -0.0539
16209TIP3   OH270041   1.539   0.297   5.998  0.1176 -0.0582 -0.7200
16209TIP3    H170042   1.543   0.251   5.914 -0.8120 -1.2019 -0.1499
16209TIP3    H270043   1.509   0.230   6.060  1.3279  0.6346  0.6272
16210TIP3   OH270044   3.885   1.191   0.593 -0.3170  0.7198 -0.1434
16210TIP3    H170045   3.858   1.168   0.682  0.8962 -0.5484 -0.0850
16210TIP3    H270046   3.813   1.161   0.538 -1.7738  2.9178  0.5319
16211TIP3   OH270047   2.345   6.378  16.296  0.4357 -0.2423  0.3658
16211TIP3    H170048   2.253   6.396  16.273  0.0902 -2.1808  0.1293
16211TIP3    H270049   2.394   6.449  16.255 -0.8314  0.0232 -0.7395
16212TIP3   OH270050   1.644   0.575  13.111  0.0380 -0.5741 -0.3690
16212TIP3    H170051   1.649   0.639  13.040  0.5997  0.1346  0.2969
16212TIP3    H270052   1.640   0.490  13.068  2.7742 -0.2963 -1.1965
16213TIP3   OH270053   3.482   4.002   0.240 -0.2984  0.0899  0.5725
16213TIP3    H170054   3.453   4.045   0.320 -0.4372  0.4864  0.3098
16213TIP3    H270055   3.578   4.009   0.241 -0.3617  1.0769  0.1581
16214TIP3   OH270056   4.122   1.255   1.110  0.0431  0.7229 -0.6161
16214TIP3    H170057   4.158   1.294   1.030  1.0907 -1.8127 -1.4455
16214TIP3    H270058   4.027   1.269   1.103  0.1211  0.5419 -2.2964
16215TIP3   OH270059   1.526   6.444   2.106 -0.1786 -0.3007 -0.3823
16215TIP3    H170060   1.591   6.435   2.036 -2.2512  0.5232 -2.4766
16215TIP3    H270061   1.443   6.419   2.065 -1.2638 -0.9920  2.1466
16216TIP3   OH270062   3.152   4.283  15.735  0.8642  0.3755 -0.1820
16216TIP3    H170063   3.228   4.240  15.774 -0.0191 -0.9650  0.0978
16216TIP3    H270064   3.094   4.211  15.711 -0.2676  1.3834 -0.5044
16217TIP3   OH270065   2.124   6.478   4.770 -0.0812  0.0421 -0.0408
16217TIP3    H170066   2.045   6.530   4.751 -0.6073 -1.0254 -0.8576
16217TIP3    H270067   2.160   6.517   4.850 -1.6947  0.2589  0.6028
16218TIP3   OH270068   4.502   4.414   2.773 -0.5785  0.2684  0.2286
16218TIP3    H170069   4.479   4.325   2.799 -0.9297  0.5599  0.9174
16218TIP3    H270070   4.529   4.406   2.681 -1.4013 -0.4193  0.0400
16219TIP3   OH270071   4.041   5.055  16.847 -0.4756  0.2875  0.2521
16219TIP3    H170072   3.991   4.996  16.791  0.1665 -1.0477  1.0510
16219TIP3    H270073   4.132   5.034  16.827 -0.2476  0.4790  1.0933
16220TIP3   OH270074   5.528   3.542  11.846  0.2667 -0.4592 -0.5481
16220TIP3    H170075   5.447   3.591  11.832  0.7116  0.4186 -0.0493
16220TIP3    H270076   5.545   3.549  11.940  0.0196 -2.0685 -0.3680
16221TIP3   OH270077   5.016   5.547  15.472 -0.2738  0.1454  0.7314
16221TIP3    H170078   4.954   5.537  15.544 -0.0896  0.2803  0.9072
16221TIP3    H270079   4.974   5.503  15.398 -1.6835  2.2902  0.1905
16222TIP3   OH270080   5.131   3.449  15.855 -0.1383 -0.5432  0.3712
16222TIP3    H170081   5.105   3.367  15.898 -1.5451  0.1754  0.8895
16222TIP3    H270082   5.054   3.505  15.861  0.4201  0.3960 -1.0636
16223TIP3   OH270083   2.860   1.451   2.634  0.2387 -0.2157  0.0928
16223TIP3    H170084   2.797   1.466   2.705  0.3866 -1.2377  0.4493
16223TIP3    H270085   2.944   1.479   2.670  0.0867  0.6085 -0.1835
16224TIP3   OH270086   5.812   1.015   5.031 -0.6752 -0.6695 -0.3784
16224TIP3    H170087   5.855   0.933   5.054  0.3168 -0.0566 -0.0263
16224TIP3    H270088   5.863   1.049   4.957  2.3160  2.3072  2.8862
16225TIP3   OH270089   4.292   6.280  14.679 -0.0030 -0.0476  0.5547
16225TIP3    H170090   4.291   6.258  14.586 -0.4957 -1.0681  0.7828
16225TIP3    H270091   4.200   6.275  14.705  0.3623 -2.1539  1.6075
16226TIP3   OH270092   6.059   0.629   5.374 -0.6128 -0.5511  0.2151
16226TIP3    H170093   5.970   0.644   5.343 -0.4446  2.2069  0.9274
16226TIP3    H270094   6.102   0.714   5.368  1.8965 -1.7594  0.1863
16227TIP3   OH270095   3.575   2.041  13.112 -0.2729 -0.3267 -0.1161
16227TIP3    H170096   3.609   2.122  13.150 -0.1462 -0.8049  0.7804
16227TIP3    H270097   3.487   2.065  13.081 -0.4661  0.0057  0.6750
16228TIP3   OH270098   4.345   6.110  15.540 -0.0698 -0.2485  0.2079
16228TIP3    H170099   4.371   6.152  15.458  1.5919  1.2657  1.4735
16228TIP3    H270100   4.264   6.153  15.565  1.7405  2.5317  1.6208
16229TIP3   OH270101   4.174   0.542  17.050 -0.2337 -0.1802 -0.3210
16229TIP3    H170102   4.108   0.600  17.088 -1.6520 -1.3097 -1.0461
16229TIP3    H270103   4.137   0.454  17.057  0.8503 -0.7419 -1.4257
16230TIP3   OH270104   5.736   4.231   5.471 -0.0718 -0.1756 -0.0254
16230TIP3    H170105   5.761   4.286   5.396 -0.2215  1.5126  1.1280
16230TIP3    H270106   5.742   4.290   5.546 -1.1418 -1.5205  1.1296
16231TIP3   OH270107   6.592   1.470   3.980  0.2945 -0.6111 -0.2520
16231TIP3    H170108   6.584   1.375   3.975 -0.9051 -0.4910 -0.8300
16231TIP3    H270109   6.618   1.497   3.891  0.8077 -0.4157 -0.0443
16232TIP3   OH270110   4.707   1.983  14.771  0.1893  0.4221 -0.1389
16232TIP3    H170111   4.724   1.934  14.851  1.1306  1.1411  0.1197
16232TIP3    H270112   4.617   2.013  14.779 -0.0093 -0.2792  0.2347
16233TIP3   OH270113   5.479   5.032  11.695  0.5747 -0.6497 -0.2036
16233TIP3    H170114   5.535   5.004  11.767  0.0354  0.1658  0.5482
16233TIP3    H270115   5.498   5.125  11.685 -2.0506  0.1056  1.3863
16234TIP3   OH270116   0.370   4.308   4.838  0.1444 -0.7513 -0.1254
16234TIP3    H170117   0.433   4.249   4.795 -0.1965 -0.0584 -1.5978
16234TIP3    H270118   0.284   4.276   4.809 -0.0090  1.1205 -1.8499
16235TIP3   OH270119   0.383   6.483  14.822 -0.4711 -0.2154 -0.6977
16235TIP3    H170120   0.444   6.478  14.749 -0.6804 -2.8444 -0.7245
16235TIP3    H270121   0.406   6.409  14.878 -1.9763  0.2602  0.5900
16236TIP3   OH270122   2.084   2.771  14.349  0.5719 -0.3467 -0.5781
16236TIP3    H170123   2.131   2.709  14.403  1.9102  1.2734  0.1726
16236TIP3    H270124   2.003   2.790  14.397  1.0239 -0.1061  0.0901
16237TIP3   OH270125   5.204   0.363   1.799  0.1108 -0.1048  0.2970
16237TIP3    H170126   5.223   0.270   1.797  0.8001  0.0421 -0.4808
16237TIP3    H270127   5.290   0.405   1.806 -0.1162  0.5026 -0.4682
16238TIP3   OH270128   4.975   0.435  14.600  0.2976 -0.6713 -0.3002
16238TIP3    H170129   4.908   0.496  14.569 -0.0304 -1.8361 -1.9477
16238TIP3    H270130   4.960   0.356  14.549  0.7711 -2.1219  1.7510
16239TIP3   OH270131   3.769   3.074  11.199 -0.1420  0.1308 -0.3129
16239TIP3    H170132   3.811   3.019  11.265  0.4712  0.1843 -0.6597
16239TIP3    H270133   3.800   3.163  11.219 -2.4255  0.6216  1.2873
16240TIP3   OH270134   3.215   3.162  13.886  0.3625  0.1986 -0.0503
16240TIP3    H170135   3.301   3.140  13.850 -0.2338 -1.7235 -0.3603
16240TIP3    H270136   3.233   3.187  13.977  1.1010 -1.8185  0.3971
16241TIP3   OH270137   3.553   5.778   1.288  0.1761  0.1453  0.4620
16241TIP3    H170138   3.571   5.830   1.210  0.0043  1.1356  1.0593
16241TIP3    H270139   3.506   5.701   1.256  1.3454 -0.1448 -0.5536
16242TIP3   OH270140   5.521   4.652  16.706 -0.1431 -0.0804 -0.4010
16242TIP3    H170141   5.500   4.657  16.799  0.2949  0.3597 -0.3261
16242TIP3    H270142   5.617   4.647  16.703 -0.0483  1.8105 -0.9006
16243TIP3   OH270143   0.207   0.884   0.177 -0.1473  0.3714 -0.3562
16243TIP3    H170144   0.161   0.965   0.201  0.8497  0.5052  1.1399
16243TIP3    H270145   0.158   0.815   0.221  0.2814  0.3799  0.1362
16244TIP3   OH270146   6.292   0.141   1.652  0.6275 -0.2930  0.5537
16244TIP3    H170147   6.329   0.060   1.617  0.2523 -0.0606 -0.4053
16244TIP3    H270148   6.206   0.148   1.609  0.9442  0.9584  0.0934
16245TIP3   OH270149   2.218   2.012   2.291 -0.7046  0.0696  0.3985
16245TIP3    H170150   2.215   2.077   2.361  2.2748 -0.6271  1.2311
16245TIP3    H270151   2.257   2.058   2.217  2.2248 -0.8752  1.2479
16246TIP3   OH270152   4.094   1.473  15.831  0.5023  0.3089  0.2015
16246TIP3    H170153   4.180   1.494  15.794 -0.3263  1.3040 -1.1550
16246TIP3    H270154   4.031   1.514  15.773 -0.8833  0.6194  1.8620
16247TIP3   OH270155   2.149   4.575  15.002  0.1373  0.2818 -0.0510
16247TIP3    H170156   2.221   4.579  15.065 -0.2111  1.6976  0.2900
16247TIP3    H270157   2.190   4.551  14.919  1.1455  1.8740 -0.0348
16248TIP3   OH270158   0.498   6.540  13.480 -0.2771  0.3291  0.3357
16248TIP3    H170159   0.502   6.444  13.484  2.5455  0.2164 -3.0017
16248TIP3    H270160   0.419   6.558  13.429 -0.9738 -0.2111  1.2133
16249TIP3   OH270161   4.465   5.358   5.236  0.2944 -0.7251  0.0228
16249TIP3    H170162   4.559   5.352   5.252  0.0111 -2.1937  1.2189
16249TIP3    H270163   4.440   5.272   5.205 -0.5576 -0.1385 -0.9468
16250TIP3   OH270164   5.496   2.488  11.728 -0.1749 -0.2546 -0.1149
16250TIP3    H170165   5.447   2.570  11.717  0.5407  0.0196 -1.4100
16250TIP3    H270166   5.490   2.446  11.642  0.5430 -0.9492  0.1775
16251TIP3   OH270167   5.816   0.884  15.472 -0.3032 -0.0011  0.1079
16251TIP3    H170168   5.896   0.931  15.450 -0.1424 -0.2913  0.0706
16251TIP3    H270169   5.836   0.840  15.555 -0.0726 -0.9263 -0.4388
16252TIP3   OH270170   2.795   5.464   0.146 -0.0985  0.2337 -0.2661
16252TIP3    H170171   2.700   5.458   0.157  0.3231 -2.1008  2.8690
16252TIP3    H270172   2.818   5.384   0.098  0.5364 -0.5535  1.3195
16253TIP3   OH270173   4.015   6.544  12.258 -0.4795  0.2289 -0.1288
16253TIP3    H170174   4.010   6.570  12.351 -1.1176 -0.5492  0.0556
16253TIP3    H270175   4.109   6.534  12.242 -0.4602 -1.7799  1.0435
16254TIP3   OH270176   0.428   4.259  14.271 -0.6468  0.1203  0.5507
16254TIP3    H170177   0.473   4.221  14.346 -1.2671  0.6959  1.2161
16254TIP3    H270178   0.488   4.326  14.239 -0.4612 -0.0045  0.6355
16255TIP3   OH270179   5.284   3.054   0.148 -0.1862  0.0600 -0.7113
16255TIP3    H170180   5.225   2.982   0.171  1.6937 -1.7682 -1.4277
16255TIP3    H270181   5.330   3.073   0.230 -1.0144  0.7818 -0.4066
16256TIP3   OH270182   6.210   6.467  11.257 -0.1050  0.0445 -0.1581
16256TIP3    H170183   6.271   6.519  11.205  0.5255 -0.8984 -0.3715
16256TIP3    H270184   6.165   6.412  11.194 -0.9932  0.5437  0.0333
16257TIP3   OH270185   4.321   6.521  12.187  0.0807  0.3869  0.3837
16257TIP3    H170186   4.305   6.427  12.191  2.0000  0.0781  1.6464
16257TIP3    H270187   4.373   6.534  12.108 -0.5867  0.4562 -0.0455
16258TIP3   OH270188   4.860   2.155   0.969 -0.2490  0.4320 -0.2631
16258TIP3    H170189   4.846   2.176   1.061 -0.4629  0.7330 -0.3637
16258TIP3    H270190   4.776   2.172   0.928 -0.4863 -0.8506 -0.3034
16259TIP3   OH270191   3.425   5.929  13.771 -0.2372 -0.4747 -0.1347
16259TIP3    H170192   3.346   5.879  13.747 -0.8503  0.9717 -1.1841
16259TIP3    H270193   3.469   5.873  13.835 -0.2034 -3.0114 -2.2607
16260TIP3   OH270194   0.758   1.184   6.098 -0.6595  0.3947  0.3496
16260TIP3    H170195   0.713   1.122   6.154  1.4287 -1.0466  0.4915
16260TIP3    H270196   0.808   1.130   6.037  0.4735  1.9334 -0.1150
16261TIP3   OH270197   5.489   2.552   0.018  0.3453 -0.1288  0.2094
16261TIP3    H170198   5.519   2.603  -0.056  0.2682  0.2261  0.4218
16261TIP3    H270199   5.536   2.469   0.011 -0.3509 -0.4456 -0.7575
16262TIP3   OH270200   6.701   2.139   5.294  0.6512 -0.4853  0.2885
16262TIP3    H170201   6.689   2.126   5.200  1.0698 -0.1379  0.1878
16262TIP3    H270202   6.647   2.071   5.334  1.0211 -1.0870 -0.2160
16263TIP3   OH270203   1.339   3.540   4.256 -0.4772  0.8671 -0.5743
16263TIP3    H170204   1.248   3.547   4.225 -0.2567  1.6827 -1.0469
16263TIP3    H270205   1.337   3.468   4.319 -1.7895  1.8414  0.5477
16264TIP3   OH270206   1.383   4.455  16.791 -0.0194 -0.6798  0.5268
16264TIP3    H170207   1.331   4.479  16.714  0.2765 -0.1711  0.4842
16264TIP3    H270208   1.407   4.363  16.776 -0.9267 -0.9276  0.5534
16265TIP3   OH270209   2.796   5.193   3.590 -0.3563 -0.1108 -0.1825
16265TIP3    H170210   2.841   5.124   3.638 -0.8625 -0.3261 -0.0208
16265TIP3    H270211   2.796   5.163   3.499  0.7079  0.3530 -0.3446
16266TIP3   OH270212   6.481   0.399  15.462 -0.5020 -0.2905 -0.4327
16266TIP3    H170213   6.389   0.424  15.467 -0.3969  0.1444 -0.6686
16266TIP3    H270214   6.489   0.357  15.377 -1.1452 -3.0552  0.8032
16267TIP3   OH270215   4.806   1.006  15.975 -0.1691  0.0834  0.4513
16267TIP3    H170216   4.813   0.912  15.957 -0.8414  0.4112 -1.7626
16267TIP3    H270217   4.894   1.041  15.959  0.4272 -0.3441  2.6267
16268TIP3   OH270218   6.245   0.976  10.820  0.0980  0.0576  0.2792
16268TIP3    H170219   6.328   0.956  10.776  0.8497  0.3182  1.5193
16268TIP3    H270220   6.240   1.072  10.819 -1.1883 -0.0138 -1.5533
16269TIP3   OH270221   1.279   1.542   5.326 -0.2835 -0.1179  0.1936
16269TIP3    H170222   1.282   1.636   5.343  1.0660  0.2464 -1.8558
16269TIP3    H270223   1.286   1.535   5.230  0.3090 -2.3294  0.3662
16270TIP3   OH270224   5.975   6.665  15.488 -0.6374 -0.1015  0.1595
16270TIP3    H170225   5.975   6.595  15.422 -0.8252 -0.1773  0.2389
16270TIP3    H270226   5.912   6.635  15.554 -3.6213  1.8758 -1.6707
16271TIP3   OH270227   1.443   2.614  13.122 -0.3430  0.1783 -0.3763
16271TIP3    H170228   1.423   2.608  13.216 -0.4073 -0.0565 -0.4061
16271TIP3    H270229   1.502   2.541  13.105 -0.3499  0.2073 -0.5235
16272TIP3   OH270230   4.304   4.795  14.687 -0.2749  0.1699  0.0488
16272TIP3    H170231   4.363   4.739  14.637  0.3482  0.0135  0.9512
16272TIP3    H270232   4.229   4.808  14.630  1.4481  1.9201 -1.9125
16273TIP3   OH270233   0.284   2.779   0.075 -0.9499  0.0118 -0.8145
16273TIP3    H170234   0.229   2.783   0.153  0.9017 -3.3467  0.7972
16273TIP3    H270235   0.349   2.848   0.087 -0.5343 -0.6278  0.8119
16274TIP3   OH270236   1.489   4.757  15.304  0.2522 -0.6375  0.2739
16274TIP3    H170237   1.535   4.841  15.312 -1.0456 -0.0514  1.9371
16274TIP3    H270238   1.549   4.701  15.256  2.1400  0.5216  1.2425
16275TIP3   OH270239   3.521   3.803   4.910 -0.6837 -0.1102 -0.2992
16275TIP3    H170240   3.431   3.833   4.915 -0.0678  1.6000  1.2816
16275TIP3    H270241   3.515   3.711   4.886 -2.8372  0.0021 -0.2390
16276TIP3   OH270242   4.264   4.106   0.136 -0.2857  0.8541  0.2856
16276TIP3    H170243   4.334   4.161   0.171 -1.6401  2.2954  0.8001
16276TIP3    H270244   4.215   4.163   0.077 -1.2952  0.0012  0.2757
16277TIP3   OH270245   1.101   1.323   0.093 -0.0273 -0.5933  0.6820
16277TIP3    H170246   1.040   1.391   0.121 -0.0375 -0.1164 -0.4488
16277TIP3    H270247   1.166   1.369   0.039 -0.2766 -1.5310 -0.4547
16278TIP3   OH270248   4.315   2.113   2.575  0.2993  0.4530  0.1833
16278TIP3    H170249   4.360   2.063   2.507 -0.1196 -0.8107  0.8212
16278TIP3    H270250   4.381   2.128   2.642  0.2609  0.1695  0.2879
16279TIP3   OH270251   2.495   5.851   0.276 -0.0234 -0.0985  0.6487
16279TIP3    H170252   2.439   5.868   0.200 -1.7202  0.2879  1.9764
16279TIP3    H270253   2.583   5.871   0.245 -0.7118  0.1941 -1.1841
16280TIP3   OH270254   1.789   4.803  15.558 -0.2927 -0.1035 -0.1281
16280TIP3    H170255   1.749   4.857  15.626  0.5712 -0.0808  0.3719
16280TIP3    H270256   1.878   4.836  15.551  0.4254 -1.8276  0.5946
16281TIP3   OH270257   4.408   3.783   5.295 -0.5283 -0.5542 -0.3242
16281TIP3    H170258   4.335   3.726   5.315 -0.6750 -0.1133  0.4078
16281TIP3    H270259   4.448   3.803   5.380 -0.8903  0.9677 -0.4931
16282TIP3   OH270260   1.946   1.940  13.882  0.4809 -0.2496 -0.3392
16282TIP3    H170261   1.950   1.845  13.870  2.9135 -0.2523  0.3409
16282TIP3    H270262   1.887   1.951  13.957  1.4631 -1.3200  0.6165
16283TIP3   OH270263   3.401   1.267   5.274  0.3991 -0.6534 -0.1475
16283TIP3    H170264   3.356   1.323   5.336  1.8202  0.4768 -0.1030
16283TIP3    H270265   3.399   1.180   5.314 -0.2141 -0.2680  0.6610
16284TIP3   OH270266   0.827   4.551   2.710 -0.6555  0.2435 -0.1335
16284TIP3    H170267   0.774   4.601   2.772 -0.0571 -1.1590  1.5435
16284TIP3    H270268   0.786   4.464   2.708  0.1234 -0.1150 -0.6927
16285TIP3   OH270269   1.455   3.379   5.661 -0.5642  0.6808 -0.2798
16285TIP3    H170270   1.545   3.347   5.656 -0.7056  0.0937  0.7119
16285TIP3    H270271   1.413   3.347   5.581  0.8451  3.3791 -2.1822
16286TIP3   OH270272   6.110   2.621  13.772 -0.0707  0.0324 -0.2166
16286TIP3    H170273   6.086   2.564  13.844  1.7811  2.3852  2.3700
16286TIP3    H270274   6.044   2.691  13.774  0.0111  0.1326 -0.7936
16287TIP3   OH270275   0.585   5.383  12.365 -0.1711 -0.8256 -0.7452
16287TIP3    H170276   0.495   5.357  12.346 -0.0043 -1.7835 -0.2780
16287TIP3    H270277   0.592   5.472  12.332 -1.1212 -0.9524 -1.3050
16288TIP3   OH270278   2.511   3.542  14.019 -0.3611 -0.3217  0.0889
16288TIP3    H170279   2.575   3.493  14.070  1.7791  0.0486 -2.1494
16288TIP3    H270280   2.535   3.527  13.928 -1.1831  2.8362 -0.7350
16289TIP3   OH270281   0.813   3.538  14.898  0.1220  0.2422 -0.2639
16289TIP3    H170282   0.837   3.623  14.936 -0.0756 -1.4333  3.8774
16289TIP3    H270283   0.890   3.483  14.911 -1.5526 -1.6667  1.8947
16290TIP3   OH270284   1.715   5.974   3.261  0.4683 -0.1012 -0.6020
16290TIP3    H170285   1.801   6.014   3.272  0.0311  1.0500 -1.3252
16290TIP3    H270286   1.731   5.899   3.204  1.2883 -0.9814  0.7584
16291TIP3   OH270287   2.507   5.864  15.587  0.5234  0.0882 -0.1642
16291TIP3    H170288   2.519   5.770  15.603  0.5321 -0.1804 -1.6274
16291TIP3    H270289   2.592   5.894  15.557  0.6835  0.6987  0.9017
16292TIP3   OH270290   5.875   1.151  15.156 -0.5002 -0.0608  0.1453
16292TIP3    H170291   5.913   1.227  15.113  1.7595 -1.0627  0.3436
16292TIP3    H270292   5.789   1.140  15.114  0.6307  0.4620 -2.3786
16293TIP3   OH270293   3.707   6.541  11.355 -0.1808 -0.5863 -1.1281
16293TIP3    H170294   3.618   6.510  11.341 -0.2371 -0.1179 -1.8434
16293TIP3    H270295   3.762   6.486  11.300  0.0991 -1.5446  0.0886
16294TIP3   OH270296   4.118   4.314  11.742 -0.4750 -0.0506 -0.1982
16294TIP3    H170297   4.064   4.392  11.751 -0.4374  0.0458 -0.7879
16294TIP3    H270298   4.149   4.317  11.651  0.7919  0.0855  0.2238
16295TIP3   OH270299   4.912   1.525  16.465  0.6343  0.4818  0.0568
16295TIP3    H170300   4.998   1.561  16.488  0.1480  0.7556  1.4607
16295TIP3    H270301   4.900   1.549  16.373  2.5383 -0.5049 -0.4692
16296TIP3   OH270302   3.406   5.783  15.445 -0.0408 -0.5716 -0.4389
16296TIP3    H170303   3.358   5.836  15.380  2.1151 -0.2822 -1.8481
16296TIP3    H270304   3.414   5.840  15.521  3.1200  1.6366 -2.2821
16297TIP3   OH270305   4.250   1.478  11.251  0.0128  0.0743  0.1318
16297TIP3    H170306   4.190   1.509  11.183  1.0839 -0.2034 -0.9534
16297TIP3    H270307   4.334   1.467  11.206  0.3520 -1.6328  1.1473
16298TIP3   OH270308   2.399   0.252   0.521 -0.6580  0.9596 -0.5789
16298TIP3    H170309   2.350   0.176   0.553  0.8335 -0.1069 -0.7204
16298TIP3    H270310   2.333   0.315   0.495 -1.9308  0.0173  0.3051
16299TIP3   OH270311   2.084   3.123   6.306  0.2652 -0.5787  0.1042
16299TIP3    H170312   2.016   3.057   6.294  0.5483 -0.9878  0.7301
16299TIP3    H270313   2.042   3.191   6.359  0.1756 -0.5672  0.0192
16300TIP3   OH270314   6.102   0.776  15.165  0.2664 -0.3355  0.8987
16300TIP3    H170315   6.118   0.685  15.190 -1.4786 -0.9218  0.0046
16300TIP3    H270316   6.006   0.783  15.164  0.3883  1.9440  2.4528
16301TIP3   OH270317   3.829   2.408  17.203 -0.1302  0.2526 -0.4965
16301TIP3    H170318   3.902   2.470  17.212  0.7719 -0.8225 -0.2947
16301TIP3    H270319   3.769   2.451  17.142  1.1891  0.6643 -1.5392
16302TIP3   OH270320   3.840   2.341   5.845 -0.0752 -0.2990 -0.4921
16302TIP3    H170321   3.859   2.247   5.843 -2.2773 -0.8554  2.1732
16302TIP3    H270322   3.867   2.369   5.932 -2.2316  0.8877 -0.1657
16303TIP3   OH270323   2.795   0.949  12.885 -0.1357  0.3099 -0.3170
16303TIP3    H170324   2.702   0.954  12.907 -0.1978  1.6509 -0.8059
16303TIP3    H270325   2.798   0.906  12.800 -0.2655 -0.2814 -0.0214
16304TIP3   OH270326   1.569   2.446   5.012 -0.4747  1.1482  0.1557
16304TIP3    H170327   1.554   2.352   5.015  0.9319  0.6178 -4.7406
16304TIP3    H270328   1.491   2.482   4.969  0.2131  1.8033 -0.5689
16305TIP3   OH270329   5.128   1.340  17.097  0.7494  0.2552 -0.8312
16305TIP3    H170330   5.142   1.412  17.036  2.6608 -1.2327 -2.1776
16305TIP3    H270331   5.213   1.326  17.138  0.3395 -1.1008 -0.4186
16306TIP3   OH270332   4.257   5.295   1.860  0.3085 -0.2825 -0.3948
16306TIP3    H170333   4.224   5.272   1.773  0.3903 -0.0288 -0.4949
16306TIP3    H270334   4.328   5.358   1.842 -0.8135  1.0963 -0.0668
16307TIP3   OH270335   6.009   1.416  16.057 -0.3375  0.2628 -0.0439
16307TIP3    H170336   5.983   1.502  16.089  0.6230  0.3728  0.4760
16307TIP3    H270337   6.076   1.434  15.991  0.1101 -0.0870  0.3053
16308TIP3   OH270338   3.192   5.862   5.421  0.2118  0.3586 -0.4205
16308TIP3    H170339   3.172   5.856   5.327  0.6324 -0.0897 -0.4815
16308TIP3    H270340   3.168   5.951   5.444 -0.8001  0.1868 -0.7473
16309TIP3   OH270341   1.770   1.639   5.829 -0.0789  0.1647 -0.7645
16309TIP3    H170342   1.751   1.722   5.874 -0.2464  0.6068 -1.6535
16309TIP3    H270343   1.865   1.630   5.836 -0.2896 -0.7059  1.3208
16310TIP3   OH270344   3.934   4.299  11.473 -0.8763 -0.4597  0.2226
16310TIP3    H170345   3.853   4.301  11.421 -0.4088 -1.4179 -0.5573
16310TIP3    H270346   4.004   4.304  11.408 -0.3041  0.0717  0.8794
16311TIP3   OH270347   4.006   3.223  13.041  0.5281  0.2960  0.3731
16311TIP3    H170348   3.993   3.317  13.054 -1.4827  0.1194 -0.1275
16311TIP3    H270349   4.094   3.215  13.005  0.5134  2.0397 -0.0872
16312TIP3   OH270350   0.353   5.269   4.129 -0.1578 -0.3014  0.3224
16312TIP3    H170351   0.259   5.280   4.136  0.1939  2.2396  1.8591
16312TIP3    H270352   0.368   5.242   4.038 -2.4697 -2.4362  0.5485
16313TIP3   OH270353   5.152   2.587   0.321 -0.2974  0.1962  0.2745
16313TIP3    H170354   5.164   2.535   0.400 -1.1273  1.2566  1.1144
16313TIP3    H270355   5.225   2.649   0.323  0.6380 -0.8628 -0.6761
16314TIP3   OH270356   0.791   5.224   5.028 -0.3785  0.7254 -0.1831
16314TIP3    H170357   0.734   5.299   5.049  1.7510  1.5253  3.0605
16314TIP3    H270358   0.777   5.163   5.101 -0.0975 -0.8758 -1.4592
16315TIP3   OH270359   6.297   3.733   3.014  0.0407 -0.1361 -0.3224
16315TIP3    H170360   6.370   3.674   3.000 -0.2672 -0.5494 -0.1839
16315TIP3    H270361   6.322   3.785   3.091 -0.3553 -1.1365  0.4980
16316TIP3   OH270362   1.077   4.121   4.584 -0.2283  0.5375  0.3929
16316TIP3    H170363   1.133   4.048   4.557 -0.6958 -0.4476  1.9966
16316TIP3    H270364   1.132   4.174   4.642 -0.2721  0.7840  0.2102
16317TIP3   OH270365   0.492   0.702   5.927  0.1669 -0.5360 -0.0196
16317TIP3    H170366   0.432   0.628   5.938 -0.6239  0.1163  0.1152
16317TIP3    H270367   0.484   0.751   6.009  0.6357 -0.2695 -0.1343
16318TIP3   OH270368   1.338   1.097  13.299 -0.0650 -0.1316 -0.4297
16318TIP3    H170369   1.267   1.090  13.234 -0.7098 -2.8293  0.5007
16318TIP3    H270370   1.393   1.020  13.282  0.4993 -0.1354  1.3821
16319TIP3   OH270371   0.855   2.634  12.459 -0.5477 -0.1435  0.3732
16319TIP3    H170372   0.894   2.694  12.396  0.5079 -0.6692  0.5187
16319TIP3    H270373   0.921   2.566  12.472 -1.3746 -0.8654  0.8776
16320TIP3   OH270374   4.162   4.429   0.793  0.2129 -0.0354 -0.5476
16320TIP3    H170375   4.151   4.364   0.723 -0.6588 -0.1871 -0.2780
16320TIP3    H270376   4.207   4.502   0.751  1.3403 -0.8814 -0.8166
16321TIP3   OH270377   2.642   0.614   4.229  0.6432 -0.0556 -0.1561
16321TIP3    H170378   2.563   0.646   4.186  0.1830  1.2364  1.6020
16321TIP3    H270379   2.684   0.693   4.263  1.5511 -0.9479  0.8174
16322TIP3   OH270380   5.895   0.086   5.630  0.4917 -0.6610 -0.2529
16322TIP3    H170381   5.875   0.099   5.723  0.8875 -0.2626 -0.2251
16322TIP3    H270382   5.812   0.104   5.585  0.4595 -0.2495 -0.0306
16323TIP3   OH270383   4.531   1.731  10.623 -0.1142  0.5190 -0.1556
16323TIP3    H170384   4.586   1.804  10.594 -1.2890  1.1161 -0.9294
16323TIP3    H270385   4.518   1.678  10.544  1.2425 -0.8987  0.5316
16324TIP3   OH270386   4.270   6.035   4.531 -0.3356 -0.1263 -0.1122
16324TIP3    H170387   4.266   6.124   4.566 -1.2960  0.9319 -2.8108
16324TIP3    H270388   4.229   5.981   4.598 -1.5184  1.7543  0.7186
16325TIP3   OH270389   2.617   5.201   2.046 -0.1224 -0.1860 -0.1923
16325TIP3    H170390   2.620   5.239   2.135  2.1683 -1.2033  0.2071
16325TIP3    H270391   2.624   5.107   2.060  0.0895 -0.3616 -1.4634
16326TIP3   OH270392   6.206   5.802   3.188 -0.1599  0.4517  0.2344
16326TIP3    H170393   6.271   5.781   3.122  0.0913 -0.5874  0.7937
16326TIP3    H270394   6.130   5.749   3.164 -1.1232  2.2934 -0.9054
16327TIP3   OH270395   5.161   1.333   1.074 -0.0488 -0.2142  0.0061
16327TIP3    H170396   5.157   1.323   1.169  0.5417  1.1305  0.1783
16327TIP3    H270397   5.084   1.385   1.053 -0.7251 -1.3352 -0.3886
16328TIP3   OH270398   2.891   0.665  12.424 -0.0340 -0.5321 -0.7516
16328TIP3    H170399   2.948   0.726  12.377 -0.1228  0.8414  0.8969
16328TIP3    H270400   2.802   0.695  12.406 -0.0707 -0.0165  0.2483
16329TIP3   OH270401   5.604   5.891  12.840  0.3419  0.3851 -0.0352
16329TIP3    H170402   5.607   5.934  12.755 -0.7403 -1.9693 -1.3451
16329TIP3    H270403   5.634   5.957  12.902  2.9576  1.5921 -2.4553
16330TIP3   OH270404   4.563   5.803  13.965  0.1799  0.0580 -0.0098
16330TIP3    H170405   4.489   5.772  13.913 -0.3796  2.6153 -0.8147
16330TIP3    H270406   4.532   5.799  14.056 -1.2742  1.8476 -0.3949
16331TIP3   OH270407   1.430   4.067  11.789 -0.2360 -0.1373  0.2968
16331TIP3    H170408   1.382   4.149  11.802 -0.9180 -0.0243 -2.5297
16331TIP3    H270409   1.390   4.006  11.851 -0.2030  1.4444  1.9284
16332TIP3   OH270410   2.156   4.210  14.361 -0.7362  0.2632  0.3703
16332TIP3    H170411   2.191   4.205  14.273 -1.3031  2.3150 -0.0022
16332TIP3    H270412   2.065   4.183  14.352 -0.2696 -1.4722  0.6952
16333TIP3   OH270413   2.505   5.664   4.558 -0.7148 -0.0811  0.2465
16333TIP3    H170414   2.472   5.747   4.522  0.2441  0.5548  0.8180
16333TIP3    H270415   2.588   5.687   4.599 -0.0708 -1.4683 -0.2465
16334TIP3   OH270416   1.894   2.072  13.316 -0.2112  0.6116  0.6572
16334TIP3    H170417   1.900   2.167  13.330  2.4368  0.5453  0.3001
16334TIP3    H270418   1.928   2.033  13.396  1.0872  0.0216 -0.1596
16335TIP3   OH270419   5.746   6.531  12.526 -0.4049  0.4731 -0.1391
16335TIP3    H170420   5.793   6.448  12.521  0.0155  0.6156  1.2345
16335TIP3    H270421   5.690   6.523  12.603 -1.0204  1.1289 -0.5116
16336TIP3   OH270422   2.181   4.613   0.532 -0.1184 -0.4614 -0.2489
16336TIP3    H170423   2.268   4.602   0.570 -0.2843  2.2665  0.9956
16336TIP3    H270424   2.198   4.653   0.447 -0.2165  1.3052  0.5536
16337TIP3   OH270425   3.967   2.529   3.311  0.0192  0.0386  0.6068
16337TIP3    H170426   3.932   2.478   3.384  0.8883 -1.9412 -0.3286
16337TIP3    H270427   3.890   2.572   3.273 -0.8930 -1.3382  0.8396
16338TIP3   OH270428   6.483   3.559  13.126  0.4042 -0.1541  0.0684
16338TIP3    H170429   6.451   3.517  13.206  0.2894  0.5671  0.4007
16338TIP3    H270430   6.514   3.645  13.154  0.2832  0.1359 -0.6723
16339TIP3   OH270431   0.396   2.945  11.115 -0.7609  0.0345 -0.1595
16339TIP3    H170432   0.301   2.935  11.104 -0.6373 -0.4700 -0.7935
16339TIP3    H270433   0.411   3.039  11.109 -1.2030  0.1051 -0.2067
16340TIP3   OH270434   6.146   3.331   3.891  0.3971  0.1364  0.0606
16340TIP3    H170435   6.077   3.267   3.906  0.3618 -0.2095 -1.5421
16340TIP3    H270436   6.220   3.300   3.944  0.4892 -1.4169 -0.9773
16341TIP3   OH270437   6.004   6.044   5.594 -0.1605  0.0179 -0.1551
16341TIP3    H170438   6.098   6.035   5.609 -0.3420 -1.2646  0.3091
16341TIP3    H270439   5.979   6.121   5.645  0.7671  0.8507 -0.9333
16342TIP3   OH270440   0.992   2.415  12.522  0.1929  0.0054 -0.2658
16342TIP3    H170441   0.963   2.396  12.612  1.6782 -1.4289 -0.0641
16342TIP3    H270442   1.068   2.359  12.509  1.5639  2.0982 -1.5563
16343TIP3   OH270443   4.044   5.213   0.118  0.3824 -0.7242  0.1694
16343TIP3    H170444   4.120   5.185   0.169  0.4565 -0.4449  0.2190
16343TIP3    H270445   3.969   5.170   0.160  0.3328  0.2634  1.1194
16344TIP3   OH270446   5.650   1.273  14.117 -0.0704  0.2423  0.1986
16344TIP3    H170447   5.657   1.243  14.027 -1.0187 -0.3632  0.3281
16344TIP3    H270448   5.669   1.196  14.170  0.2067  0.5305  0.5263
16345TIP3   OH270449   5.939   6.593   2.778  0.2217  0.4639 -0.2099
16345TIP3    H170450   5.895   6.650   2.715  0.7515  0.0984 -0.9190
16345TIP3    H270451   5.890   6.511   2.773  0.1908  0.4734 -0.0577
16346TIP3   OH270452   3.894   6.633  16.440 -0.3603  0.2551 -0.4397
16346TIP3    H170453   3.809   6.659  16.405  0.0956  1.0175 -0.9920
16346TIP3    H270454   3.957   6.686  16.392  0.5366 -1.3354 -1.0833
16347TIP3   OH270455   3.180   6.631  15.501  0.8712 -0.4131  0.0348
16347TIP3    H170456   3.256   6.626  15.558  0.7745 -0.9636  0.1217
16347TIP3    H270457   3.120   6.564  15.534  0.7613 -0.6523 -0.6327
16348TIP3   OH270458   3.151   2.005  14.238 -0.2029  0.4169 -0.1272
16348TIP3    H170459   3.132   2.019  14.331 -0.7603  1.6495 -0.4245
16348TIP3    H270460   3.092   1.935  14.212 -0.8228  0.8219  0.1790
16349TIP3   OH270461   5.022   4.638   4.865  0.1769 -0.4736 -0.1063
16349TIP3    H170462   4.968   4.573   4.909  0.3587  0.1241  1.0169
16349TIP3    H270463   5.108   4.597   4.856 -0.1098 -0.9440 -0.7601
16350TIP3   OH270464   6.161   4.789  12.220 -0.3902 -0.5207  0.0707
16350TIP3    H170465   6.253   4.762  12.226  0.6787  2.5098 -2.0721
16350TIP3    H270466   6.115   4.710  12.191  1.5026 -2.0690  1.1453
16351TIP3   OH270467   2.942   2.932  16.603 -0.4874 -0.3849  0.6212
16351TIP3    H170468   2.953   2.933  16.508 -0.3648  0.9546  0.6290
16351TIP3    H270469   2.847   2.924  16.617 -0.5904  0.3701  0.3654
16352TIP3   OH270470   3.891   5.845   2.374 -0.1345 -0.1827  0.5278
16352TIP3    H170471   3.974   5.807   2.346  0.2093  0.7303  0.2977
16352TIP3    H270472   3.832   5.831   2.301 -0.1026 -0.5695  0.5753
16353TIP3   OH270473   4.431   6.549   3.632  0.0375 -0.0332 -0.4741
16353TIP3    H170474   4.409   6.608   3.559 -0.6531  0.5266  0.1756
16353TIP3    H270475   4.477   6.605   3.695 -0.3237 -0.2658 -0.0018
16354TIP3   OH270476   5.736   4.020  11.417 -0.8983 -0.0540  0.7150
16354TIP3    H170477   5.692   4.100  11.389  1.7413  1.0371 -0.4752
16354TIP3    H270478   5.679   3.949  11.386 -1.9986  1.3122 -0.4402
16355TIP3   OH270479   1.005   5.761   4.575 -0.3517 -0.6692  0.2528
16355TIP3    H170480   1.007   5.812   4.494 -2.2764 -0.4259  0.3508
16355TIP3    H270481   1.065   5.807   4.634 -0.5254  0.3130 -0.3312
16356TIP3   OH270482   1.771   5.759   3.064 -0.5176 -0.3702 -0.3212
16356TIP3    H170483   1.816   5.701   3.002 -0.6358 -0.2608 -0.5127
16356TIP3    H270484   1.678   5.750   3.042 -0.7688 -2.1969  1.4681
16357TIP3   OH270485   4.858   6.273  16.202  0.0404 -0.2830 -0.4088
16357TIP3    H170486   4.770   6.293  16.234  0.6191 -0.6062  1.4254
16357TIP3    H270487   4.858   6.178  16.192  0.4658 -0.3681  0.4285
16358TIP3   OH270488   5.335   0.500  16.015 -0.5129  0.4485  0.1344
16358TIP3    H170489   5.381   0.417  16.029 -0.3404 -0.0454 -3.0219
16358TIP3    H270490   5.388   0.545  15.948 -0.9374  2.8471  1.3885
16359TIP3   OH270491   1.293   6.778   1.721 -0.2531 -0.3431 -0.0833
16359TIP3    H170492   1.242   6.793   1.801 -0.3522 -0.6825 -0.0815
16359TIP3    H270493   1.281   6.858   1.670 -1.8178 -0.8981 -0.6355
16360TIP3   OH270494   4.688   6.005   0.990 -0.0495 -0.1082  0.3634
16360TIP3    H170495   4.624   6.044   0.932  1.8521  1.5585 -0.6508
16360TIP3    H270496   4.664   6.036   1.077 -0.7393  0.3043  0.0268
16361TIP3   OH270497   2.291   3.477  15.806  0.1108 -0.2416 -0.1621
16361TIP3    H170498   2.269   3.552  15.752 -0.4003 -0.7325 -0.6427
16361TIP3    H270499   2.236   3.406  15.773  2.2461 -1.4424 -1.2122
16362TIP3   OH270500   0.342   1.902  16.469  0.7648  0.4694  0.9883
16362TIP3    H170501   0.408   1.948  16.417 -1.7250  0.3666 -2.4724
16362TIP3    H270502   0.378   1.814  16.481  1.6997  0.7123  0.0383
16363TIP3   OH270503   3.189   4.069   4.453  0.2787 -0.3100 -0.3780
16363TIP3    H170504   3.118   4.023   4.408  0.2795  0.6412 -1.3672
16363TIP3    H270505   3.173   4.161   4.436  0.5255  0.0477  1.2325
16364TIP3   OH270506   4.743   1.455  14.594  0.2828  0.1325  0.2982
16364TIP3    H170507   4.794   1.517  14.542 -0.0804 -0.3239 -0.6094
16364TIP3    H270508   4.673   1.508  14.632  0.5339  0.4631  0.3055
16365TIP3   OH270509   1.103   2.796   5.865  0.6012  0.1372 -0.2568
16365TIP3    H170510   1.175   2.815   5.926 -0.2531 -1.2075  1.2046
16365TIP3    H270511   1.024   2.815   5.915 -0.1025  0.5922 -1.5161
16366TIP3   OH270512   1.820   0.024   5.450 -0.5111 -0.1236 -0.3381
16366TIP3    H170513   1.882  -0.016   5.512 -0.5016 -2.0360 -1.5559
16366TIP3    H270514   1.804   0.111   5.486  2.4871  0.2315  0.3059
16367TIP3   OH270515   3.262   4.335   1.491 -0.0839  0.1049 -0.4652
16367TIP3    H170516   3.200   4.272   1.455 -1.4823  1.6474 -0.8637
16367TIP3    H270517   3.275   4.307   1.581 -1.4806 -0.1876 -0.3329
16368TIP3   OH270518   5.409   3.227  15.872 -0.1025  0.0786  0.4730
16368TIP3    H170519   5.371   3.254  15.955 -0.5747 -2.1312  1.0136
16368TIP3    H270520   5.504   3.235  15.885 -0.1818 -0.1500  1.1890
16369TIP3   OH270521   1.892   2.205  13.756  0.2021  0.2825 -0.7608
16369TIP3    H170522   1.917   2.113  13.747 -3.8090 -0.9425 -0.4168
16369TIP3    H270523   1.850   2.210  13.842  0.2401  2.4081 -0.8482
16370TIP3   OH270524   2.725   6.250   4.936  0.4766  0.1527  0.1820
16370TIP3    H170525   2.657   6.255   5.003  0.5020  2.2662  0.0967
16370TIP3    H270526   2.682   6.212   4.860  0.0791 -0.9617  0.9661
16371TIP3   OH270527   5.380   0.219   5.363 -0.2620  0.6433 -0.2927
16371TIP3    H170528   5.356   0.273   5.438  0.8818  0.4797  0.2014
16371TIP3    H270529   5.333   0.137   5.377  0.9274  0.1473  0.9166
16372TIP3   OH270530   6.436   4.684   5.111  0.2803 -0.4496 -0.4571
16372TIP3    H170531   6.407   4.654   5.025  1.5414 -2.9089 -0.0602
16372TIP3    H270532   6.489   4.762   5.093  2.3352 -2.1865 -2.1203
16373TIP3   OH270533   5.276   0.619  13.055  0.2430  0.3699  0.1754
16373TIP3    H170534   5.240   0.584  12.974  0.3804 -0.1095  0.3203
16373TIP3    H270535   5.327   0.547  13.091  0.0967  0.5507  0.7404
16374TIP3   OH270536   2.600   4.057   4.471 -0.3480  0.0386  0.0770
16374TIP3    H170537   2.546   4.127   4.508  0.4931  1.6333 -1.6317
16374TIP3    H270538   2.637   4.095   4.391  0.3922 -2.2554 -0.7127
16375TIP3   OH270539   3.951   3.951   1.618 -0.2267  0.2141  0.1760
16375TIP3    H170540   3.977   3.871   1.572 -1.8865 -1.3043  1.8563
16375TIP3    H270541   3.916   3.921   1.701 -0.5599  2.7312  0.9734
16376TIP3   OH270542   3.744   6.344   5.387  0.3940 -0.3777  0.3525
16376TIP3    H170543   3.795   6.269   5.416  1.9996  0.6998  0.4057
16376TIP3    H270544   3.806   6.395   5.334 -1.4471 -0.4943 -1.9854
16377TIP3   OH270545   2.949   2.851   0.643  0.6921 -0.1442 -0.8250
16377TIP3    H170546   3.009   2.868   0.716  0.7538 -0.0049 -0.9074
16377TIP3    H270547   2.925   2.759   0.652  0.6808 -0.1205 -0.6137
16378TIP3   OH270548   6.601   2.468   3.171  0.3377 -0.3598 -0.1609
16378TIP3    H170549   6.550   2.394   3.138  0.9245 -0.5642 -0.6142
16378TIP3    H270550   6.545   2.544   3.155  1.1142 -0.2794 -2.8327
16379TIP3   OH270551   1.225   5.338   3.891 -0.2557  0.1172  0.1287
16379TIP3    H170552   1.278   5.296   3.823 -0.5288  1.0990 -0.6987
16379TIP3    H270553   1.260   5.304   3.973  2.7381  1.9479 -0.3241
16380TIP3   OH270554   5.148   5.144   2.939  0.4433  0.5030  0.1097
16380TIP3    H170555   5.161   5.233   2.905 -0.3778  1.4505  2.1859
16380TIP3    H270556   5.058   5.123   2.916  0.1295  0.8445  1.0263
16381TIP3   OH270557   3.816   0.700   6.521 -0.6303 -0.1101 -0.3208
16381TIP3    H170558   3.756   0.627   6.538 -0.1768 -0.8070 -1.6512
16381TIP3    H270559   3.902   0.667   6.550 -0.2103 -0.5630 -2.0206
16382TIP3   OH270560   3.906   6.147  15.680  0.6448  0.9323  0.0490
16382TIP3    H170561   3.822   6.116  15.716  0.3752  0.5273 -0.8995
16382TIP3    H270562   3.961   6.069  15.679  0.4449  0.7978 -0.9790
16383TIP3   OH270563   2.870   3.064   1.152  0.0714 -0.7704  0.0952
16383TIP3    H170564   2.863   2.968   1.157 -0.7551 -0.6950  0.4054
16383TIP3    H270565   2.961   3.079   1.126  0.7306 -1.5721  1.8787
16384TIP3   OH270566   0.573   2.041   2.179  0.1489 -0.0133 -0.7405
16384TIP3    H170567   0.601   2.105   2.114  2.4781 -0.0206  0.2071
16384TIP3    H270568   0.633   2.055   2.253  0.1545 -2.7505 -0.2034
16385TIP3   OH270569   3.811   4.893   3.843 -0.3100  0.2810 -0.1338
16385TIP3    H170570   3.860   4.972   3.818 -2.0026  1.4602  0.1732
16385TIP3    H270571   3.877   4.835   3.881  1.2922  0.7534 -2.1317
16386TIP3   OH270572   5.466   3.864   1.184 -0.0968  0.0231  0.3794
16386TIP3    H170573   5.513   3.821   1.113 -0.8873 -1.0179  0.4827
16386TIP3    H270574   5.524   3.855   1.260  0.7217  1.0857 -0.1019
16387TIP3   OH270575   0.404   1.348   3.360 -0.5654  0.3785  0.6222
16387TIP3    H170576   0.338   1.417   3.348 -0.8909 -0.1363 -0.6452
16387TIP3    H270577   0.379   1.280   3.298  0.3317 -0.4605  1.1618
16388TIP3   OH270578   5.713   3.165  16.656 -0.6432 -0.0069 -0.5908
16388TIP3    H170579   5.628   3.123  16.672 -1.2137  0.7280 -1.6540
16388TIP3    H270580   5.703   3.253  16.694  0.0687 -0.3346  0.3750
16389TIP3   OH270581   4.014   6.649  12.820  0.3311  0.2317  0.2240
16389TIP3    H170582   4.086   6.685  12.872 -0.1147 -0.6079  1.4558
16389TIP3    H270583   4.027   6.685  12.732  0.8776  1.9922  1.0123
16390TIP3   OH270584   2.049   4.904   4.197 -0.2442  0.4201  0.6247
16390TIP3    H170585   2.029   4.811   4.183  1.0146  0.5771 -2.6654
16390TIP3    H270586   2.044   4.915   4.292 -0.1306 -3.0670  1.1192
16391TIP3   OH270587   3.815   2.403   2.052  0.4349  0.1479  0.5931
16391TIP3    H170588   3.783   2.453   2.127 -0.6219  0.7280 -0.2327
16391TIP3    H270589   3.835   2.316   2.088 -2.7818 -0.4725  1.0110
16392TIP3   OH270590   4.525   4.478   1.224  0.0728 -0.0607  0.4506
16392TIP3    H170591   4.459   4.410   1.219  1.2174 -1.2203  0.8810
16392TIP3    H270592   4.597   4.447   1.169  0.6239  0.7725  0.6874
16393TIP3   OH270593   1.042   4.946   5.751 -0.0459  0.4003  0.2176
16393TIP3    H170594   1.127   4.904   5.761 -0.3536 -0.1379  0.5994
16393TIP3    H270595   1.063   5.036   5.724  0.6342  0.2285  0.1572
16394TIP3   OH270596   6.537   0.422  11.018  0.0661  0.1792  0.4557
16394TIP3    H170597   6.594   0.437  10.942  0.7534 -0.1499  0.9014
16394TIP3    H270598   6.549   0.500  11.072  1.2380 -0.5486  1.2622
16395TIP3   OH270599   1.226   3.932  10.560  0.1867  0.4673  0.5227
16395TIP3    H170600   1.152   3.901  10.509  0.7361  0.4175 -0.2510
16395TIP3    H270601   1.219   4.027  10.557  0.5447  0.4741 -0.1303
16396TIP3   OH270602   3.825   0.252  15.774  0.6390  0.6834 -0.5486
16396TIP3    H170603   3.881   0.324  15.746  0.0668  1.4278  0.1800
16396TIP3    H270604   3.785   0.283  15.856  1.9106 -1.2614  0.8427
16397TIP3   OH270605   5.216   6.389   4.576  0.2179  0.0579 -0.6671
16397TIP3    H170606   5.209   6.297   4.551  2.8036  0.0943 -1.6335
16397TIP3    H270607   5.256   6.432   4.501  1.3102  1.5177  0.7033
16398TIP3   OH270608   3.255   2.707  11.814 -0.4467 -0.4480 -0.2598
16398TIP3    H170609   3.216   2.622  11.795 -1.6220  0.4829 -2.1562
16398TIP3    H270610   3.183   2.759  11.851  0.0472 -0.0205  0.1200
16399TIP3   OH270611   6.153   1.972  11.457  0.0926 -0.0680  0.3586
16399TIP3    H170612   6.188   2.060  11.443  2.4027 -0.9698  0.3483
16399TIP3    H270613   6.225   1.922  11.495 -0.1558 -2.8514 -2.6287
16400TIP3   OH270614   3.561   2.319   4.237  0.3386  0.0294  0.5189
16400TIP3    H170615   3.479   2.333   4.190  0.6365 -1.2808 -0.4350
16400TIP3    H270616   3.544   2.242   4.292  1.1015 -0.6322 -0.1472
16401TIP3   OH270617   0.479   5.488  13.625  0.0747 -0.0998 -0.4884
16401TIP3    H170618   0.403   5.532  13.585  0.6670  0.7883 -0.6479
16401TIP3    H270619   0.554   5.522  13.576  0.6985  0.1141  0.6146
16402TIP3   OH270620   1.287   3.767   3.307 -0.1235  0.0168 -0.1960
16402TIP3    H170621   1.362   3.827   3.310 -0.0921 -0.0656  1.2070
16402TIP3    H270622   1.326   3.680   3.299  0.0434 -0.1721  2.1225
16403TIP3   OH270623   3.092   6.211  11.012 -0.2287  0.5768 -0.6617
16403TIP3    H170624   3.042   6.209  11.094 -0.2419 -0.0407 -0.6801
16403TIP3    H270625   3.140   6.128  11.012  0.3918  0.9388 -0.8963
16404TIP3   OH270626   6.048   1.760  15.203  0.2800  0.4358  0.1551
16404TIP3    H170627   5.984   1.707  15.154  1.4156  0.9152 -1.8960
16404TIP3    H270628   6.091   1.697  15.261  1.8829 -1.0178 -2.5287
16405TIP3   OH270629   0.194   4.342  14.388 -0.1324  0.2113  0.5512
16405TIP3    H170630   0.135   4.275  14.422 -1.1970 -0.6417 -2.7654
16405TIP3    H270631   0.261   4.293  14.341  0.1224  1.3957 -0.3394
16406TIP3   OH270632   1.997   4.690  12.471  0.3356  0.1625 -0.2836
16406TIP3    H170633   2.037   4.772  12.442  1.0891  0.0167  0.3143
16406TIP3    H270634   2.024   4.626  12.405 -1.1617  0.6156 -1.3436
16407TIP3   OH270635   6.347   3.807   5.333  0.0566  0.8174  0.0988
16407TIP3    H170636   6.413   3.845   5.275 -0.0434  0.7718 -0.0454
16407TIP3    H270637   6.351   3.713   5.315  0.1715  0.7798  0.3182
16408TIP3   OH270638   3.810   2.477   4.243  0.3904 -0.4958 -0.1601
16408TIP3    H170639   3.893   2.440   4.271  0.0146  0.0671  1.7872
16408TIP3    H270640   3.745   2.410   4.265  0.2297 -0.5551 -0.8213
16409TIP3   OH270641   5.414   2.641  14.253  0.4382 -0.1247  0.0896
16409TIP3    H170642   5.475   2.683  14.192 -0.8641  1.6957  0.0026
16409TIP3    H270643   5.426   2.689  14.335 -0.3657 -0.1975  0.2580
16410TIP3   OH270644   1.035   0.754  11.429  0.0896 -0.1585 -0.2581
16410TIP3    H170645   1.073   0.670  11.404  0.8143  0.0423  0.1801
16410TIP3    H270646   1.108   0.815  11.429 -0.2532  0.2538  0.4724
16411TIP3   OH270647   3.083   3.092   0.209 -0.1979 -0.3249 -0.1231
16411TIP3    H170648   3.103   3.062   0.298  0.5896  0.0877 -0.1585
16411TIP3    H270649   3.077   3.187   0.217 -0.6711 -0.3292 -0.4092
16412TIP3   OH270650   4.855   0.729  11.698  0.4984 -0.4986 -0.2692
16412TIP3    H170651   4.789   0.670  11.663 -1.6406  1.8249 -0.3177
16412TIP3    H270652   4.937   0.701  11.658 -0.6428 -2.7130 -1.1071
16413TIP3   OH270653   4.843   4.745  15.509 -0.6824  0.1718 -0.4186
16413TIP3    H170654   4.936   4.742  15.487 -1.2624  1.5438 -3.2474
16413TIP3    H270655   4.837   4.810  15.580  0.6097 -0.6523  0.4675
16414TIP3   OH270656   3.423   3.021  12.763 -0.0001  1.0688  0.4528
16414TIP3    H170657   3.389   2.953  12.821 -0.9468  0.1850 -1.1044
16414TIP3    H270658   3.514   2.996  12.748  0.2591  1.3115  1.5455
16415TIP3   OH270659   3.053   5.377  13.317  0.3144 -0.1520 -0.0915
16415TIP3    H170660   3.112   5.302  13.304  1.0314  0.5185 -0.7804
16415TIP3    H270661   2.970   5.348  13.279  0.1625 -1.1349  0.9464
16416TIP3   OH270662   3.544   0.139  15.703  0.4078  0.0708  0.2883
16416TIP3    H170663   3.537   0.055  15.656 -1.3641  1.1261 -1.4124
16416TIP3    H270664   3.638   0.155  15.709  0.7241 -1.0991 -1.1206
16417TIP3   OH270665   1.900   2.213   0.681  0.3305 -0.7618  0.1703
16417TIP3    H170666   1.895   2.136   0.624 -1.2033  3.4344 -5.8446
16417TIP3    H270667   1.993   2.237   0.679  0.4579 -1.2297  0.3270
16418TIP3   OH270668   6.774   3.203   1.932 -0.3686 -0.2060 -0.3335
16418TIP3    H170669   6.844   3.144   1.960  0.3906  0.8321  0.0041
16418TIP3    H270670   6.694   3.160   1.962  0.0317 -1.9060 -1.6055
16419TIP3   OH270671   4.869   5.488   1.708  0.2262 -1.0556  0.2161
16419TIP3    H170672   4.834   5.502   1.620  1.0772 -1.0200 -0.1215
16419TIP3    H270673   4.815   5.543   1.764  0.0163 -0.6638 -0.3634
16420TIP3   OH270674   2.831   5.888  15.627  0.4956  0.1003 -0.1965
16420TIP3    H170675   2.823   5.831  15.551 -1.7084  2.6062 -1.9108
16420TIP3    H270676   2.800   5.834  15.700  0.4251 -1.5625 -1.4180
16421TIP3   OH270677   0.920   6.435  12.551  0.1878 -0.6873 -0.1764
16421TIP3    H170678   0.948   6.524  12.529  0.5416 -0.7551  0.0001
16421TIP3    H270679   0.827   6.432  12.525  0.9957 -1.2987 -3.2649
16422TIP3   OH270680   3.202   1.631   1.967 -0.4294 -0.1873 -0.5440
16422TIP3    H170681   3.137   1.648   1.899 -1.6082 -0.3706  0.5060
16422TIP3    H270682   3.158   1.658   2.048  0.7456 -0.4924  0.1945
16423TIP3   OH270683   0.075   4.017   4.685  0.2020  0.4753 -0.3367
16423TIP3    H170684   0.122   3.994   4.765  1.0884  1.1720 -0.6502
16423TIP3    H270685   0.052   3.932   4.646  1.9001  0.1019 -0.5882
16424TIP3   OH270686   5.882   2.977  14.879  0.1674  0.2320  0.1661
16424TIP3    H170687   5.851   2.953  14.792  1.9371 -2.3440  0.1924
16424TIP3    H270688   5.978   2.981  14.871  0.2007  3.1148  1.2592
16425TIP3   OH270689   4.179   5.713  15.835 -0.2936 -0.0577 -0.5692
16425TIP3    H170690   4.216   5.698  15.922 -0.0425  0.8686 -0.5090
16425TIP3    H270691   4.240   5.670  15.775  0.0846  0.1897 -0.3611
16426TIP3   OH270692   3.959   0.718  12.952 -0.6982 -0.3153 -0.3813
16426TIP3    H170693   3.960   0.631  12.991  0.9966  0.0798  0.4634
16426TIP3    H270694   3.932   0.776  13.023 -1.7065 -0.1145 -0.9132
16427TIP3   OH270695   3.076   3.918  15.106 -0.6712  0.0364  0.1131
16427TIP3    H170696   2.988   3.885  15.121 -0.8422 -0.6044 -2.1115
16427TIP3    H270697   3.126   3.842  15.077  0.8828  0.1848  2.3019
16428TIP3   OH270698   4.057   6.425   5.974  0.1206 -0.1067  0.7109
16428TIP3    H170699   4.001   6.503   5.966  0.8191  0.3053 -0.3270
16428TIP3    H270700   3.996   6.352   5.983 -0.6893  0.0700 -2.6434
16429TIP3   OH270701   1.083   0.735  15.543  0.5822  0.0518 -0.4046
16429TIP3    H170702   1.068   0.737  15.449  1.9414 -1.7357 -0.6696
16429TIP3    H270703   0.997   0.715  15.580  0.2168 -0.0875 -1.3131
16430TIP3   OH270704   4.627   0.412   0.653  0.6763 -0.0832 -0.7254
16430TIP3    H170705   4.685   0.442   0.723  0.8707  1.5904 -1.5673
16430TIP3    H270706   4.624   0.317   0.662  0.8902  0.0965  1.3977
16431TIP3   OH270707   1.766   0.948  10.759 -0.0749  0.1179 -0.2066
16431TIP3    H170708   1.806   0.931  10.674 -0.2971 -0.2357 -0.2438
16431TIP3    H270709   1.839   0.955  10.820 -0.0109 -1.7123 -0.0642
16432TIP3   OH270710   6.153   5.175   4.327 -0.4480 -0.1499  0.5489
16432TIP3    H170711   6.138   5.234   4.253  0.3847  0.6901  1.0388
16432TIP3    H270712   6.204   5.227   4.389  1.5172 -1.8314  0.3719
16433TIP3   OH270713   3.158   4.940   1.683  0.7839  0.5560  0.1091
16433TIP3    H170714   3.089   4.873   1.680  0.1449  1.2479 -1.5435
16433TIP3    H270715   3.149   4.980   1.769 -1.0560  0.8000 -0.1675
16434TIP3   OH270716   1.693   6.012   6.105 -0.4326 -0.4464 -0.0683
16434TIP3    H170717   1.600   6.000   6.124 -0.5949  1.0330  0.1784
16434TIP3    H270718   1.736   5.934   6.139 -1.6043 -1.2003 -0.3062
16435TIP3   OH270719   2.818   2.436   3.805  0.3805 -0.2723 -0.1883
16435TIP3    H170720   2.853   2.362   3.756 -0.4503 -0.8804  0.1266
16435TIP3    H270721   2.727   2.442   3.778 -0.4957 -1.4973  2.2996
16436TIP3   OH270722   0.910   3.119  13.117  0.0297 -0.4243 -0.8362
16436TIP3    H170723   0.988   3.157  13.076  0.3373 -0.1752 -0.0338
16436TIP3    H270724   0.869   3.067  13.047  0.5251  0.0157 -1.4603
16437TIP3   OH270725   1.219   0.430  12.153 -0.6112 -0.1934 -0.2349
16437TIP3    H170726   1.290   0.490  12.130 -1.0608 -0.1858 -1.6634
16437TIP3    H270727   1.263   0.354  12.190  0.0455  0.4723  0.3677
16438TIP3   OH270728   3.058   1.186   5.275 -0.2787 -0.2036  0.4707
16438TIP3    H170729   3.078   1.194   5.182 -0.6927 -0.3499  0.3691
16438TIP3    H270730   3.113   1.252   5.317  0.3645 -0.5630  0.1853
16439TIP3   OH270731   6.742   4.110   0.615  0.1938  0.3985 -0.1051
16439TIP3    H170732   6.705   4.080   0.533 -1.3451  1.5304  0.1311
16439TIP3    H270733   6.729   4.038   0.676  1.2070 -0.3840 -0.8025
16440TIP3   OH270734   4.871   5.385  16.350  0.2487 -0.4846 -0.2743
16440TIP3    H170735   4.905   5.474  16.352  0.1422 -0.4489 -0.0152
16440TIP3    H270736   4.803   5.383  16.417 -0.3737 -0.5137 -0.9016
16441TIP3   OH270737   1.798   1.728   1.144  0.4352 -0.2111 -0.1758
16441TIP3    H170738   1.878   1.781   1.155  0.0092  0.0582  1.8528
16441TIP3    H270739   1.817   1.672   1.069  3.1791 -1.2972  1.2502
16442TIP3   OH270740   0.379   2.507  16.369  0.2405  0.0184 -0.1727
16442TIP3    H170741   0.401   2.600  16.370  2.7170 -0.5244 -0.3088
16442TIP3    H270742   0.378   2.483  16.277 -1.4097  0.1272 -0.1846
16443TIP3   OH270743   5.767   4.837   1.550 -0.1709 -0.2477  0.0889
16443TIP3    H170744   5.713   4.789   1.613 -1.6210 -1.0412 -1.7073
16443TIP3    H270745   5.704   4.874   1.488  1.2506  0.3070 -1.0451
16444TIP3   OH270746   4.552   4.043   6.463  0.0724 -0.5953 -0.3344
16444TIP3    H170747   4.547   4.059   6.557 -0.1232 -1.0576 -0.2649
16444TIP3    H270748   4.620   4.102   6.432 -0.0607 -0.2330  0.0522
16445TIP3   OH270749   2.721   1.484   6.369  0.1610  0.7554 -0.2736
16445TIP3    H170750   2.640   1.458   6.324 -1.9007  1.0361  3.1509
16445TIP3    H270751   2.770   1.402   6.378 -2.1534 -0.4345  2.2438
16446TIP3   OH270752   6.469   2.312   5.380 -0.5052 -0.0116  0.1509
16446TIP3    H170753   6.450   2.221   5.401  0.5617  0.0145  1.3004
16446TIP3    H270754   6.458   2.359   5.463  1.4222  0.4932  0.1547
16447TIP3   OH270755   5.974   1.690   2.633  0.8682 -0.1593 -0.1219
16447TIP3    H170756   5.969   1.599   2.603  1.5774  0.7835 -3.3040
16447TIP3    H270757   5.892   1.704   2.681 -0.9259 -1.4626 -2.6718
16448TIP3   OH270758   6.691   6.236   0.042  0.5432 -0.3846 -0.2343
16448TIP3    H170759   6.648   6.159   0.079 -0.6091 -0.7898 -2.3102
16448TIP3    H270760   6.755   6.200  -0.020  0.3577  0.3051 -0.8394
16449TIP3   OH270761   3.780   4.105   3.203  0.1589  0.3415  0.0302
16449TIP3    H170762   3.775   4.178   3.265  0.2340  1.8001 -1.6584
16449TIP3    H270763   3.752   4.142   3.120 -0.4734 -1.7445 -0.7110
16450TIP3   OH270764   5.707   0.877   6.358 -1.1570 -0.3967  0.2971
16450TIP3    H170765   5.699   0.836   6.272 -0.8034 -1.5898  0.8222
16450TIP3    H270766   5.689   0.806   6.420 -1.6404  0.5068  1.2027
16451TIP3   OH270767   0.084   5.307  15.629  0.7127 -0.2001 -0.2456
16451TIP3    H170768   0.175   5.276  15.630  0.9336  0.3510 -1.7583
16451TIP3    H270769   0.046   5.269  15.550 -0.3242 -0.2507  0.2654
16452TIP3   OH270770   1.286   4.451   0.649 -0.2729  0.4254  0.1522
16452TIP3    H170771   1.271   4.453   0.744  1.3347  0.5111  0.4158
16452TIP3    H270772   1.320   4.363   0.633  1.0298  0.9653 -0.0933
16453TIP3   OH270773   0.842   6.040  13.112 -0.6484 -0.1962  0.1084
16453TIP3    H170774   0.933   6.031  13.141 -1.1652 -1.8317  1.3499
16453TIP3    H270775   0.809   6.116  13.159  0.5279  1.4054 -1.6064
16454TIP3   OH270776   4.372   1.116  11.385 -0.7128 -0.0808  0.1732
16454TIP3    H170777   4.350   1.100  11.293  1.3919 -2.6713  0.0540
16454TIP3    H270778   4.348   1.034  11.429  1.0690  0.0527  1.4135
16455TIP3   OH270779   4.932   6.114  16.899  0.4261  0.3779  0.4346
16455TIP3    H170780   4.926   6.197  16.946 -1.5350  0.6013 -0.1682
16455TIP3    H270781   4.877   6.053  16.949  0.8087 -0.2153  0.1483
16456TIP3   OH270782   4.258   5.091  11.705 -0.0092  0.5731 -0.1036
16456TIP3    H170783   4.311   5.165  11.676  0.1816  0.5313  0.1387
16456TIP3    H270784   4.303   5.058  11.783 -0.1273  0.2377 -0.1785
16457TIP3   OH270785   5.818   6.310   3.151  0.4376  0.4740 -0.3843
16457TIP3    H170786   5.874   6.387   3.161 -0.7535  1.5619 -1.9103
16457TIP3    H270787   5.874   6.245   3.109  1.0896  0.9100 -0.2022
16458TIP3   OH270788   5.197   3.043   3.767 -0.1060  0.3834 -0.1543
16458TIP3    H170789   5.223   2.966   3.716 -0.3838  0.4579 -0.4077
16458TIP3    H270790   5.124   3.012   3.821  1.9982 -0.4758  2.3152
16459TIP3   OH270791   6.109   0.403   5.494  0.0858 -0.4468 -0.3656
16459TIP3    H170792   6.070   0.379   5.578  2.7880  0.9975  1.3944
16459TIP3    H270793   6.074   0.491   5.476 -1.6693 -1.3658 -1.5453
16460TIP3   OH270794   3.327   1.998   2.275  0.2038  0.5877  0.3603
16460TIP3    H170795   3.241   1.976   2.240  0.7372 -0.8632 -0.0972
16460TIP3    H270796   3.387   1.985   2.201  1.0573 -0.2600  1.1860
16461TIP3   OH270797   0.544   4.617   4.150 -0.3411 -0.8359  0.0553
16461TIP3    H170798   0.518   4.601   4.060  1.5468 -2.5500 -0.2248
16461TIP3    H270799   0.472   4.582   4.203  0.3761 -3.6082 -0.7340
16462TIP3   OH270800   0.042   4.699  14.387  0.0774 -0.2692 -0.0643
16462TIP3    H170801   0.121   4.655  14.355 -0.0518 -0.2888 -0.3541
16462TIP3    H270802   0.062   4.720  14.478 -0.5897 -2.6352  0.6630
16463TIP3   OH270803   2.111   4.751  12.962 -0.0567  0.7207  0.4350
16463TIP3    H170804   2.034   4.808  12.962 -1.4148 -1.0787 -0.1572
16463TIP3    H270805   2.108   4.706  12.878  0.9279 -0.3149  0.9387
16464TIP3   OH270806   0.099   4.906  13.461 -0.6511  0.0763 -0.3460
16464TIP3    H170807   0.140   4.851  13.528  0.2302  0.0615 -0.8845
16464TIP3    H270808   0.024   4.856  13.431  0.2794 -0.9492 -1.0038
16465TIP3   OH270809   3.908   1.300   1.635  0.0848 -0.6449  0.1248
16465TIP3    H170810   3.996   1.335   1.643 -1.3516  2.6385  2.7877
16465TIP3    H270811   3.886   1.271   1.724 -1.9528 -0.2368 -0.2263
16466TIP3   OH270812   1.733   2.695  12.698  0.1476  0.2816 -0.0936
16466TIP3    H170813   1.756   2.691  12.791  1.6068 -1.8912 -0.5002
16466TIP3    H270814   1.638   2.709  12.697  0.3340  1.8264  1.6946
16467TIP3   OH270815   4.818   5.719  14.997  0.2064 -0.5917 -0.2687
16467TIP3    H170816   4.731   5.717  15.036  0.1949  0.0326 -0.2629
16467TIP3    H270817   4.843   5.627  14.989  0.7219 -0.7032  2.3733
16468TIP3   OH270818   4.500   4.571   4.909 -0.1680  0.3405 -0.0237
16468TIP3    H170819   4.424   4.552   4.963  1.2495 -3.2552  0.8076
16468TIP3    H270820   4.559   4.620   4.967 -0.2503 -0.1581  0.4758
16469TIP3   OH270821   6.675   0.358   0.441 -0.0382 -0.5999 -0.2679
16469TIP3    H170822   6.697   0.336   0.351  1.9432 -0.7897  0.2327
16469TIP3    H270823   6.645   0.275   0.479 -3.1415 -0.0334 -1.3558
16470TIP3   OH270824   3.489   2.726   5.861  0.2253  0.1424  0.0241
16470TIP3    H170825   3.484   2.730   5.957  2.7155  0.9677  0.1565
16470TIP3    H270826   3.531   2.643   5.842 -2.1009 -0.9617 -0.4816
16471TIP3   OH270827   4.314   1.574   3.911  0.2605  0.0436 -0.2449
16471TIP3    H170828   4.314   1.496   3.965  1.1659  0.1674 -0.0617
16471TIP3    H270829   4.349   1.643   3.968 -0.7524  0.6309 -0.3269
16472TIP3   OH270830   1.860   5.952  16.779 -0.3597 -0.0898 -0.2612
16472TIP3    H170831   1.810   5.915  16.852 -0.3222 -0.6236 -0.5009
16472TIP3    H270832   1.943   5.903  16.780  0.3801  1.1590  0.4668
16473TIP3   OH270833   5.475   6.632   3.633 -0.0054  0.4321  0.2963
16473TIP3    H170834   5.456   6.543   3.604  2.4294  0.1328 -0.4959
16473TIP3    H270835   5.537   6.622   3.705 -2.5434  1.3828  2.7264
16474TIP3   OH270836   0.147   6.340  15.854 -0.3732 -0.2203 -0.1888
16474TIP3    H170837   0.133   6.405  15.785 -1.4595  2.9610  2.8380
16474TIP3    H270838   0.063   6.297  15.864  0.2198 -1.8445 -1.8739
16475TIP3   OH270839   2.090   4.983  11.648  0.4436  0.0396  0.1897
16475TIP3    H170840   2.145   5.052  11.612  0.1448  1.6029  2.6644
16475TIP3    H270841   2.132   4.902  11.620  1.1624  1.1773 -2.2020
16476TIP3   OH270842   1.667   2.579  13.926  0.0876  0.3716  0.4902
16476TIP3    H170843   1.725   2.564  14.001 -0.8883  2.1010  1.6335
16476TIP3    H270844   1.705   2.655  13.882  1.0592 -1.0761 -1.2054
16477TIP3   OH270845   4.291   3.585  12.253  0.0421 -0.1693  0.1054
16477TIP3    H170846   4.197   3.606  12.255  0.6717  2.9210 -0.5399
16477TIP3    H270847   4.295   3.492  12.272 -3.2834 -0.6654 -1.2647
16478TIP3   OH270848   6.516   0.831  16.585  0.3109  0.2694 -0.2607
16478TIP3    H170849   6.603   0.871  16.590  0.2929  0.4732 -1.5086
16478TIP3    H270850   6.509   0.799  16.496 -1.4798  1.6105 -0.6409
16479TIP3   OH270851   4.964   5.595   4.821  0.1491  0.2970  0.4054
16479TIP3    H170852   4.949   5.528   4.887  0.2002 -1.0168 -0.8806
16479TIP3    H270853   4.923   5.560   4.742  1.0751  1.3090 -0.5449
16480TIP3   OH270854   4.543   0.777  14.326  0.4755 -0.1619  0.2296
16480TIP3    H170855   4.614   0.715  14.305  1.6438  1.0827  0.4192
16480TIP3    H270856   4.584   0.842  14.383 -1.0164  0.1954  0.9214
16481TIP3   OH270857   5.974   3.174   5.054 -0.2113 -0.0033  0.5420
16481TIP3    H170858   5.912   3.171   5.127 -0.4963 -1.0515  0.2657
16481TIP3    H270859   5.995   3.082   5.036  2.0532  0.3716  1.1597
16482TIP3   OH270860   1.122   5.081   0.898 -0.7193  0.2213  0.4283
16482TIP3    H170861   1.199   5.076   0.955  0.2189 -0.6292 -0.9040
16482TIP3    H270862   1.053   5.038   0.949  0.6944 -2.6944  0.0073
16483TIP3   OH270863   4.138   2.405   4.876  0.6249  0.5740 -0.2470
16483TIP3    H170864   4.054   2.389   4.918  0.4824  0.8460 -0.4167
16483TIP3    H270865   4.121   2.480   4.818  0.9957  0.6631 -0.2434
16484TIP3   OH270866   0.336   4.397   3.430  0.3809 -0.3563  0.2202
16484TIP3    H170867   0.288   4.440   3.501 -0.5788 -0.5147 -0.3348
16484TIP3    H270868   0.379   4.469   3.384  2.0800 -0.3535  1.7285
16485TIP3   OH270869   1.390   6.037   5.775  0.0458  0.1782  0.2530
16485TIP3    H170870   1.327   6.089   5.724 -2.0259 -1.1882  1.3752
16485TIP3    H270871   1.374   5.947   5.748  1.3522 -0.2151  0.7632
16486TIP3   OH270872   5.050   2.185   5.547  0.4738  0.5530  0.3506
16486TIP3    H170873   4.961   2.151   5.548  0.0832  1.5311 -0.7258
16486TIP3    H270874   5.042   2.274   5.514  1.9855  0.2883 -0.7779
16487TIP3   OH270875   6.578   1.829  11.534 -0.3546 -0.0243 -0.0288
16487TIP3    H170876   6.576   1.905  11.475  0.7056 -0.1534 -0.2366
16487TIP3    H270877   6.665   1.791  11.521  0.0927  0.2380  1.9679
16488TIP3   OH270878   4.411   6.640  15.700  0.1953  0.5443  0.5916
16488TIP3    H170879   4.403   6.729  15.736  1.5899  0.4353  1.1978
16488TIP3    H270880   4.400   6.582  15.775  2.1866  0.2890  0.7074
16489TIP3   OH270881   4.530   2.254   1.207  0.7679  0.1169 -0.3856
16489TIP3    H170882   4.450   2.243   1.155 -1.0353  2.8198  1.6048
16489TIP3    H270883   4.517   2.197   1.283 -0.4349  2.2831  1.1046
16490TIP3   OH270884   0.469   6.429  15.512  0.1333 -0.0011  0.0852
16490TIP3    H170885   0.479   6.448  15.605  0.2815  0.0047  0.0685
16490TIP3    H270886   0.555   6.449  15.474  0.8043 -2.2791  0.3362
16491TIP3   OH270887   4.270   5.522   5.140 -0.6782  0.0018  0.3150
16491TIP3    H170888   4.336   5.456   5.162 -0.5972  0.2016  0.6936
16491TIP3    H270889   4.191   5.472   5.121 -0.5941 -0.2101  0.5175
16492TIP3   OH270890   0.230   3.014  16.919  0.8791  0.5787 -0.3286
16492TIP3    H170891   0.311   3.031  16.968  0.1030  0.9476  0.8461
16492TIP3    H270892   0.191   3.100  16.906  0.4086  0.3490 -0.4369
16493TIP3   OH270893   5.859   5.662  16.736 -0.0967 -0.6064  0.1287
16493TIP3    H170894   5.833   5.573  16.713 -2.7859 -0.1240  1.0862
16493TIP3    H270895   5.883   5.658  16.828  0.0860 -0.4121  0.0914
16494TIP3   OH270896   4.662   5.807   3.953  0.1486 -0.4117 -0.0923
16494TIP3    H170897   4.608   5.760   4.018 -1.0846  0.2507 -0.6171
16494TIP3    H270898   4.691   5.739   3.892  0.9364 -0.9684  0.8882
16495TIP3   OH270899   6.578   2.570   6.200  0.7397 -0.3370 -0.2068
16495TIP3    H170900   6.636   2.586   6.126 -0.6383 -1.0859 -1.4903
16495TIP3    H270901   6.636   2.540   6.270  2.5607  3.8536  0.2574
16496TIP3   OH270902   2.259   2.936  15.267  0.0168  0.5671 -0.6964
16496TIP3    H170903   2.261   2.959  15.360  0.0927 -0.4084 -0.4494
16496TIP3    H270904   2.167   2.942  15.243 -0.2541 -0.9365 -0.0962
16497TIP3   OH270905   5.354   0.817  12.157  0.6687  0.1644 -0.1003
16497TIP3    H170906   5.383   0.733  12.121 -1.5819 -0.1843 -1.1627
16497TIP3    H270907   5.314   0.862  12.083  1.7770  2.1584  0.4848
16498TIP3   OH270908   6.268   4.289   4.861  0.1640 -0.2358 -0.6353
16498TIP3    H170909   6.226   4.375   4.869 -2.0560 -1.1185 -2.0515
16498TIP3    H270910   6.361   4.309   4.850 -0.2050  1.9438 -0.1381
16499TIP3   OH270911   4.823   1.729   5.333  0.2385 -0.5413 -0.0150
16499TIP3    H170912   4.788   1.818   5.330 -0.8598 -0.9662  0.0018
16499TIP3    H270913   4.746   1.673   5.330  0.9982 -1.5380 -1.7232
16500TIP3   OH270914   3.831   1.177  15.657 -0.7045  0.1623 -0.8461
16500TIP3    H170915   3.794   1.222  15.732  1.2739  0.0144  0.2314
16500TIP3    H270916   3.924   1.197  15.659 -0.0159 -2.6801 -1.2208
16501TIP3   OH270917   6.445   6.150  15.776 -0.4489 -0.2092 -0.2911
16501TIP3    H170918   6.362   6.158  15.824 -0.9091 -1.7466 -0.7954
16501TIP3    H270919   6.419   6.146  15.684  0.1642 -0.9070 -0.4384
16502TIP3   OH270920   5.521   1.162  11.738  0.1089 -0.5902 -0.1971
16502TIP3    H170921   5.440   1.128  11.700 -0.6103 -0.4900  1.1909
16502TIP3    H270922   5.531   1.113  11.820  0.8501  0.1753  0.1795
16503TIP3   OH270923   5.320   4.427  15.408  0.3865 -0.1774 -0.1030
16503TIP3    H170924   5.371   4.407  15.486  0.6209 -0.0696 -0.2279
16503TIP3    H270925   5.352   4.365  15.342  1.1764  0.6578 -0.5168
16504TIP3   OH270926   0.992   1.272   0.656  0.4759 -0.6626 -0.9554
16504TIP3    H170927   0.957   1.184   0.663 -0.4987 -0.3748 -2.0863
16504TIP3    H270928   0.958   1.305   0.573 -0.1563  1.2166  0.0270
16505TIP3   OH270929   0.575   4.940   3.015 -0.7857 -0.2528 -0.3196
16505TIP3    H170930   0.606   4.855   3.048  1.1029  0.9503  1.1499
16505TIP3    H270931   0.536   4.920   2.930  1.1469 -2.3841 -0.7775
16506TIP3   OH270932   3.770   5.922  13.338  0.0784 -0.6701  0.2344
16506TIP3    H170933   3.771   5.979  13.261 -0.3344  0.9167  1.3555
16506TIP3    H270934   3.687   5.876  13.334 -1.3105  1.6509  1.2732
16507TIP3   OH270935   0.363   3.580   1.718 -0.7361 -0.0297  0.1255
16507TIP3    H170936   0.336   3.671   1.729  0.0232 -0.1403  3.3011
16507TIP3    H270937   0.428   3.583   1.647 -1.9197  1.6223 -0.9304
16508TIP3   OH270938   2.650   4.917   0.971  0.6053 -0.0408 -0.1982
16508TIP3    H170939   2.677   4.834   0.932  1.2924 -0.6039  1.4358
16508TIP3    H270940   2.563   4.933   0.934  1.1916 -0.5988 -1.8612
16509TIP3   OH270941   4.940   4.865   1.319 -0.4798 -0.2440 -0.0184
16509TIP3    H170942   4.868   4.816   1.358  0.4371 -1.8196 -0.2584
16509TIP3    H270943   4.995   4.890   1.393 -0.3198 -0.6289 -0.0040
16510TIP3   OH270944   4.263   0.500  15.005 -0.3855 -0.2009  0.7145
16510TIP3    H170945   4.229   0.563  15.068 -0.8946  1.4444 -1.1438
16510TIP3    H270946   4.242   0.538  14.919  1.2376 -1.8358 -0.4565
16511TIP3   OH270947   6.294   1.607  16.068  0.3028 -0.1749 -0.1532
16511TIP3    H170948   6.260   1.687  16.109  0.5038  0.3259 -0.9412
16511TIP3    H270949   6.304   1.546  16.140 -0.1208  0.4188  0.4256
16512TIP3   OH270950   4.194   1.617  16.998  0.1079 -0.7692 -0.4709
16512TIP3    H170951   4.253   1.648  16.929  0.3113 -0.4842 -0.1703
16512TIP3    H270952   4.171   1.696  17.047  1.9152 -1.3091  1.3009
16513TIP3   OH270953   0.143   2.789   4.511  0.1882  0.2596  0.1077
16513TIP3    H170954   0.163   2.735   4.587 -1.7177  0.0740  0.5098
16513TIP3    H270955   0.211   2.767   4.447  1.2382 -0.2887  1.4042
16514TIP3   OH270956   4.175   0.451   4.539  0.2427  0.3018 -0.1222
16514TIP3    H170957   4.188   0.463   4.633  0.4317  0.6972 -0.1950
16514TIP3    H270958   4.124   0.527   4.512 -0.2149 -0.0572 -0.2559
16515TIP3   OH270959   5.363   3.454   1.702 -0.2348  0.7857 -0.2435
16515TIP3    H170960   5.416   3.390   1.750  1.4607  1.3418 -1.3451
16515TIP3    H270961   5.272   3.426   1.717  0.4420 -1.3409  0.0472
16516TIP3   OH270962   5.420   4.355  14.547  0.7988  0.0848  1.1237
16516TIP3    H170963   5.379   4.276  14.581  2.8272 -0.8543  1.4517
16516TIP3    H270964   5.410   4.348  14.452  1.6309 -0.9476  1.1045
16517TIP3   OH270965   4.016   2.756  14.494 -0.0512 -0.1929  0.0761
16517TIP3    H170966   4.022   2.852  14.501 -0.8539 -0.1340  0.0916
16517TIP3    H270967   4.076   2.734  14.423 -0.1315  0.3676 -0.1771
16518TIP3   OH270968   4.313   0.736  11.795 -0.2374  0.1302 -0.8708
16518TIP3    H170969   4.351   0.663  11.844 -0.3082  0.1663 -0.7621
16518TIP3    H270970   4.223   0.709  11.776 -0.1513  0.0360 -1.1474
16519TIP3   OH270971   3.765   3.925  11.459  0.4288  0.0302  0.7108
16519TIP3    H170972   3.695   3.885  11.511  0.5595  2.1393  2.5817
16519TIP3    H270973   3.720   3.986  11.401  0.6694  1.7261  2.2297
16520TIP3   OH270974   0.030   5.771  15.111  0.1641 -0.2180 -0.8163
16520TIP3    H170975  -0.057   5.785  15.072  0.1285  1.8767 -0.0530
16520TIP3    H270976   0.040   5.676  15.114 -1.7178 -0.4662 -1.7772
16521TIP3   OH270977   1.720   3.474   3.646  0.1481 -0.1494 -0.1479
16521TIP3    H170978   1.696   3.566   3.635  1.6743  0.3182  0.2827
16521TIP3    H270979   1.807   3.467   3.607 -0.1202 -1.5002 -0.5183
16522TIP3   OH270980   2.573   6.749  15.562 -0.1226  0.7623 -0.0791
16522TIP3    H170981   2.633   6.680  15.534 -0.2394  0.4182  0.5207
16522TIP3    H270982   2.516   6.708  15.626 -1.2071  1.0102 -0.8534
16523TIP3   OH270983   0.520   2.928   2.354  0.1544 -0.1503  0.5161
16523TIP3    H170984   0.549   2.838   2.339  0.9345  0.1537  0.1947
16523TIP3    H270985   0.426   2.921   2.367  0.2544 -1.0515  0.7856
16524TIP3   OH270986   1.669   0.157   3.034  0.1169 -0.4145 -0.7111
16524TIP3    H170987   1.643   0.070   3.004  0.2255 -0.8994  0.5927
16524TIP3    H270988   1.610   0.177   3.106  0.8125  0.1269 -0.2856
16525TIP3   OH270989   0.453   3.523  12.040 -0.4317  0.0005  0.4683
16525TIP3    H170990   0.503   3.444  12.020 -0.4407  0.6566 -2.2777
16525TIP3    H270991   0.518   3.593  12.040 -1.0011  0.5486 -1.0173
16526TIP3   OH270992   4.482   3.303  12.112 -0.2269  0.1394  0.0309
16526TIP3    H170993   4.470   3.209  12.095 -1.5637  0.4733 -0.9512
16526TIP3    H270994   4.447   3.316  12.200  1.6932 -0.6210  0.9118
16527TIP3   OH270995   0.667   0.495  17.115  0.5643 -0.3346  0.5816
16527TIP3    H170996   0.685   0.454  17.030  0.7762  0.4506  0.2453
16527TIP3    H270997   0.710   0.438  17.179  1.2499 -0.3774  0.0795
16528TIP3   OH270998   0.583   2.268  16.189 -0.4091  0.6725  0.2394
16528TIP3    H170999   0.581   2.277  16.284 -1.7925  0.9841  0.1820
16528TIP3    H271000   0.627   2.347  16.158 -1.5388  1.4152  0.5203
16529TIP3   OH271001   6.490   0.230   1.035  0.1198  0.7801  0.1417
16529TIP3    H171002   6.469   0.239   1.128 -0.7549  2.0040 -0.1666
16529TIP3    H271003   6.487   0.319   1.001  1.5703  0.4789 -0.8244
16530TIP3   OH271004   3.012   1.669   2.181  0.4382  0.7887  0.2200
16530TIP3    H171005   2.919   1.654   2.198  0.7932 -0.4925  1.0923
16530TIP3    H271006   3.054   1.585   2.197  1.9718  1.7442  1.4911
16531TIP3   OH271007   2.241   1.940   5.452 -0.0623  0.1878 -0.6179
16531TIP3    H171008   2.292   2.005   5.404  0.8119 -0.5518 -0.6973
16531TIP3    H271009   2.151   1.974   5.449  0.6523  2.3289  0.9330
16532TIP3   OH271010   4.757   5.160   1.045 -0.2208 -0.0917  0.3283
16532TIP3    H171011   4.798   5.209   1.117 -1.4818  0.7500  0.4935
16532TIP3    H271012   4.675   5.128   1.082 -0.0144 -1.2357 -0.1896
16533TIP3   OH271013   4.735   1.010   5.696 -0.0724 -0.1287  0.3607
16533TIP3    H171014   4.782   1.065   5.759  0.8610  0.6315 -0.9628
16533TIP3    H271015   4.789   0.932   5.688  0.2374  0.1264 -0.0881
16534TIP3   OH271016   2.609   6.174   1.418 -0.3603  0.4426  0.4135
16534TIP3    H171017   2.580   6.244   1.360  0.1512  1.5148  1.4460
16534TIP3    H271018   2.661   6.116   1.361 -1.0655  0.7149 -0.5085
16535TIP3   OH271019   3.477   6.688  11.529 -0.4059  0.7528 -0.3456
16535TIP3    H171020   3.569   6.662  11.523 -0.5571 -0.9786  3.2294
16535TIP3    H271021   3.435   6.646  11.455  1.1443 -1.2336 -0.1426
16536TIP3   OH271022   3.372   0.971  14.568 -0.3779 -0.3684  0.5555
16536TIP3    H171023   3.443   0.955  14.631 -0.2323  0.3170  0.5695
16536TIP3    H271024   3.386   1.061  14.539 -1.5824 -0.0435  0.9841
16537TIP3   OH271025   4.007   3.294   5.759 -0.0325  0.1928  1.1054
16537TIP3    H171026   4.012   3.283   5.854  0.7205 -2.0306  0.8451
16537TIP3    H271027   4.020   3.206   5.724 -1.6633  0.7528 -1.0374
16538TIP3   OH271028   2.570   3.557  12.943 -0.8319 -0.1109  0.2219
16538TIP3    H171029   2.519   3.608  12.881  0.0976 -0.8735 -1.2188
16538TIP3    H271030   2.586   3.616  13.016  0.9092  1.9746 -1.7588
16539TIP3   OH271031   3.849   5.675  11.521  0.0867  0.4372  0.6877
16539TIP3    H171032   3.908   5.656  11.593 -1.5809 -1.4240  1.6015
16539TIP3    H271033   3.761   5.665  11.558 -0.8309 -2.4291 -1.9887
16540TIP3   OH271034   5.290   4.464   1.682  1.1113 -0.0431 -0.5704
16540TIP3    H171035   5.245   4.389   1.644  1.1947  0.7300 -2.2355
16540TIP3    H271036   5.357   4.487   1.618  1.3216  1.2268  0.0822
16541TIP3   OH271037   3.942   5.474  12.006  0.2344 -0.3081  0.0100
16541TIP3    H171038   3.889   5.510  12.077  0.2080 -0.4737  0.0734
16541TIP3    H271039   4.014   5.429  12.050 -0.8823 -2.1563 -0.0194
16542TIP3   OH271040   1.218   1.540  14.906  0.0473  0.5579  0.0916
16542TIP3    H171041   1.147   1.534  14.970 -0.1592 -1.3999 -0.2977
16542TIP3    H271042   1.288   1.586  14.953 -0.6957  0.6047  1.1754
16543TIP3   OH271043   6.441   1.782   1.324 -0.1033  0.7448 -0.0392
16543TIP3    H171044   6.377   1.810   1.389  0.0333  1.5314 -0.2271
16543TIP3    H271045   6.390   1.770   1.244 -0.2351  0.0036  0.1578
16544TIP3   OH271046   2.282   5.815   0.443  0.4272  0.4263 -0.7607
16544TIP3    H171047   2.205   5.863   0.411 -0.7415 -0.9249 -0.0403
16544TIP3    H271048   2.353   5.844   0.387 -0.5687  1.8327 -1.3400
16545TIP3   OH271049   1.508   1.542  15.102 -0.6776 -0.4874  0.7156
16545TIP3    H171050   1.449   1.598  15.152  0.3455 -0.0428  1.4288
16545TIP3    H271051   1.470   1.455  15.109 -0.4474 -0.4578  2.4052
16546TIP3   OH271052   5.270   6.242   3.832  0.0240 -0.1582  0.5424
16546TIP3    H171053   5.185   6.201   3.823  0.0298 -0.5776  2.2057
16546TIP3    H271054   5.307   6.241   3.744 -2.5143  1.8914 -0.6036
16547TIP3   OH271055   6.010   2.717  16.579  0.1791  0.2200  0.1530
16547TIP3    H171056   5.947   2.696  16.647  1.1722 -0.2867  0.9188
16547TIP3    H271057   5.968   2.689  16.498 -0.6448  0.0212  0.6473
16548TIP3   OH271058   0.835   2.512   3.892 -0.6763  0.2442  0.2020
16548TIP3    H171059   0.809   2.503   3.984 -0.0222  2.7905  0.6741
16548TIP3    H271060   0.781   2.583   3.858  0.5959  0.7845 -0.7673
16549TIP3   OH271061   6.196   0.813  16.551 -0.2981 -0.4986  0.2274
16549TIP3    H171062   6.178   0.848  16.638  0.1055  1.3960 -0.4175
16549TIP3    H271063   6.290   0.793  16.552 -0.2473 -0.2610  0.1478
16550TIP3   OH271064   5.081   5.201   1.917 -0.1682  0.3935  0.2893
16550TIP3    H171065   5.161   5.251   1.931  1.0184 -1.9917  2.2934
16550TIP3    H271066   5.025   5.223   1.992 -0.8520  0.9924 -0.3864
16551TIP3   OH271067   4.835   3.854  15.384  0.4446  0.2337 -0.5725
16551TIP3    H171068   4.775   3.797  15.432  0.0879  0.8466 -0.2753
16551TIP3    H271069   4.871   3.799  15.315 -1.1456  0.0923 -1.3133
16552TIP3   OH271070   2.222   3.479  15.409  0.8162 -0.0933 -0.0444
16552TIP3    H171071   2.181   3.420  15.473 -1.8950  1.5260 -0.2093
16552TIP3    H271072   2.303   3.509  15.451 -0.9692  1.0353  2.7004
16553TIP3   OH271073   3.766   2.607   0.997  0.4072  0.5513 -0.3353
16553TIP3    H171074   3.777   2.512   1.007  0.3278  0.7327  1.5652
16553TIP3    H271075   3.674   2.618   0.976 -0.0198  0.3276  1.3461
16554TIP3   OH271076   1.220   3.736  15.594 -0.2842  0.0982  0.1552
16554TIP3    H171077   1.243   3.697  15.509  0.9635 -1.0918  1.0169
16554TIP3    H271078   1.288   3.801  15.609 -0.0998 -0.1911  0.5726
16555TIP3   OH271079   6.667   5.824  12.430 -0.6908  0.1507  0.5502
16555TIP3    H171080   6.574   5.839  12.450 -1.0974  0.3171 -1.3393
16555TIP3    H271081   6.666   5.752  12.367  0.5057 -0.1544  0.8774
16556TIP3   OH271082   1.955   5.583  12.900  0.2460 -0.4333 -0.2575
16556TIP3    H171083   1.917   5.595  12.813 -1.4982  0.5434  0.6009
16556TIP3    H271084   1.882   5.556  12.954  0.9354  0.7175  1.2850
16557TIP3   OH271085   5.289   3.873  13.902  0.5291 -0.3041 -0.0531
16557TIP3    H171086   5.326   3.961  13.892  1.1336 -0.4232  1.0213
16557TIP3    H271087   5.303   3.852  13.995 -0.0263 -1.3470 -0.1998
16558TIP3   OH271088   4.852   2.359   2.612  0.7649  0.2225 -0.0690
16558TIP3    H171089   4.805   2.419   2.554 -0.6971 -2.5025 -1.8155
16558TIP3    H271090   4.926   2.410   2.644 -1.4943  3.5881  0.1234
16559TIP3   OH271091   3.879   0.446   4.400  0.0975 -0.2197  0.0628
16559TIP3    H171092   3.905   0.423   4.311  1.3832  0.6126  0.2030
16559TIP3    H271093   3.920   0.380   4.455  1.2104  0.5786  0.2116
16560TIP3   OH271094   5.686   0.369   1.368 -0.4131  0.1472 -0.5139
16560TIP3    H171095   5.701   0.293   1.312 -1.2574  0.2634 -0.9066
16560TIP3    H271096   5.772   0.409   1.378  0.2304 -1.4336  0.5274
16561TIP3   OH271097   0.750   0.224  12.828 -0.2116  0.5098 -0.0895
16561TIP3    H171098   0.808   0.173  12.884  0.8799  0.8734 -0.8881
16561TIP3    H271099   0.664   0.184  12.841  0.7713 -2.1776 -1.3895
16562TIP3   OH271100   1.095   4.808   0.505  0.1474  0.1945 -0.0416
16562TIP3    H171101   1.148   4.861   0.564 -1.0561  0.0136  1.2166
16562TIP3    H271102   1.009   4.851   0.504  0.0248 -0.0506 -1.3247
16563TIP3   OH271103   0.298   1.789   1.193 -0.7260 -0.0978  0.0685
16563TIP3    H171104   0.206   1.763   1.197 -0.9516  0.2891 -2.0091
16563TIP3    H271105   0.337   1.729   1.130  0.3563  0.0560  0.5731
16564TIP3   OH271106   2.358   1.348  14.871  0.2125 -0.0059 -0.8461
16564TIP3    H171107   2.283   1.339  14.930 -0.1720 -1.6660 -1.5706
16564TIP3    H271108   2.411   1.418  14.911 -0.2974 -0.7335  1.1787
16565TIP3   OH271109   1.353   3.279   0.806 -0.1915  0.5738  0.0534
16565TIP3    H171110   1.392   3.363   0.785 -0.5905  1.1722  1.5971
16565TIP3    H271111   1.418   3.214   0.780  0.5358  1.4068 -0.2052
16566TIP3   OH271112   6.547   6.387   1.145 -0.0586 -0.0249 -0.3711
16566TIP3    H171113   6.468   6.376   1.197  0.0997 -2.1105 -0.5276
16566TIP3    H271114   6.544   6.315   1.082  2.3139 -0.5243  0.0570
16567TIP3   OH271115   3.719   0.303   1.276 -0.4301 -0.1747 -0.4124
16567TIP3    H171116   3.715   0.360   1.199  1.0686 -0.9851 -1.1112
16567TIP3    H271117   3.807   0.318   1.312 -0.5259 -1.0193  0.1827
16568TIP3   OH271118   4.410   2.387   4.956  0.2389  0.3180  0.0920
16568TIP3    H171119   4.443   2.446   5.024  0.7548  1.5519 -1.1976
16568TIP3    H271120   4.320   2.415   4.942 -0.5562 -1.3312  1.7511
16569TIP3   OH271121   2.405   2.540  12.264  0.1519 -0.2628  0.5218
16569TIP3    H171122   2.421   2.576  12.351  0.3638  0.3390  0.2296
16569TIP3    H271123   2.450   2.455  12.265 -1.7030 -1.2741  1.7605
16570TIP3   OH271124   2.209   1.546   3.268 -1.4016  0.1072 -0.0375
16570TIP3    H171125   2.176   1.619   3.216 -1.5420  0.0062 -0.0906
16570TIP3    H271126   2.243   1.484   3.203  0.1553  0.8207  0.0705
16571TIP3   OH271127   3.958   1.360  11.631 -0.2165  0.1860 -0.3453
16571TIP3    H171128   4.044   1.397  11.650 -0.7781  0.2644  2.2218
16571TIP3    H271129   3.947   1.289  11.694 -0.8150 -1.8007 -2.6294
16572TIP3   OH271130   5.681   1.858   2.875  0.0172 -0.0753  0.5784
16572TIP3    H171131   5.774   1.836   2.874 -0.5333 -2.4954  0.6067
16572TIP3    H271132   5.662   1.890   2.787  0.7017 -0.2881  0.3551
16573TIP3   OH271133   4.454   3.444  15.430 -0.3613 -0.0987 -0.5056
16573TIP3    H171134   4.498   3.359  15.424 -0.8739 -0.4217  0.2177
16573TIP3    H271135   4.513   3.505  15.386  0.3217 -0.7108 -0.4444
16574TIP3   OH271136   3.365   0.520   2.398 -0.2453 -0.2921  1.0212
16574TIP3    H171137   3.376   0.428   2.374 -0.9929 -0.7032  2.1736
16574TIP3    H271138   3.445   0.541   2.447  0.4594  0.0205 -0.2591
16575TIP3   OH271139   1.746   0.844   1.085  0.1816  0.4357 -0.0302
16575TIP3    H171140   1.744   0.919   1.026  1.4537  0.9469  0.5478
16575TIP3    H271141   1.778   0.771   1.032 -3.3569 -0.3436 -1.2416
16576TIP3   OH271142   0.264   0.041  16.835 -0.1141  0.3702  0.5352
16576TIP3    H171143   0.236  -0.048  16.855  0.5487 -0.0560 -0.3885
16576TIP3    H271144   0.345   0.030  16.784 -0.3271  1.4761 -0.0591
16577TIP3   OH271145   4.177   4.145   1.601 -0.0606  0.0407  0.5011
16577TIP3    H171146   4.087   4.129   1.576 -0.6127  2.1474  1.0252
16577TIP3    H271147   4.182   4.116   1.692 -0.8991  2.1533  1.2611
16578TIP3   OH271148   3.730   4.019   1.240  0.0342 -0.4388  0.1116
16578TIP3    H171149   3.823   3.999   1.252  0.4635  0.5459 -1.4680
16578TIP3    H271150   3.715   4.009   1.146 -1.2074  0.4656  0.2051
16579TIP3   OH271151   2.404   2.631   4.072 -0.1045 -0.1184 -0.3859
16579TIP3    H171152   2.342   2.589   4.130 -0.3625  1.0721  0.2244
16579TIP3    H271153   2.356   2.643   3.990 -0.1290 -0.7224 -0.4570
16580TIP3   OH271154   2.560   2.538  10.894  0.2047  0.7775  0.2636
16580TIP3    H171155   2.503   2.611  10.918 -0.6023  0.6049 -1.1090
16580TIP3    H271156   2.644   2.579  10.873 -0.2990  1.3400 -0.6774
16581TIP3   OH271157   0.781   6.611  16.767 -0.1516  0.0382  0.1951
16581TIP3    H171158   0.863   6.658  16.750  0.7545 -1.4798  0.2711
16581TIP3    H271159   0.802   6.520  16.749 -1.9604 -0.3210 -0.2183
16582TIP3   OH271160   3.258   4.927  11.658 -0.9260  0.0885  0.5479
16582TIP3    H171161   3.309   4.920  11.578  0.6815 -0.3818  1.6081
16582TIP3    H271162   3.183   4.870  11.643 -0.4240 -0.3225 -0.4490
16583TIP3   OH271163   6.493   5.934  15.421  0.4670  0.2777 -0.0980
16583TIP3    H171164   6.567   5.982  15.459 -0.1560  1.0491  0.1715
16583TIP3    H271165   6.532   5.858  15.379  1.3740  0.4752  0.3760
16584TIP3   OH271166   4.866   4.029   4.468 -0.0601 -0.0152 -0.0539
16584TIP3    H171167   4.815   3.952   4.494 -0.5774  0.1948 -0.4446
16584TIP3    H271168   4.802   4.088   4.430  0.4555  0.3219 -0.3958
16585TIP3   OH271169   0.061   3.789  14.631 -0.3737  0.0586  0.0252
16585TIP3    H171170   0.130   3.772  14.567 -0.4051  1.0213 -0.2697
16585TIP3    H271171  -0.003   3.720  14.617 -0.5796  0.5027 -1.2576
16586TIP3   OH271172   4.405   2.489   0.130  0.0923 -0.3980 -0.3660
16586TIP3    H171173   4.476   2.532   0.082  0.7799  0.8574  1.6875
16586TIP3    H271174   4.345   2.561   0.151 -0.0027 -0.8647  0.9640
16587TIP3   OH271175   0.502   0.860  14.278  0.3847 -0.0982 -0.3055
16587TIP3    H171176   0.516   0.766  14.270 -1.7223 -0.6835  2.0318
16587TIP3    H271177   0.563   0.900  14.216  2.3121 -2.9409 -0.2920
16588TIP3   OH271178   4.414   5.276   5.836  0.0750 -0.1417  0.9703
16588TIP3    H171179   4.389   5.350   5.891 -0.5728  0.7280 -0.4647
16588TIP3    H271180   4.409   5.310   5.747  2.0544 -1.2423  0.4094
16589TIP3   OH271181   2.922   2.660  12.169  0.1647  0.4021 -0.2907
16589TIP3    H171182   2.953   2.688  12.255 -0.8471  2.1708 -0.4723
16589TIP3    H271183   2.998   2.619  12.128  1.0376  0.8051  0.9060
16590TIP3   OH271184   5.687   5.616  14.436 -0.7092  0.2064 -0.8234
16590TIP3    H171185   5.604   5.659  14.413 -1.0273  0.3630  0.5986
16590TIP3    H271186   5.736   5.682  14.485  0.0820 -0.0360 -1.2737
16591TIP3   OH271187   4.708   6.223  14.097 -0.2432  0.7487  0.2035
16591TIP3    H171188   4.723   6.289  14.030  0.0953  0.3277 -0.1421
16591TIP3    H271189   4.614   6.225  14.113 -0.1866  1.5450  0.4409
16592TIP3   OH271190   6.623   5.776   6.793  0.5758 -0.5831 -0.7571
16592TIP3    H171191   6.540   5.819   6.771  0.5427 -0.7102 -0.8833
16592TIP3    H271192   6.668   5.839   6.849  0.8910 -0.0287 -1.6254
16593TIP3   OH271193   5.109   4.183   5.438 -0.0365 -0.1334 -0.1504
16593TIP3    H171194   5.143   4.204   5.525  0.4772 -0.9602 -0.1436
16593TIP3    H271195   5.027   4.232   5.431 -0.4404 -0.6198  1.0843
16594TIP3   OH271196   4.617   3.023   1.285 -0.5210  0.3754 -0.1478
16594TIP3    H171197   4.620   2.969   1.206 -0.0263  3.1598 -2.1011
16594TIP3    H271198   4.542   3.080   1.272  1.5830  3.2060 -0.2445
16595TIP3   OH271199   0.040   0.820   2.603  0.0176  0.3677  0.2036
16595TIP3    H171200   0.034   0.854   2.513  3.3678 -2.3605 -1.1635
16595TIP3    H271201   0.127   0.846   2.632  0.1660 -1.4667  1.4649
16596TIP3   OH271202   4.594   5.074  13.217 -0.6816 -0.0489 -0.6246
16596TIP3    H171203   4.638   5.152  13.251  0.4962 -1.7251  1.8264
16596TIP3    H271204   4.525   5.055  13.280 -0.5337 -1.3611 -0.8439
16597TIP3   OH271205   5.593   4.373  15.627  0.1402  0.0767 -0.6914
16597TIP3    H171206   5.663   4.428  15.663 -1.0458 -0.6493  2.9748
16597TIP3    H271207   5.556   4.329  15.703 -2.7438 -1.3950 -2.8447
16598TIP3   OH271208   2.190   6.518   0.906  0.6208  0.4671 -0.7313
16598TIP3    H171209   2.278   6.552   0.923  1.1223 -0.3802 -1.6177
16598TIP3    H271210   2.192   6.430   0.942 -0.1167  0.7314 -0.0479
16599TIP3   OH271211   0.998   2.835  12.335  0.1059 -0.2211  0.5718
16599TIP3    H171212   1.012   2.869  12.423  2.8140  0.2808 -0.0014
16599TIP3    H271213   1.014   2.910  12.277  2.1935 -1.4512 -0.5104
16600TIP3   OH271214   0.849   1.753  11.483 -0.6776  0.0196  0.1644
16600TIP3    H171215   0.881   1.831  11.438  0.7614  0.8891  2.6160
16600TIP3    H271216   0.815   1.697  11.412  1.4048  1.3733 -1.9808
16601TIP3   OH271217   4.150   6.728   3.878 -0.0479  0.1575 -0.6322
16601TIP3    H171218   4.223   6.780   3.844 -0.4137  1.2185  0.1921
16601TIP3    H271219   4.091   6.791   3.918 -1.0520 -0.7760 -0.5914
16602TIP3   OH271220   6.528   1.964  17.160  0.1305 -0.4663 -0.0409
16602TIP3    H171221   6.622   1.957  17.143  0.4092 -0.6751  1.5349
16602TIP3    H271222   6.502   2.047  17.120  1.0917 -0.1600 -0.0448
16603TIP3   OH271223   0.705   4.083  15.716 -0.0418  0.0726 -0.0674
16603TIP3    H171224   0.740   4.158  15.669 -0.1582  0.2171  0.0790
16603TIP3    H271225   0.705   4.012  15.651 -2.2190  0.8111 -0.9060
16604TIP3   OH271226   1.910   3.953   0.292 -0.4641 -0.1546  0.1277
16604TIP3    H171227   1.938   3.965   0.383 -2.4759 -3.9725  1.3790
16604TIP3    H271228   1.990   3.933   0.244  0.5187  1.1087  1.2084
16605TIP3   OH271229   5.614   6.353   0.756 -0.8668 -0.5934 -0.5297
16605TIP3    H171230   5.522   6.329   0.769 -0.9228  0.5024  1.3118
16605TIP3    H271231   5.626   6.355   0.661 -3.2133  1.0122 -0.8062
16606TIP3   OH271232   2.882   5.732   5.854 -0.4066 -0.0923 -0.7131
16606TIP3    H171233   2.950   5.709   5.916 -0.5579  1.6061  0.1288
16606TIP3    H271234   2.833   5.651   5.840  0.6828 -0.8914  0.0506
16607TIP3   OH271235   1.077   5.010   0.108  0.0902  0.7355 -0.0882
16607TIP3    H171236   1.005   5.056   0.150  1.3103  1.8500  0.8247
16607TIP3    H271237   1.122   4.965   0.179  0.0991 -0.2587 -0.7043
16608TIP3   OH271238   2.380   3.025   4.389 -0.0117  0.4740 -0.1223
16608TIP3    H171239   2.391   2.958   4.457 -0.1001 -1.3798 -1.8618
16608TIP3    H271240   2.292   3.059   4.402 -0.7626 -1.2763 -0.4996
16609TIP3   OH271241   4.817   2.972  12.573  0.0097 -0.6057 -0.2896
16609TIP3    H171242   4.745   3.000  12.629  0.4071 -0.2201  0.0297
16609TIP3    H271243   4.796   2.881  12.552 -0.5830 -0.4864 -0.2213
16610TIP3   OH271244   6.598   4.367  10.916 -0.2010  0.3020  0.6516
16610TIP3    H171245   6.537   4.298  10.890  0.3328  0.2026 -0.3525
16610TIP3    H271246   6.551   4.449  10.899  0.5887  0.2794 -1.8404
16611TIP3   OH271247   3.599   2.006   3.454  0.2540 -0.0397 -0.5616
16611TIP3    H171248   3.671   2.059   3.419 -0.4814  0.9474 -0.5992
16611TIP3    H271249   3.643   1.936   3.502  1.2960 -1.2051 -3.0993
16612TIP3   OH271250   4.076   0.150  13.087 -0.9769  0.0248  0.2563
16612TIP3    H171251   4.101   0.181  13.174 -0.3421  0.9078 -0.2325
16612TIP3    H271252   3.983   0.128  13.095 -0.9634  0.2601  1.1103
16613TIP3   OH271253   4.904   0.661   1.327 -0.1246 -0.2646  0.1425
16613TIP3    H171254   4.957   0.738   1.308 -0.9334  0.1416 -0.5114
16613TIP3    H271255   4.820   0.679   1.285  0.4156 -2.5427 -2.0652
16614TIP3   OH271256   4.472   6.111   0.841  0.1641  0.1224 -1.2262
16614TIP3    H171257   4.483   6.118   0.746 -2.6063  1.1226 -1.5156
16614TIP3    H271258   4.395   6.056   0.852  0.0471  0.6051  0.4341
16615TIP3   OH271259   4.574   5.193   4.828 -0.2844 -0.0789  0.3650
16615TIP3    H171260   4.511   5.253   4.867  0.3766  0.9926 -0.2153
16615TIP3    H271261   4.624   5.160   4.903 -0.3738  0.4022  0.6383
16616TIP3   OH271262   2.462   1.631  16.730  0.5024  0.3460 -0.1794
16616TIP3    H171263   2.482   1.634  16.637 -0.5204 -1.3233 -0.4793
16616TIP3    H271264   2.512   1.557  16.764  0.2915  0.4841  0.4460
16617TIP3   OH271265   5.669   6.094  16.898  0.1626  0.1840  0.1723
16617TIP3    H171266   5.690   6.056  16.813  0.3743  0.3886  0.1306
16617TIP3    H271267   5.574   6.091  16.903  0.2097 -0.8814  0.4200
16618TIP3   OH271268   0.741   2.271  14.921 -0.3406 -0.1316  0.4866
16618TIP3    H171269   0.705   2.242  15.005 -1.4648 -1.1946 -0.3401
16618TIP3    H271270   0.818   2.215  14.907  0.3874  0.6729  1.2327
16619TIP3   OH271271   0.208   1.413  15.780 -0.2826  0.4500 -0.0133
16619TIP3    H171272   0.256   1.359  15.717  1.3158  1.9415 -0.1297
16619TIP3    H271273   0.155   1.351  15.830  0.8919 -1.1208 -0.6762
16620TIP3   OH271274   6.501   6.530   3.245 -0.5255 -0.0158  0.1329
16620TIP3    H171275   6.417   6.532   3.199 -0.5290  1.2105  0.1868
16620TIP3    H271276   6.562   6.576   3.188  0.2813 -1.4577 -0.2024
16621TIP3   OH271277   4.500   1.037  13.198 -0.2204  0.2548  0.3627
16621TIP3    H171278   4.501   0.951  13.156  0.6610  0.0396  0.8237
16621TIP3    H271279   4.431   1.085  13.152 -0.2886 -0.4831 -0.3171
16622TIP3   OH271280   3.231   1.719  15.852  0.1214 -0.0427  0.1022
16622TIP3    H171281   3.165   1.655  15.827 -1.2190  0.9217  1.0841
16622TIP3    H271282   3.183   1.786  15.901  1.7841  0.8013  0.6457
16623TIP3   OH271283   0.128   4.158  12.154  0.2124  0.3700  0.5246
16623TIP3    H171284   0.191   4.222  12.120  1.0833 -0.6334  0.1898
16623TIP3    H271285   0.089   4.119  12.075 -1.3016  1.4292  0.7392
16624TIP3   OH271286   3.276   5.970  15.053  0.3329 -0.0580 -0.2158
16624TIP3    H171287   3.273   5.878  15.078 -1.5248 -0.2421 -1.0187
16624TIP3    H271288   3.279   6.018  15.136 -1.9933 -0.7582  0.2995
16625TIP3   OH271289   6.429   1.227  11.698  0.0022 -0.2123 -0.1824
16625TIP3    H171290   6.388   1.270  11.623  1.2406  3.2901  1.0191
16625TIP3    H271291   6.522   1.223  11.674  0.0291 -1.3782  0.1200
16626TIP3   OH271292   5.490   6.082   0.030  0.0170  0.8421 -0.1569
16626TIP3    H171293   5.409   6.109   0.073 -0.4698  1.4253 -1.4193
16626TIP3    H271294   5.556   6.145   0.061 -0.6184  2.0794 -1.3069
16627TIP3   OH271295   2.503   2.025   1.572  0.1254  0.2610 -0.5718
16627TIP3    H171296   2.571   1.978   1.619 -0.1035  1.4223  0.9323
16627TIP3    H271297   2.441   2.053   1.639  0.1935  2.6067 -1.4340
16628TIP3   OH271298   6.156   4.863   5.596  0.2804  0.1756 -0.3365
16628TIP3    H171299   6.227   4.920   5.624 -0.7538  1.4494 -0.2491
16628TIP3    H271300   6.179   4.837   5.507  0.1772  1.7343 -0.8333
16629TIP3   OH271301   4.788   4.514  13.061 -0.7845 -0.4153 -0.2868
16629TIP3    H171302   4.864   4.567  13.038 -1.3042  0.7418  0.6390
16629TIP3    H271303   4.723   4.533  12.994 -1.3952  1.0469  0.6894
16630TIP3   OH271304   2.307   2.347   5.079  0.1012 -0.4594 -0.1186
16630TIP3    H171305   2.226   2.302   5.054 -1.5918  1.9863  0.7371
16630TIP3    H271306   2.342   2.295   5.152 -0.9082 -1.3071 -0.2253
16631TIP3   OH271307   6.336   3.569  14.657 -0.5173 -0.2116 -0.3781
16631TIP3    H171308   6.416   3.524  14.631 -0.8916 -0.5336 -0.9836
16631TIP3    H271309   6.354   3.662  14.639  0.9053  0.1372  2.5144
16632TIP3   OH271310   1.249   2.775   0.812  0.0747 -0.1387  0.3099
16632TIP3    H171311   1.328   2.757   0.863  0.7409  0.9950 -0.3028
16632TIP3    H271312   1.209   2.850   0.856 -0.4685 -0.4798  0.4002
16633TIP3   OH271313   5.591   0.214   4.071 -0.3095  0.4658 -0.1136
16633TIP3    H171314   5.547   0.294   4.041 -1.4534  0.5718  1.7600
16633TIP3    H271315   5.615   0.168   3.991  0.7346  2.8871 -1.2211
16634TIP3   OH271316   1.696   6.604   0.479  0.1568  0.1358  0.0244
16634TIP3    H171317   1.681   6.529   0.422 -0.7339  0.3893 -0.0747
16634TIP3    H271318   1.707   6.565   0.566 -3.3145  0.0838  0.4815
16635TIP3   OH271319   4.025   5.754  13.122  0.2979  0.4991  0.3775
16635TIP3    H171320   4.006   5.836  13.077 -2.4843  1.0524  2.3991
16635TIP3    H271321   4.120   5.751  13.130  0.4536  3.2365 -0.2285
16636TIP3   OH271322   1.105   5.184   0.344  0.4198 -0.3357 -0.0395
16636TIP3    H171323   1.125   5.189   0.438  0.3286 -0.6665 -0.0023
16636TIP3    H271324   1.015   5.151   0.341 -0.3023  1.5802 -0.1887
16637TIP3   OH271325   1.143   3.639   5.344 -0.0006  0.1182 -0.6677
16637TIP3    H171326   1.223   3.624   5.294 -0.6185 -3.1748 -0.7774
16637TIP3    H271327   1.169   3.624   5.435 -0.2881  0.0232 -0.6016
16638TIP3   OH271328   2.203   0.202   2.134 -0.3051  0.5869  0.3552
16638TIP3    H171329   2.127   0.146   2.125  1.7901 -2.1312 -1.1866
16638TIP3    H271330   2.234   0.188   2.223  0.9857 -1.8213 -0.4340
16639TIP3   OH271331   5.410   5.505   1.621 -0.1672 -0.0658 -0.1777
16639TIP3    H171332   5.391   5.420   1.582  0.6088 -0.1858 -0.2961
16639TIP3    H271333   5.324   5.540   1.644 -0.5875 -0.2399 -1.4610
16640TIP3   OH271334   6.528   1.696  14.585 -0.1686 -0.0769  0.1183
16640TIP3    H171335   6.436   1.679  14.563 -0.3600 -0.8037  1.4399
16640TIP3    H271336   6.572   1.703  14.500 -1.1875 -1.1660 -0.5166
16641TIP3   OH271337   1.100   2.672  12.612  0.0282  0.4789 -0.3828
16641TIP3    H171338   1.114   2.669  12.707 -2.3690 -0.0053 -0.0291
16641TIP3    H271339   1.096   2.581  12.585  0.5562  0.6160 -0.9568
16642TIP3   OH271340   6.083   2.394  11.448  0.0179 -0.2619 -0.5073
16642TIP3    H171341   6.054   2.384  11.539 -0.7876 -2.8796 -1.0076
16642TIP3    H271342   6.131   2.477  11.447 -0.6590  0.2082  2.1145
16643TIP3   OH271343   4.674   1.279  16.179  0.1961 -0.1330 -0.2130
16643TIP3    H171344   4.749   1.339  16.182  2.4866 -2.8444 -0.8068
16643TIP3    H271345   4.698   1.208  16.239 -1.2012 -1.8032 -1.5717
16644TIP3   OH271346   6.076   5.595  14.822 -0.3349 -0.5016  0.2114
16644TIP3    H171347   6.088   5.667  14.760  0.5016 -0.1217  0.7974
16644TIP3    H271348   5.988   5.562  14.804  0.6975 -1.8525 -2.6861
16645TIP3   OH271349   1.382   0.486  12.434  0.3382  0.7807  0.3072
16645TIP3    H171350   1.326   0.548  12.386 -1.2050  0.7456  1.9689
16645TIP3    H271351   1.320   0.436  12.488  1.8647 -0.2343  1.1314
16646TIP3   OH271352   0.391   2.848   2.655  0.0732  0.5767 -0.2442
16646TIP3    H171353   0.335   2.811   2.588 -1.2466  0.4780  0.9012
16646TIP3    H271354   0.457   2.780   2.672  0.1275  0.4202 -1.0812
16647TIP3   OH271355   2.351   0.210  15.404  0.6379 -0.0981  0.7319
16647TIP3    H171356   2.375   0.284  15.347  2.4746 -0.0009  1.6001
16647TIP3    H271357   2.405   0.222  15.482  0.5077 -2.0296  1.1376
16648TIP3   OH271358   1.223   4.707   0.988 -0.3365 -0.0750 -0.0198
16648TIP3    H171359   1.297   4.767   1.001  0.7907 -1.4129 -0.1369
16648TIP3    H271360   1.151   4.747   1.037  0.4991  1.1952  0.1895
16649TIP3   OH271361   6.600   2.714   5.085 -0.1842  0.2068 -0.5243
16649TIP3    H171362   6.582   2.780   5.019  2.1148 -0.3216 -1.7324
16649TIP3    H271363   6.623   2.635   5.035 -0.7419 -0.8746  0.8906
16650TIP3   OH271364   2.403   3.049  11.177  0.2344 -0.6067 -0.3697
16650TIP3    H171365   2.461   2.999  11.235  0.3924 -0.5832 -0.5073
16650TIP3    H271366   2.458   3.120  11.144 -0.3412  0.4174  0.8350
16651TIP3   OH271367   3.018   0.754   3.512  0.0595 -0.4826  0.2094
16651TIP3    H171368   2.951   0.697   3.474 -1.1351 -0.1060  1.7497
16651TIP3    H271369   2.991   0.843   3.489 -0.3363 -0.2887  1.4013
16652TIP3   OH271370   6.759   4.534  12.712 -0.1598 -0.2829  0.3170
16652TIP3    H171371   6.767   4.609  12.771 -0.7354 -0.4799  0.6490
16652TIP3    H271372   6.820   4.553  12.640 -2.9898  2.3155 -1.5294
16653TIP3   OH271373   3.381   2.018   1.780  0.3385 -0.2168  1.1032
16653TIP3    H171374   3.459   2.030   1.726 -0.6455 -1.8379 -0.7527
16653TIP3    H271375   3.310   2.057   1.729 -0.0394  1.6559  2.9801
16654TIP3   OH271376   0.023   4.627   5.609  0.7523  0.0526 -0.4012
16654TIP3    H171377   0.093   4.567   5.635 -1.2229 -2.0922  0.1967
16654TIP3    H271378  -0.046   4.612   5.673 -0.5900  1.5009 -1.4675
16655TIP3   OH271379   2.069   2.863  16.043  0.0350  0.2215 -0.4816
16655TIP3    H171380   2.037   2.824  16.125 -0.9751  1.1921 -0.4106
16655TIP3    H271381   2.035   2.807  15.974 -2.1178  1.4026 -0.4265
16656TIP3   OH271382   0.251   4.229   5.583 -0.1068  0.1290 -0.0159
16656TIP3    H171383   0.207   4.285   5.647 -2.0105 -0.9122 -0.3934
16656TIP3    H271384   0.339   4.218   5.619 -0.3046  1.7733  1.0437
16657TIP3   OH271385   3.653   0.649   2.749 -0.3718  0.5531 -0.2294
16657TIP3    H171386   3.708   0.725   2.733 -1.6955  1.3078 -1.3111
16657TIP3    H271387   3.593   0.676   2.819 -0.2546  0.2055  0.0048
16658TIP3   OH271388   5.152   0.254  11.983 -0.5183  0.2433  0.7609
16658TIP3    H171389   5.239   0.291  11.996 -0.5047  0.6078 -0.2649
16658TIP3    H271390   5.093   0.330  11.984 -1.1814 -0.2560  4.2116
16659TIP3   OH271391   2.620   1.736   0.308 -0.2863  0.3483 -0.0083
16659TIP3    H171392   2.529   1.708   0.303 -0.0074 -0.5842  0.1940
16659TIP3    H271393   2.666   1.681   0.245 -0.0432  1.5928 -0.9563
16660TIP3   OH271394   5.749   0.060  11.710  1.1411 -0.1948 -0.4647
16660TIP3    H171395   5.813   0.095  11.773  2.0472 -1.5337 -0.6240
16660TIP3    H271396   5.803   0.029  11.638  0.0982  1.4841 -2.0005
16661TIP3   OH271397   1.886   6.117   3.562  0.1885  0.0395 -0.2486
16661TIP3    H171398   1.958   6.135   3.623  1.3818  0.2906 -1.7156
16661TIP3    H271399   1.820   6.073   3.616  0.9944  0.7416  1.3485
16662TIP3   OH271400   1.991   0.470   1.928 -0.4147  0.0782  0.3726
16662TIP3    H171401   2.062   0.517   1.884  1.2430 -1.0507  1.7977
16662TIP3    H271402   1.973   0.521   2.007 -0.1400 -0.4520  0.7832
16663TIP3   OH271403   1.171   4.232   5.047 -0.1946  0.3327 -0.6943
16663TIP3    H171404   1.080   4.245   5.018 -0.3110  0.8698 -0.0704
16663TIP3    H271405   1.163   4.196   5.135  0.1619 -1.6550 -1.4300
16664TIP3   OH271406   4.833   0.305  14.887 -0.0155  0.1420 -0.8923
16664TIP3    H171407   4.790   0.295  14.802  0.3088 -0.7712 -0.9544
16664TIP3    H271408   4.766   0.282  14.951  0.5616 -2.0022 -1.0163
16665TIP3   OH271409   5.480   3.091   3.681  0.2522 -0.4171 -0.2385
16665TIP3    H171410   5.387   3.085   3.704  0.0207  0.6928 -0.8378
16665TIP3    H271411   5.524   3.031   3.741 -0.7415 -0.2059  0.7074
16666TIP3   OH271412   4.126   3.743  13.989  0.1312 -0.2865 -0.3522
16666TIP3    H171413   4.219   3.752  13.971 -0.2696  1.0896 -1.8395
16666TIP3    H271414   4.104   3.818  14.044 -0.2235 -0.2614 -0.5221
16667TIP3   OH271415   4.597   2.192  16.070  0.0644  0.7847 -0.0176
16667TIP3    H171416   4.592   2.098  16.054 -2.5582  1.2600 -2.5065
16667TIP3    H271417   4.655   2.225  16.002  1.1749  0.9307  1.0058
16668TIP3   OH271418   5.756   4.985   3.312 -0.4587  0.0894 -0.3398
16668TIP3    H171419   5.705   4.966   3.233  1.2556 -1.4021 -1.1241
16668TIP3    H271420   5.835   5.029   3.279  0.0873 -0.1842  0.5888
16669TIP3   OH271421   0.674   1.223  14.688 -0.2601  0.1109 -0.5685
16669TIP3    H171422   0.594   1.200  14.735  0.6975  0.8165  1.4684
16669TIP3    H271423   0.669   1.174  14.607 -1.7911 -1.4535  0.4372
16670TIP3   OH271424   0.015   3.195  15.438 -0.2541 -0.1715  0.6737
16670TIP3    H171425  -0.068   3.210  15.394  1.0652  1.9023 -1.2729
16670TIP3    H271426   0.012   3.252  15.515 -0.9991 -0.7957  1.1056
16671TIP3   OH271427   6.548   4.403  13.805  0.4726  0.1955  0.5071
16671TIP3    H171428   6.551   4.351  13.885  1.2532  1.5283  1.3675
16671TIP3    H271429   6.634   4.444  13.800 -0.0710  1.2674 -0.2304
16672TIP3   OH271430   1.628   1.170   1.558 -0.1316 -0.3498 -0.1191
16672TIP3    H171431   1.722   1.182   1.547  0.1080 -1.3055  0.8789
16672TIP3    H271432   1.593   1.259   1.565  0.4412  0.0904 -2.4791
16673TIP3   OH271433   3.201   6.122   4.711 -0.0997  0.4114  0.0887
16673TIP3    H171434   3.142   6.141   4.784 -2.6411 -0.9195 -1.5488
16673TIP3    H271435   3.185   6.194   4.649  0.4467  0.3774 -0.0884
16674TIP3   OH271436   0.226   4.929   2.605  0.5088 -0.3383 -0.0142
16674TIP3    H171437   0.152   4.946   2.545  0.0074 -2.8974 -0.1491
16674TIP3    H271438   0.302   4.962   2.557 -0.2927  0.5990 -0.6876
16675TIP3   OH271439   1.202   1.083  11.208 -0.2407 -0.8855  0.5090
16675TIP3    H171440   1.183   0.989  11.204  0.2664 -0.9162 -1.3281
16675TIP3    H271441   1.134   1.124  11.154  2.8318 -0.7266 -3.4411
16676TIP3   OH271442   1.724   0.699  10.561 -0.1309 -0.1222  0.2774
16676TIP3    H171443   1.788   0.759  10.521 -0.3631  0.3121  0.5547
16676TIP3    H271444   1.647   0.753  10.577  0.1830 -0.1401  1.8899
16677TIP3   OH271445   6.504   1.410  14.505  0.5130 -0.5912  0.5892
16677TIP3    H171446   6.531   1.323  14.474  0.0643 -0.4671 -0.1501
16677TIP3    H271447   6.556   1.424  14.584  1.3643 -1.0838  0.1228
16678TIP3   OH271448   2.973   2.495   4.516  0.7125 -0.2164  0.1233
16678TIP3    H171449   3.054   2.477   4.468  0.0085 -3.8862  0.0996
16678TIP3    H271450   2.992   2.464   4.605 -0.6554 -1.1827  0.0882
16679TIP3   OH271451   5.851   6.238  17.036  0.3482  0.1855  0.6183
16679TIP3    H171452   5.832   6.235  17.130  0.7153  0.9322  0.7168
16679TIP3    H271453   5.795   6.170  16.999 -1.7913  1.6585  1.0402
16680TIP3   OH271454   5.743   2.014  14.539  0.3028  0.1791  0.0966
16680TIP3    H171455   5.741   1.957  14.462 -1.2972 -0.6412  0.7134
16680TIP3    H271456   5.717   2.101  14.506  1.9468  0.3711 -0.6988
16681TIP3   OH271457   2.455   2.491   2.434  0.5047 -0.2710  0.0048
16681TIP3    H171458   2.451   2.465   2.341 -1.0249 -0.0859  0.0013
16681TIP3    H271459   2.522   2.435   2.472  0.7324 -0.7569 -1.0933
16682TIP3   OH271460   3.717   4.300  17.158  0.3756  0.1532  0.2265
16682TIP3    H171461   3.638   4.322  17.109  0.6107 -0.9136 -0.6371
16682TIP3    H271462   3.693   4.225  17.212  0.3851  0.7537  1.0872
16683TIP3   OH271463   3.877   5.448   2.796  0.2264  0.0857  0.1066
16683TIP3    H171464   3.902   5.368   2.842  1.2774 -0.0019 -0.6208
16683TIP3    H271465   3.909   5.519   2.852  0.6247 -0.0140  0.0033
16684TIP3   OH271466   5.589   4.359   1.118  0.4460  0.0676  0.3961
16684TIP3    H171467   5.643   4.282   1.101  1.3290  0.5609  0.9284
16684TIP3    H271468   5.605   4.417   1.043  1.8063  0.8414  1.2687
16685TIP3   OH271469   1.756   2.898   1.095  0.2129  0.0593 -0.2503
16685TIP3    H171470   1.728   2.830   1.033  1.3481 -1.0332  0.3927
16685TIP3    H271471   1.745   2.857   1.181 -1.3706  1.5657  0.2834
16686TIP3   OH271472   0.953   1.935  15.542  0.3383  0.1355  0.5061
16686TIP3    H171473   1.005   1.961  15.618  0.2332 -1.2232  1.0589
16686TIP3    H271474   0.863   1.937  15.572  0.0610  2.2651 -0.3894
16687TIP3   OH271475   2.495   1.502  13.404 -0.4740 -0.3665 -0.6800
16687TIP3    H171476   2.442   1.517  13.482 -0.5197 -1.3590 -0.5131
16687TIP3    H271477   2.584   1.492  13.437 -0.8157 -3.1070 -0.4958
16688TIP3   OH271478   6.558   1.691  15.033  0.3211 -0.5263 -0.0505
16688TIP3    H171479   6.569   1.625  15.102 -0.2474  0.3734  0.9068
16688TIP3    H271480   6.473   1.731  15.051 -0.0341 -0.5704 -1.5310
16689TIP3   OH271481   4.780   5.821  11.804 -0.2103  0.1032 -1.1149
16689TIP3    H171482   4.775   5.765  11.882  0.1748  2.1786  0.4568
16689TIP3    H271483   4.840   5.775  11.745  1.1576 -0.5025  0.6847
16690TIP3   OH271484   2.466   5.696  16.883 -0.5138 -0.2155 -0.1749
16690TIP3    H171485   2.431   5.624  16.831 -0.3502  0.1027 -0.7302
16690TIP3    H271486   2.414   5.772  16.858  0.4025  0.2119 -0.8368
16691TIP3   OH271487   6.122   2.081   4.577  0.5425  0.3936  0.1224
16691TIP3    H171488   6.183   2.038   4.517 -0.2474  0.1512 -0.5212
16691TIP3    H271489   6.117   2.021   4.652  1.1939  0.4855  0.2462
16692TIP3   OH271490   4.739   2.323  12.820  0.1467 -0.1318  0.4583
16692TIP3    H171491   4.830   2.341  12.797 -0.0596 -0.5192 -0.6852
16692TIP3    H271492   4.728   2.230  12.804  0.0593 -0.4862  2.3998
16693TIP3   OH271493   6.193   1.575  13.364 -0.1129  0.0317 -0.3134
16693TIP3    H171494   6.157   1.503  13.414 -1.0118  0.5453 -0.2037
16693TIP3    H271495   6.155   1.654  13.403  1.7159  0.6468  0.2796
16694TIP3   OH271496   1.092   0.157  14.030  0.2943  1.2662  0.2364
16694TIP3    H171497   1.097   0.117  14.116 -1.0624 -1.5490 -0.9319
16694TIP3    H271498   1.165   0.118  13.981 -1.1147  0.0844 -0.9587
16695TIP3   OH271499   3.252   3.908   1.060 -0.1839  0.1970  0.3902
16695TIP3    H171500   3.235   3.830   1.113 -0.2781 -1.0640 -1.4553
16695TIP3    H271501   3.326   3.950   1.103 -0.8674 -0.2555  2.0912
16696TIP3   OH271502   3.401   6.387  12.012  0.2940  0.1586  0.0730
16696TIP3    H171503   3.470   6.329  11.980 -0.7286 -0.0185 -1.8754
16696TIP3    H271504   3.351   6.333  12.073  1.0901 -0.0999  0.5036
16697TIP3   OH271505   0.973   5.942   1.827 -0.3515 -0.4046  0.6860
16697TIP3    H171506   0.898   5.991   1.794 -0.0711  0.0569  0.7403
16697TIP3    H271507   0.935   5.862   1.865 -0.7906 -0.2857  0.4876
16698TIP3   OH271508   0.163   0.815   4.015 -0.2789  0.0769 -1.0359
16698TIP3    H171509   0.181   0.883   4.080  3.0490 -0.9041 -0.8209
16698TIP3    H271510   0.200   0.735   4.053 -0.3642 -0.9914 -3.1111
16699TIP3   OH271511   6.450   6.024  14.378  0.6206  0.6510 -0.0447
16699TIP3    H171512   6.483   6.104  14.419  0.5175  0.6390  0.0610
16699TIP3    H271513   6.474   5.954  14.439  0.2091  0.6675  0.1376
16700TIP3   OH271514   3.929   4.373   5.753  0.0487  0.5391  0.7165
16700TIP3    H171515   4.022   4.393   5.742  0.2564 -0.7251  0.1791
16700TIP3    H271516   3.893   4.453   5.792  0.7593  2.2434 -1.9523
16701TIP3   OH271517   4.166   1.681   1.231 -0.0438  0.3452 -0.2914
16701TIP3    H171518   4.225   1.619   1.188  2.1871  0.3017  2.6221
16701TIP3    H271519   4.141   1.743   1.163  1.7707 -0.8369 -2.0672
16702TIP3   OH271520   0.996   0.085  11.102  0.2815  0.1700 -0.3867
16702TIP3    H171521   1.015   0.179  11.107 -0.0746  0.1929  0.9545
16702TIP3    H271522   1.039   0.048  11.180  0.3936 -0.7775 -0.8846
16703TIP3   OH271523   4.803   5.833  16.736 -0.7933  0.6055  0.7196
16703TIP3    H171524   4.787   5.745  16.770 -1.9474  0.8943  0.9210
16703TIP3    H271525   4.818   5.886  16.814  0.4861  0.4830  0.5685
16704TIP3   OH271526   0.385   3.725   6.473 -0.6441 -0.8243  0.1886
16704TIP3    H171527   0.455   3.663   6.492 -1.0135 -0.9163  1.2660
16704TIP3    H271528   0.304   3.675   6.485 -0.9243 -0.3474  0.2959
16705TIP3   OH271529   3.249   3.400   2.508  0.3014  0.4985  0.4647
16705TIP3    H171530   3.173   3.368   2.460  0.0071  0.1943  1.1328
16705TIP3    H271531   3.224   3.487   2.539  0.6211  0.8470 -0.2149
16706TIP3   OH271532   6.434   2.919   4.930 -0.5090  0.1557  0.3485
16706TIP3    H171533   6.489   2.925   4.852 -0.4218 -0.1165  0.3877
16706TIP3    H271534   6.372   2.848   4.910 -1.7904  1.4300 -0.2764
16707TIP3   OH271535   0.715   0.883  15.110  0.1085  0.6569  0.6855
16707TIP3    H171536   0.798   0.836  15.117  0.1120  0.4033 -0.9877
16707TIP3    H271537   0.653   0.817  15.079 -0.2442  1.3503 -0.1015
16708TIP3   OH271538   6.372   0.228  11.257  0.2814 -0.2443  0.4874
16708TIP3    H171539   6.372   0.281  11.337 -1.4343 -0.9800  0.9987
16708TIP3    H271540   6.465   0.211  11.240  0.6689 -0.2333  2.4327
16709TIP3   OH271541   1.037   5.666  12.868 -0.8664 -0.2726  0.6283
16709TIP3    H171542   1.031   5.726  12.942 -2.4586  3.1606 -2.1435
16709TIP3    H271543   0.952   5.623  12.863 -0.9249 -0.1408  0.4915
16710TIP3   OH271544   6.346   6.164   4.946  0.2053  0.2273 -0.5255
16710TIP3    H171545   6.283   6.211   4.891 -2.0530 -0.4505  1.4397
16710TIP3    H271546   6.368   6.086   4.896 -1.7860 -0.3553 -0.5071
16711TIP3   OH271547   5.998   1.037   2.344 -0.0742 -0.0408  0.2539
16711TIP3    H171548   5.935   1.080   2.402 -0.8489 -0.0380 -0.5705
16711TIP3    H271549   6.002   0.947   2.376  1.0790  0.4779  1.5972
16712TIP3   OH271550   0.659   0.865  13.869  0.2112  0.7613  0.2804
16712TIP3    H171551   0.695   0.789  13.823  0.8119  1.6195 -0.6805
16712TIP3    H271552   0.588   0.896  13.813 -1.2630 -0.1925  1.5763
16713TIP3   OH271553   5.353   3.726  10.870  0.0104  0.4153  0.3166
16713TIP3    H171554   5.386   3.762  10.788  1.9583 -0.7621  0.5384
16713TIP3    H271555   5.354   3.799  10.932 -0.1059  0.9600 -0.3254
16714TIP3   OH271556   5.395   1.310   1.824 -0.1462 -0.2627 -0.3432
16714TIP3    H171557   5.419   1.388   1.774 -0.9153  0.9493  1.1155
16714TIP3    H271558   5.334   1.343   1.891 -0.7018 -2.1676  0.1111
16715TIP3   OH271559   6.353   6.107  16.271 -0.2942  0.1481  0.3874
16715TIP3    H171560   6.300   6.186  16.280 -1.4119 -0.4500 -0.8490
16715TIP3    H271561   6.348   6.064  16.356 -0.8582  0.6739  0.6211
16716TIP3   OH271562   5.783   3.147   2.713  0.2035  0.0609 -0.0381
16716TIP3    H171563   5.716   3.118   2.775  0.2709  1.1338  0.5533
16716TIP3    H271564   5.801   3.070   2.659 -0.6853 -0.5572  0.5334
16717TIP3   OH271565   0.665   3.625   5.647 -0.0429 -0.0249 -0.0003
16717TIP3    H171566   0.676   3.587   5.560 -0.8166 -2.0458  0.7564
16717TIP3    H271567   0.740   3.592   5.697 -0.7497 -0.5955  0.6842
16718TIP3   OH271568   6.166   6.009   3.658 -0.3880  0.3263 -0.0728
16718TIP3    H171569   6.191   5.991   3.567 -0.0947 -0.0802  0.0849
16718TIP3    H271570   6.214   6.088   3.681  0.5417 -0.2813  0.1310
16719TIP3   OH271571   3.459   5.344  12.675  0.0137 -0.1291  0.4684
16719TIP3    H171572   3.521   5.316  12.608 -0.1375  1.7683 -0.5232
16719TIP3    H271573   3.514   5.370  12.749  0.5035  2.3194 -0.7000
16720TIP3   OH271574   3.629   5.175  11.565 -0.1297 -0.8846 -0.2908
16720TIP3    H171575   3.667   5.093  11.596  0.3730 -0.4649  0.2131
16720TIP3    H271576   3.704   5.227  11.537 -0.4681 -0.6991 -0.8503
16721TIP3   OH271577   1.409   1.457  16.880 -0.0105  0.9123 -0.1623
16721TIP3    H171578   1.426   1.365  16.896 -0.3990 -0.0364 -4.4226
16721TIP3    H271579   1.484   1.503  16.918  0.6839 -1.2446  1.1168
16722TIP3   OH271580   6.743   6.549   3.007 -0.1820 -0.4359 -0.0307
16722TIP3    H171581   6.798   6.477   2.978  0.2249 -0.2543  0.2825
16722TIP3    H271582   6.699   6.579   2.928  0.3831 -0.3996 -0.3336
16723TIP3   OH271583   0.609   0.413   1.103  0.3623  0.1622 -0.3193
16723TIP3    H171584   0.702   0.424   1.122  0.9064 -1.2074 -2.0689
16723TIP3    H271585   0.579   0.498   1.072  1.5457  0.0166 -1.8486
16724TIP3   OH271586   5.314   3.313  12.695  0.3678  0.5868  0.3903
16724TIP3    H171587   5.307   3.372  12.771 -1.1811  1.4044 -0.3637
16724TIP3    H271588   5.241   3.338  12.639  2.0295  0.5900 -1.8123
16725TIP3   OH271589   3.812   2.251  16.329  0.4611 -0.1926  0.0725
16725TIP3    H171590   3.849   2.212  16.249  0.2664 -1.1477  0.4445
16725TIP3    H271591   3.804   2.177  16.390 -0.3403  0.3480  0.6251
16726TIP3   OH271592   3.060   3.262   5.118 -0.6191  0.3278 -0.0871
16726TIP3    H171593   2.982   3.286   5.168 -1.3799 -0.4279 -0.8895
16726TIP3    H271594   3.081   3.341   5.068 -0.9169  0.5161  0.0789
16727TIP3   OH271595   4.579   0.913   4.903 -0.2773  0.3542  0.2072
16727TIP3    H171596   4.497   0.919   4.853 -1.3940 -1.8974  1.6890
16727TIP3    H271597   4.623   0.836   4.868  0.1796  0.2892  0.9202
16728TIP3   OH271598   0.558   6.609   0.757  0.6037 -0.2549  0.9228
16728TIP3    H171599   0.530   6.634   0.845  2.8624 -0.9922  1.8902
16728TIP3    H271600   0.520   6.523   0.743 -0.3643  0.1793  0.8856
16729TIP3   OH271601   3.335   3.986  13.682  0.4513 -0.0616  0.4464
16729TIP3    H171602   3.387   3.912  13.650 -0.2464 -1.6285  2.8498
16729TIP3    H271603   3.256   3.986  13.628 -0.0845 -1.8238  1.2062
16730TIP3   OH271604   4.659   6.619  13.949 -0.5874 -0.2156  0.2795
16730TIP3    H171605   4.633   6.537  13.907  1.3969  0.3708 -2.2425
16730TIP3    H271606   4.750   6.605  13.974 -0.4758  0.9492  0.5318
16731TIP3   OH271607   3.015   3.333   2.359  0.4388  0.1633 -0.7270
16731TIP3    H171608   2.936   3.331   2.306 -0.4193  0.1221  0.5512
16731TIP3    H271609   3.047   3.243   2.359 -1.7304 -0.6538  2.0528
16732TIP3   OH271610   4.929   2.197  14.042  0.1495  0.3162  0.4818
16732TIP3    H171611   5.020   2.169  14.052  0.3294  0.8520  0.3449
16732TIP3    H271612   4.880   2.143  14.105  0.8699  1.6344  2.2006
16733TIP3   OH271613   5.109   4.695  14.079  0.1779  0.2253  0.3489
16733TIP3    H171614   5.124   4.788  14.060 -0.6591  0.2910 -0.0050
16733TIP3    H271615   5.178   4.650  14.031 -0.4758  0.5589 -0.9385
16734TIP3   OH271616   1.428   2.810   0.605  0.4190 -0.3499  0.3924
16734TIP3    H171617   1.392   2.776   0.523 -0.0904 -0.3556  0.6142
16734TIP3    H271618   1.356   2.801   0.667  0.5749  0.3130  0.6677
16735TIP3   OH271619   5.757   1.289  11.643 -0.2833  0.1092 -0.0524
16735TIP3    H171620   5.778   1.353  11.710 -2.7066  1.0182 -0.1022
16735TIP3    H271621   5.682   1.241  11.678 -1.2578  0.2494 -1.8682
16736TIP3   OH271622   5.689   2.437  15.269  0.0486 -0.6214  0.2443
16736TIP3    H171623   5.730   2.523  15.278  0.3548 -0.7955  0.5380
16736TIP3    H271624   5.738   2.395  15.198  0.1933 -0.7264  0.4075
16737TIP3   OH271625   0.449   5.583  12.111  0.5382  0.0640  0.0254
16737TIP3    H171626   0.488   5.632  12.184 -1.8507 -0.6582  1.8508
16737TIP3    H271627   0.417   5.650  12.052  1.3196  0.6749  0.2787
16738TIP3   OH271628   2.736   1.886  11.199  0.4646 -0.0755 -0.3634
16738TIP3    H171629   2.766   1.975  11.218 -1.4042  0.7050 -0.9066
16738TIP3    H271630   2.647   1.883  11.235  0.1869 -1.4331 -1.1524
16739TIP3   OH271631   3.483   3.150  13.858  0.1675 -1.2269 -0.3922
16739TIP3    H171632   3.536   3.169  13.935  2.3867 -0.4842 -2.0151
16739TIP3    H271633   3.545   3.108  13.797 -1.1204 -0.3783 -2.3456
16740TIP3   OH271634   4.787   6.320  11.436 -0.0015  0.1802 -0.2803
16740TIP3    H171635   4.701   6.291  11.405  0.1673 -1.7604  0.9880
16740TIP3    H271636   4.771   6.353  11.524  0.2989  1.3594 -0.6539
16741TIP3   OH271637   6.029   0.434   0.443  0.5869 -0.3255  0.1397
16741TIP3    H171638   6.041   0.521   0.405 -0.5230 -0.6724 -1.0327
16741TIP3    H271639   6.108   0.385   0.420  1.1465  0.3156  0.6752
16742TIP3   OH271640   1.464   2.217   0.505 -0.5628 -0.2019 -0.2802
16742TIP3    H171641   1.496   2.229   0.595 -0.4421 -2.8566  0.0495
16742TIP3    H271642   1.373   2.247   0.508 -0.3680  0.3248  0.5588
16743TIP3   OH271643   6.749   3.012  16.042 -0.0318 -0.2766  0.4899
16743TIP3    H171644   6.738   2.941  15.978 -0.9646 -0.5776  0.9786
16743TIP3    H271645   6.746   3.092  15.989 -0.8102 -0.5253  0.1427
16744TIP3   OH271646   6.384   5.601  13.957 -0.1509  0.2472  0.6436
16744TIP3    H171647   6.352   5.598  13.867 -0.9304  1.7374  0.8697
16744TIP3    H271648   6.375   5.510  13.988  1.8991 -0.7005 -1.3656
16745TIP3   OH271649   3.020   1.890   3.627 -0.1580 -0.3364  0.1245
16745TIP3    H171650   3.097   1.875   3.682  0.7599  0.1574 -0.9984
16745TIP3    H271651   2.976   1.805   3.625  0.7236 -0.8090  0.2326
16746TIP3   OH271652   0.032   1.139   0.901 -0.1301  0.2899  0.1127
16746TIP3    H171653   0.053   1.228   0.930 -0.1052  0.8391 -1.5317
16746TIP3    H271654   0.091   1.123   0.828 -0.8496 -0.6957 -0.2677
16747TIP3   OH271655   1.924   6.157   3.289 -0.0216 -0.3212 -0.2737
16747TIP3    H171656   1.897   6.133   3.377 -1.1099 -1.3574 -0.8817
16747TIP3    H271657   2.018   6.141   3.287 -0.2642 -1.8275  0.2039
16748TIP3   OH271658   0.898   4.297  15.643  0.0564 -0.3186 -0.2659
16748TIP3    H171659   0.953   4.340  15.708 -0.5877 -1.0778  0.8070
16748TIP3    H271660   0.954   4.227  15.607  0.3893  0.0556 -0.4788
16749TIP3   OH271661   6.042   3.612   2.722  0.2402 -0.1062  0.0521
16749TIP3    H171662   6.045   3.525   2.764  2.0802  0.0272  0.2611
16749TIP3    H271663   6.039   3.673   2.795 -1.6713  0.0122 -0.1033
16750TIP3   OH271664   2.816   6.501   0.202 -0.2519  0.1561  0.1475
16750TIP3    H171665   2.829   6.419   0.155  1.6622  1.2363 -1.3230
16750TIP3    H271666   2.905   6.533   0.219 -0.9238  0.2481  3.7519
16751TIP3   OH271667   1.718   5.161  15.986 -1.0354  0.6004  0.1614
16751TIP3    H171668   1.699   5.217  15.911  0.4205  1.0867  0.1535
16751TIP3    H271669   1.798   5.197  16.024 -1.8158  0.4425  2.0340
16752TIP3   OH271670   3.312   1.520   4.905  0.1208  0.4247  0.2347
16752TIP3    H171671   3.292   1.503   4.997  1.5066 -0.3609  0.4163
16752TIP3    H271672   3.391   1.574   4.908 -0.8529  1.8861 -0.4705
16753TIP3   OH271673   2.189   0.734   5.548 -0.0160 -0.0822  0.0814
16753TIP3    H171674   2.169   0.658   5.602 -0.1741 -0.1945 -0.1326
16753TIP3    H271675   2.158   0.808   5.599 -0.5159 -0.2173 -0.0228
16754TIP3   OH271676   1.037   3.382   2.128  0.1449  0.0790  0.1485
16754TIP3    H171677   0.995   3.468   2.125 -1.5929 -0.7940 -0.9830
16754TIP3    H271678   1.042   3.362   2.222 -3.0515 -0.2816  0.3030
16755TIP3   OH271679   1.178   2.085   4.513  0.3563 -0.4296  0.1769
16755TIP3    H171680   1.226   2.039   4.582 -1.1558 -0.9043  0.9224
16755TIP3    H271681   1.095   2.108   4.553  0.2384  1.0375 -0.8897
16756TIP3   OH271682   3.236   6.473  13.925  0.5096  0.5508 -0.2501
16756TIP3    H171683   3.323   6.506  13.949  0.1586  0.1475  1.6288
16756TIP3    H271684   3.230   6.489  13.831  2.4690  0.9440 -0.3374
16757TIP3   OH271685   4.894   1.856   1.563 -0.3953  0.0189  0.0602
16757TIP3    H171686   4.964   1.838   1.626 -1.4713 -0.7303  1.0653
16757TIP3    H271687   4.904   1.788   1.497  0.8229  0.8885 -0.6635
16758TIP3   OH271688   4.852   2.076  16.266 -0.1326 -0.1562 -0.4542
16758TIP3    H171689   4.947   2.076  16.266 -0.1238 -0.5452 -1.9085
16758TIP3    H271690   4.828   2.075  16.359  1.2701  3.0780 -0.0051
16759TIP3   OH271691   4.129   1.634  11.063  0.7901  0.2827 -0.0705
16759TIP3    H171692   4.098   1.671  11.146 -0.4194 -0.9735  0.0588
16759TIP3    H271693   4.141   1.709  11.006  1.6960  1.1741  1.2662
16760TIP3   OH271694   5.780   4.480   1.690  0.2035 -0.1281 -0.5390
16760TIP3    H171695   5.830   4.526   1.758 -0.1166 -0.5828  0.0005
16760TIP3    H271696   5.801   4.388   1.702  1.0714 -0.1185 -1.8097
16761TIP3   OH271697   1.770   5.273  13.401  0.4328  0.2877  0.0315
16761TIP3    H171698   1.712   5.278  13.477 -1.0622 -0.7288 -1.0287
16761TIP3    H271699   1.836   5.208  13.425  0.2412  0.3115  0.6273
16762TIP3   OH271700   1.007   1.037  16.376 -0.4686  0.5677  0.4376
16762TIP3    H171701   0.989   1.130  16.391 -1.8730  0.6493 -1.6713
16762TIP3    H271702   1.014   1.028  16.281 -1.8799 -1.7292  0.5015
16763TIP3   OH271703   1.668   5.995   2.778  0.5736  0.0874 -0.0952
16763TIP3    H171704   1.656   6.039   2.862  0.7806  0.8022 -0.4320
16763TIP3    H271705   1.582   5.956   2.759  0.5027 -0.0052  0.4047
16764TIP3   OH271706   6.183   1.244   4.698  0.7817 -0.6358 -0.0805
16764TIP3    H171707   6.249   1.268   4.633 -0.3390  0.1112 -0.9662
16764TIP3    H271708   6.101   1.237   4.648 -0.1946  0.4572  1.3294
16765TIP3   OH271709   4.331   2.992   2.847 -0.3899  0.3517 -0.0782
16765TIP3    H171710   4.316   3.073   2.896  0.6091  0.9458 -0.7548
16765TIP3    H271711   4.270   2.997   2.773  0.3086  0.9175 -0.6233
16766TIP3   OH271712   1.631   3.356   4.284  0.2622 -0.3359 -0.1335
16766TIP3    H171713   1.677   3.429   4.241  0.1437  0.3240  0.8483
16766TIP3    H271714   1.622   3.290   4.215  0.5388  0.5006 -0.9871
16767TIP3   OH271715   0.988   0.633  12.461 -0.5952 -0.3955  0.0013
16767TIP3    H171716   0.907   0.646  12.511 -0.7909  1.0930 -0.6670
16767TIP3    H271717   1.057   0.667  12.519 -0.7731  0.9315 -0.5559
16768TIP3   OH271718   0.962   0.754   2.710  0.0680  0.2828 -0.1389
16768TIP3    H171719   1.033   0.700   2.745 -0.5421 -0.7794 -0.5384
16768TIP3    H271720   1.003   0.840   2.696  1.5559 -0.6018 -1.3738
16769TIP3   OH271721   6.199   3.233  11.878 -0.7504  0.9877  0.1103
16769TIP3    H171722   6.248   3.313  11.894  0.1152  0.6218 -0.6701
16769TIP3    H271723   6.112   3.263  11.851 -0.8114  1.6403  1.0016
16770TIP3   OH271724   4.339   1.540  16.719  0.4804 -0.0149  0.3731
16770TIP3    H171725   4.266   1.511  16.666 -0.2831  0.2596  1.2609
16770TIP3    H271726   4.407   1.564  16.656 -0.5521  0.6669 -0.4887
16771TIP3   OH271727   1.420   4.544  13.820  0.4134  0.7880  0.2152
16771TIP3    H171728   1.426   4.602  13.744 -0.7332  0.7670  0.1013
16771TIP3    H271729   1.490   4.573  13.878  0.1880  1.9407 -0.0792
16772TIP3   OH271730   0.286   3.330   1.781  0.4598 -0.4130 -0.1410
16772TIP3    H171731   0.339   3.310   1.703  1.3355 -0.1473  0.3749
16772TIP3    H271732   0.297   3.424   1.794  0.4444 -0.4891  0.4017
16773TIP3   OH271733   0.301   6.300  14.065 -0.1281 -0.4333  0.5805
16773TIP3    H171734   0.272   6.251  13.988 -0.7549  0.7176  0.0737
16773TIP3    H271735   0.247   6.379  14.065  0.0363 -0.3130  2.0686
16774TIP3   OH271736   0.105   4.785   4.172  0.5547  0.8132  0.1991
16774TIP3    H171737   0.063   4.863   4.209  0.2131  0.2544  0.9887
16774TIP3    H271738   0.036   4.742   4.122  0.7245  0.9731 -0.1752
16775TIP3   OH271739   0.603   0.443   1.936  0.2653  0.1897 -0.3387
16775TIP3    H171740   0.582   0.501   1.863  0.6643  0.4618 -0.2401
16775TIP3    H271741   0.658   0.375   1.898 -1.7232 -1.1892 -0.8432
16776TIP3   OH271742   1.583   1.083   4.676 -0.0917  0.1707 -0.4237
16776TIP3    H171743   1.620   1.070   4.588 -2.2126 -0.5116 -1.2556
16776TIP3    H271744   1.652   1.126   4.725  0.4860  2.3344 -2.9955
16777TIP3   OH271745   5.743   4.850  14.733 -0.2115 -0.3928  0.2916
16777TIP3    H171746   5.815   4.865  14.672 -0.2091 -0.5394  0.2583
16777TIP3    H271747   5.755   4.760  14.762  0.2002 -0.0894  1.0585
16778TIP3   OH271748   3.626   1.947   0.838  0.0566  0.6840 -0.2946
16778TIP3    H171749   3.709   1.936   0.792  0.4532  2.9295 -0.1357
16778TIP3    H271750   3.646   1.925   0.929  0.5899  1.6932 -0.1676
16779TIP3   OH271751   6.274   2.490   5.233  0.2305  0.1615  0.7841
16779TIP3    H171752   6.289   2.584   5.242 -0.2484  0.1806  1.5017
16779TIP3    H271753   6.336   2.449   5.293 -0.4625  0.0932  1.4670
16780TIP3   OH271754   2.531   0.475   0.642 -0.5555 -0.6113 -0.0917
16780TIP3    H171755   2.444   0.505   0.669  0.8286  2.8778  0.7646
16780TIP3    H271756   2.518   0.384   0.618 -4.3293 -0.3605  0.6323
16781TIP3   OH271757   0.048   5.592   4.017 -0.2720  0.3258 -0.4604
16781TIP3    H171758  -0.048   5.593   4.012 -0.2660  1.5662 -0.5216
16781TIP3    H271759   0.069   5.650   4.090  0.4600  0.5805 -0.8671
16782TIP3   OH271760   3.196   6.365  14.792 -0.7374 -0.0550 -0.1860
16782TIP3    H171761   3.237   6.423  14.857  1.8669 -1.1308 -0.7967
16782TIP3    H271762   3.102   6.384  14.799 -0.2302  2.0177  1.7570
16783TIP3   OH271763   0.944   3.146   1.516 -0.0202 -0.2656 -0.2658
16783TIP3    H171764   1.037   3.124   1.504  0.3721  0.0870  1.8685
16783TIP3    H271765   0.946   3.235   1.552 -1.1223 -0.7293  0.9763
16784TIP3   OH271766   0.833   1.311   3.858 -0.0292 -0.3742 -0.7410
16784TIP3    H171767   0.792   1.349   3.935  1.1248  0.8859 -0.7269
16784TIP3    H271768   0.791   1.226   3.848  0.5591 -1.0362  1.9185
16785TIP3   OH271769   1.212   3.882  12.456 -0.3840 -0.1987 -0.5833
16785TIP3    H171770   1.246   3.805  12.503  1.3502  0.9416  0.0608
16785TIP3    H271771   1.120   3.862  12.443  0.1616 -2.6723 -0.9439
16786TIP3   OH271772   5.906   5.955   1.260 -0.1347 -0.4116  0.0516
16786TIP3    H171773   5.860   5.941   1.178  0.4541 -1.1148 -0.1738
16786TIP3    H271774   5.860   5.900   1.323 -0.2205 -0.3350  0.0560
16787TIP3   OH271775   5.019   2.235  15.925  0.5780  0.3769 -0.4833
16787TIP3    H171776   5.057   2.206  16.008  1.0069  1.9641 -0.1083
16787TIP3    H271777   5.089   2.224  15.861  0.5117 -0.0513 -0.4878
16788TIP3   OH271778   1.403   0.804  10.895  0.3172 -0.3866 -0.0894
16788TIP3    H171779   1.308   0.800  10.905  0.2884 -1.8811 -0.8690
16788TIP3    H271780   1.421   0.898  10.885 -1.1826 -0.1686 -1.0165
16789TIP3   OH271781   1.962   0.808  11.453 -0.2738  0.4957 -0.0967
16789TIP3    H171782   1.985   0.867  11.381  0.1595  0.6620  0.1705
16789TIP3    H271783   1.928   0.729  11.410  0.1881  0.5060 -0.4952
16790TIP3   OH271784   5.227   4.226   2.304  0.5641 -0.2685 -0.7709
16790TIP3    H171785   5.181   4.242   2.222  0.4835  0.9679 -0.4919
16790TIP3    H271786   5.294   4.294   2.308 -0.5779  0.7811  1.0194
16791TIP3   OH271787   6.279   0.049  12.760  0.4054 -0.5095  1.0668
16791TIP3    H171788   6.274   0.047  12.664  2.2237  2.3928  0.8545
16791TIP3    H271789   6.361   0.006  12.781  1.2913  1.1783  1.1335
16792TIP3   OH271790   0.983   3.052   5.766  0.4387  0.3613 -0.9189
16792TIP3    H171791   0.981   3.073   5.859 -0.9463  2.4435 -1.3955
16792TIP3    H271792   1.059   2.994   5.757 -1.0616 -2.1828  1.9537
16793TIP3   OH271793   4.690   1.904  13.545  0.0983 -0.0283  0.2081
16793TIP3    H171794   4.756   1.932  13.481 -1.9873 -0.3572 -2.2027
16793TIP3    H271795   4.609   1.941  13.513 -1.4415 -2.3830  1.2308
16794TIP3   OH271796   6.693   2.271   3.896 -0.1068  0.2253  0.1476
16794TIP3    H171797   6.778   2.310   3.875  1.1621 -1.2427  2.3645
16794TIP3    H271798   6.679   2.292   3.988 -1.0325 -1.5438  0.4325
16795TIP3   OH271799   5.970   6.019   3.864 -0.3646  1.0231  0.1091
16795TIP3    H171800   6.021   6.020   3.783 -0.9202 -1.4151 -0.3126
16795TIP3    H271801   6.021   5.966   3.924 -1.9994 -0.8127 -0.0687
16796TIP3   OH271802   2.297   3.650   3.377 -0.5792  0.4014  0.8482
16796TIP3    H171803   2.282   3.647   3.472  2.4908  1.5317  1.4319
16796TIP3    H271804   2.247   3.726   3.347 -0.5487  0.7967  1.7800
16797TIP3   OH271805   3.546   6.374  12.797  0.2293 -0.5213 -0.2237
16797TIP3    H171806   3.510   6.436  12.860  0.5006  1.3822 -1.8773
16797TIP3    H271807   3.551   6.291  12.844 -1.3193  0.4241  1.6520
16798TIP3   OH271808   0.238   1.649   2.763  0.8130 -0.9291 -0.2828
16798TIP3    H171809   0.315   1.606   2.800  0.2053 -0.8884  1.0435
16798TIP3    H271810   0.273   1.704   2.692  1.8537 -1.8198 -0.4658
16799TIP3   OH271811   5.772   6.293   2.227 -0.0276  0.4658 -0.5720
16799TIP3    H171812   5.687   6.274   2.267 -0.7481  0.7283 -1.9327
16799TIP3    H271813   5.821   6.340   2.295 -0.0567 -1.8296  1.0627
16800TIP3   OH271814   1.120   2.163  11.130  0.1650  0.0086 -0.1406
16800TIP3    H171815   1.168   2.239  11.162  1.3573 -0.9450  0.3867
16800TIP3    H271816   1.184   2.113  11.080 -0.3501 -1.1541  0.3440
16801TIP3   OH271817   1.824   1.472   4.449  0.1467  0.2680 -0.1309
16801TIP3    H171818   1.917   1.448   4.455  0.3185  0.9455 -0.1029
16801TIP3    H271819   1.815   1.548   4.505 -0.2240  0.7960 -0.9033
16802TIP3   OH271820   5.214   5.052   2.521  0.3238  0.1609 -0.1493
16802TIP3    H171821   5.249   5.038   2.433  0.2395  0.4906 -0.2333
16802TIP3    H271822   5.122   5.073   2.506  0.3663  0.4477  0.0076
16803TIP3   OH271823   2.567   6.640   1.483 -0.2408  0.0948  0.0099
16803TIP3    H171824   2.512   6.716   1.501 -1.4556 -0.5447 -0.9258
16803TIP3    H271825   2.516   6.565   1.514  0.6163 -0.4018  0.2238
16804TIP3   OH271826   1.754   3.440  15.186 -1.0632  0.1204 -0.4543
16804TIP3    H171827   1.849   3.449  15.198 -1.1177  2.1647 -1.3590
16804TIP3    H271828   1.718   3.522  15.219 -2.3740  0.0275 -1.6311
16805TIP3   OH271829   1.740   5.634   4.609  0.2575 -0.6267 -0.0247
16805TIP3    H171830   1.656   5.638   4.654  1.0020 -2.0929  1.5813
16805TIP3    H271831   1.753   5.541   4.590  0.9819 -0.2803 -1.3288
16806TIP3   OH271832   5.207   1.020   2.111 -0.3688 -0.1674  0.4401
16806TIP3    H171833   5.148   1.023   2.186 -1.5408 -3.2076 -0.2920
16806TIP3    H271834   5.208   0.928   2.085  0.9784  0.6307 -2.5137
16807TIP3   OH271835   1.441   6.303  11.848 -0.6982  0.7924 -0.0931
16807TIP3    H171836   1.487   6.262  11.775 -1.3834 -1.4940  0.7093
16807TIP3    H271837   1.510   6.324  11.911 -0.2997  1.2138 -0.6670
16808TIP3   OH271838   5.190   2.235  16.968 -0.0644  0.0004 -0.0579
16808TIP3    H171839   5.252   2.206  17.035  0.4847 -0.0446 -0.5768
16808TIP3    H271840   5.174   2.156  16.916  0.6077  0.3602 -0.8302
16809TIP3   OH271841   1.266   2.357   3.508 -0.4500 -0.4117 -0.4180
16809TIP3    H171842   1.188   2.355   3.563 -0.8008 -1.6035 -0.9510
16809TIP3    H271843   1.335   2.389   3.567 -0.9113 -1.2544  0.5981
16810TIP3   OH271844   3.366   4.600   4.460  0.4233 -0.0244  0.2614
16810TIP3    H171845   3.414   4.588   4.542 -0.8087 -1.4636  0.7890
16810TIP3    H271846   3.349   4.511   4.429 -2.0389  0.4611  0.1705
16811TIP3   OH271847   3.096   0.847   5.741 -0.2673  0.1485 -0.3052
16811TIP3    H171848   3.060   0.870   5.827  3.3466  1.4666  0.9552
16811TIP3    H271849   3.091   0.751   5.739 -1.7681  0.1798  0.7248
16812TIP3   OH271850   0.334   5.175  16.912 -0.1632 -0.4359  0.1232
16812TIP3    H171851   0.322   5.233  16.987  0.4674 -0.3778  0.1746
16812TIP3    H271852   0.251   5.182  16.864 -0.0052  0.6753  0.0026
16813TIP3   OH271853   3.215   2.310  13.009  0.2512 -0.3841  0.5119
16813TIP3    H171854   3.176   2.339  12.927  2.3947 -1.8225 -1.0635
16813TIP3    H271855   3.225   2.390  13.061 -3.0481  0.2480  0.2463
16814TIP3   OH271856   4.851   3.901  11.739  0.1939 -0.3410  0.3520
16814TIP3    H171857   4.800   3.981  11.747 -1.1609 -0.8842 -2.1778
16814TIP3    H271858   4.832   3.852  11.819 -1.0848  0.6930  0.6962
16815TIP3   OH271859   4.744   2.972  11.888 -0.0486  0.3496  0.2830
16815TIP3    H171860   4.765   3.045  11.829  0.5584  0.1781  0.2833
16815TIP3    H271861   4.680   3.009  11.949  0.0196  0.7958  0.0908
16816TIP3   OH271862   1.130   5.088  14.941  0.4730 -0.4065  0.3154
16816TIP3    H171863   1.208   5.034  14.959 -0.0889 -0.7784  1.7031
16816TIP3    H271864   1.100   5.116  15.027  0.0341  1.1318 -0.3246
16817TIP3   OH271865   6.624   6.147   3.765 -0.4005 -0.7022  0.3408
16817TIP3    H171866   6.554   6.149   3.831 -0.6770 -2.5553  0.1260
16817TIP3    H271867   6.640   6.240   3.745 -1.7300 -0.1907  1.5033
16818TIP3   OH271868   2.871   3.154  15.900  0.0731  0.2040 -0.0519
16818TIP3    H171869   2.799   3.125  15.956 -1.1544  0.2509 -1.5448
16818TIP3    H271870   2.915   3.072  15.874 -1.0718 -0.0485 -1.2387
16819TIP3   OH271871   1.700   4.236   1.600  0.1560  0.2746  0.4146
16819TIP3    H171872   1.633   4.242   1.669  1.2631 -1.2946  1.6604
16819TIP3    H271873   1.675   4.159   1.549  0.9959 -0.3226  0.8897
16820TIP3   OH271874   2.391   3.038   3.541  0.0277 -0.5382 -0.1584
16820TIP3    H171875   2.296   3.027   3.544  0.1379 -1.3220  0.6376
16820TIP3    H271876   2.412   3.093   3.616  0.1836 -0.2176 -0.4353
16821TIP3   OH271877   3.506   1.334   3.508  0.2935 -0.1046  0.2917
16821TIP3    H171878   3.573   1.375   3.453 -0.1896 -2.1007 -1.8419
16821TIP3    H271879   3.541   1.343   3.597  3.0367 -0.3818 -0.6862
16822TIP3   OH271880   0.709   1.975  13.142 -0.4566 -0.2495  0.1720
16822TIP3    H171881   0.766   1.920  13.197  1.7300  1.2496 -0.5531
16822TIP3    H271882   0.659   2.027  13.205 -0.4352 -0.9519  0.7926
16823TIP3   OH271883   3.390   6.049  11.492  0.4997 -0.0562 -0.1552
16823TIP3    H171884   3.427   6.109  11.557  1.4161  1.3968 -1.9964
16823TIP3    H271885   3.329   5.995  11.542  1.1565  1.0556  1.9167
16824TIP3   OH271886   5.357   6.773   2.839 -0.3256 -0.5491  0.1131
16824TIP3    H171887   5.309   6.844   2.796  0.6429 -1.0574 -1.8613
16824TIP3    H271888   5.317   6.766   2.926 -1.4731  1.3567 -0.2361
16825TIP3   OH271889   2.782   5.991   1.284 -0.1534 -0.3043 -0.6413
16825TIP3    H171890   2.709   5.941   1.248 -1.1499  0.4808  0.2300
16825TIP3    H271891   2.844   5.925   1.315  0.2144 -0.9739 -2.7601
16826TIP3   OH271892   5.534   2.265  17.168  0.3090  0.5618  0.4819
16826TIP3    H171893   5.448   2.248  17.207  0.5116 -2.6147 -0.3099
16826TIP3    H271894   5.523   2.246  17.075  1.3339  2.3099 -0.0300
16827TIP3   OH271895   6.099   6.486   6.244  0.0265 -0.0756 -0.4195
16827TIP3    H171896   6.078   6.560   6.301  2.5114  0.3072  0.0887
16827TIP3    H271897   6.190   6.503   6.217  0.1251 -2.1893 -1.4907
16828TIP3   OH271898   3.569   6.785  13.428 -0.0829 -0.6257 -0.0692
16828TIP3    H171899   3.492   6.839  13.444  0.3635  0.1245 -0.4713
16828TIP3    H271900   3.564   6.716  13.494 -1.1760 -0.6610 -0.1849
16829TIP3   OH271901   2.598   5.796   0.684  0.3204 -0.3382  0.5861
16829TIP3    H171902   2.650   5.846   0.746 -1.4745 -0.5451  2.2772
16829TIP3    H271903   2.507   5.810   0.710 -0.3186 -3.0150 -0.0017
16830TIP3   OH271904   0.493   3.958  13.148 -0.7207 -0.1359  0.2900
16830TIP3    H171905   0.438   4.024  13.106 -0.5697 -0.2044 -0.0145
16830TIP3    H271906   0.523   4.000  13.229  0.5385  0.6923 -0.5971
16831TIP3   OH271907   4.792   5.420  12.984  0.4663  0.1217  0.0362
16831TIP3    H171908   4.773   5.462  12.900 -0.7391 -1.0458 -0.2891
16831TIP3    H271909   4.707   5.390  13.016  1.2482 -1.7824  0.4183
16832TIP3   OH271910   4.815   3.774   5.811 -0.5959 -0.1701 -0.4238
16832TIP3    H171911   4.779   3.779   5.899 -1.6865 -0.0575 -0.8683
16832TIP3    H271912   4.825   3.866   5.784 -0.0006 -0.2005 -0.3129
16833TIP3   OH271913   0.873   6.357  16.720 -0.2891  0.0052  0.4160
16833TIP3    H171914   0.887   6.336  16.813  0.9433  1.3291  0.5485
16833TIP3    H271915   0.866   6.272  16.677 -0.5490 -0.6273  1.6712
16834TIP3   OH271916   2.120   4.276  16.938 -0.2169 -0.0116 -0.3617
16834TIP3    H171917   2.190   4.327  16.897 -0.0360 -0.2741 -0.3770
16834TIP3    H271918   2.160   4.238  17.016  0.2257 -1.7436 -1.3857
16835TIP3   OH271919   5.569   6.206   6.191  0.2419  0.0235  0.0908
16835TIP3    H171920   5.504   6.158   6.242 -0.0696 -0.0255 -0.3454
16835TIP3    H271921   5.640   6.143   6.177  0.2588 -0.0104  0.3313
16836TIP3   OH271922   3.442   6.042   6.383  0.2456 -0.2714  0.1871
16836TIP3    H171923   3.514   6.010   6.437 -0.2652 -1.2400  0.3145
16836TIP3    H271924   3.478   6.047   6.295  0.4508 -0.8165  0.2407
16837TIP3   OH271925   6.081   6.766   4.230 -0.4967  0.2230 -0.4618
16837TIP3    H171926   6.096   6.848   4.278  0.0350 -0.5999  0.7927
16837TIP3    H271927   6.144   6.705   4.266 -0.2327 -0.4891 -2.0781
16838TIP3   OH271928   2.888   3.166  11.459  0.7371  0.1737 -0.5445
16838TIP3    H171929   2.975   3.153  11.422  0.8671  1.3450 -0.6858
16838TIP3    H271930   2.834   3.193  11.384  0.6858  1.2358 -0.1417
16839TIP3   OH271931   0.533   4.566   2.898  0.1879 -0.6002  0.1576
16839TIP3    H171932   0.509   4.484   2.855  0.8429  0.0287 -1.4245
16839TIP3    H271933   0.581   4.539   2.976  0.3559 -1.7201 -0.3282
16840TIP3   OH271934   6.397   3.930   6.293 -0.1352  0.5203 -0.3377
16840TIP3    H171935   6.456   3.931   6.368 -0.4302 -0.9187 -0.0828
16840TIP3    H271936   6.328   3.870   6.317  0.3453 -0.8294 -2.1971
16841TIP3   OH271937   5.159   6.136   0.530 -0.3165 -0.7164  0.2941
16841TIP3    H171938   5.065   6.130   0.549 -0.3809  0.6501  0.5017
16841TIP3    H271939   5.186   6.046   0.513 -1.7123 -1.1019  0.0193
16842TIP3   OH271940   1.194   4.533  11.501  0.0625  0.5607 -0.2565
16842TIP3    H171941   1.170   4.626  11.497 -1.1756  0.3881  2.0814
16842TIP3    H271942   1.113   4.489  11.527  0.1157 -1.4549 -3.2534
16843TIP3   OH271943   6.488   6.762  16.173  0.1607 -0.4972  0.1451
16843TIP3    H171944   6.551   6.697  16.204  1.2242  0.5190  0.1594
16843TIP3    H271945   6.519   6.845  16.210  0.4814  0.4687 -2.2125
16844TIP3   OH271946   5.932   2.287   0.691 -0.1075 -0.2129 -0.3475
16844TIP3    H171947   6.002   2.339   0.652 -0.2263 -1.8819 -2.8862
16844TIP3    H271948   5.950   2.288   0.785  2.9974 -0.1272 -0.9093
16845TIP3   OH271949   4.595   2.773  12.120  0.2377  1.0359 -0.1074
16845TIP3    H171950   4.668   2.812  12.169  0.6515  1.0259 -0.7017
16845TIP3    H271951   4.580   2.688  12.162  2.3136 -0.1184 -1.5804
16846TIP3   OH271952   1.977   6.655  13.479 -0.6229  0.4524 -0.1070
16846TIP3    H171953   1.982   6.679  13.387  0.8040 -1.2999 -0.5117
16846TIP3    H271954   1.926   6.574  13.480 -0.8105  0.5787  0.6492
16847TIP3   OH271955   0.646   1.663  15.759 -0.2533  0.5716  0.3152
16847TIP3    H171956   0.637   1.582  15.709 -0.3947  0.5273  0.4126
16847TIP3    H271957   0.689   1.636  15.840  0.4329  0.7198  0.0125
16848TIP3   OH271958   0.712   0.130   4.879  0.2414 -0.3499  0.2294
16848TIP3    H171959   0.620   0.130   4.852  0.0322 -2.1901  0.8724
16848TIP3    H271960   0.738   0.038   4.873  1.1944 -0.2964  2.9059
16849TIP3   OH271961   1.477   0.086  13.673  0.1056 -0.0788  0.0581
16849TIP3    H171962   1.555   0.123  13.716  0.4606 -1.6484  0.8109
16849TIP3    H271963   1.510   0.010  13.625 -0.8203 -0.2605 -0.2981
16850TIP3   OH271964   2.309   6.469   5.397 -0.1980  0.2264  0.8146
16850TIP3    H171965   2.219   6.437   5.400 -0.0242 -0.3845 -0.2532
16850TIP3    H271966   2.362   6.392   5.377  0.2749  1.0389 -1.2322
16851TIP3   OH271967   6.503   3.722  12.277  0.1882  0.5811  0.2116
16851TIP3    H171968   6.549   3.748  12.197 -0.8056 -3.6227 -1.8844
16851TIP3    H271969   6.418   3.767  12.271  0.3209  0.7080 -0.8084
16852TIP3   OH271970   4.700   5.468  12.726 -0.2330 -0.5016 -0.4218
16852TIP3    H171971   4.642   5.392  12.733  0.0468 -0.7735 -0.9750
16852TIP3    H271972   4.718   5.475  12.632  0.7393 -0.5099 -0.2433
16853TIP3   OH271973   6.034   3.127   2.433  0.2632 -0.1481 -0.2060
16853TIP3    H171974   6.046   3.098   2.523 -0.7433  1.0937  0.3436
16853TIP3    H271975   6.103   3.191   2.418 -1.0189  1.4209  0.4839
16854TIP3   OH271976   2.046   0.323   5.156  0.2790  0.3578  0.4669
16854TIP3    H171977   2.011   0.366   5.078  0.9372  1.3399  0.7085
16854TIP3    H271978   2.080   0.240   5.124  1.4862  1.2122 -0.4733
16855TIP3   OH271979   5.834   0.292   3.666  0.3979  0.5910  0.1788
16855TIP3    H171980   5.770   0.354   3.632 -0.7168 -0.5281  0.2230
16855TIP3    H271981   5.855   0.325   3.753 -1.6508 -0.1471  0.9783
16856TIP3   OH271982   3.806   6.408  10.705 -0.2756 -0.3237 -0.3512
16856TIP3    H171983   3.862   6.365  10.640  0.5180  0.1436  0.0080
16856TIP3    H271984   3.726   6.430  10.658  1.0257  1.7175 -1.6993
16857TIP3   OH271985   1.962   4.939   4.776 -0.0857  0.0968 -0.1646
16857TIP3    H171986   1.867   4.939   4.775 -0.1741  1.3162  3.1902
16857TIP3    H271987   1.986   4.847   4.791 -0.6361 -0.4537 -2.4373
16858TIP3   OH271988   4.177   6.012   5.496 -0.1599 -0.5033  0.9169
16858TIP3    H171989   4.262   6.001   5.453 -0.0517 -0.4066  1.1085
16858TIP3    H271990   4.122   5.943   5.459 -0.1547 -0.2290  0.3902
16859TIP3   OH271991   4.089   0.738   3.425 -0.2299  0.3283 -0.0468
16859TIP3    H171992   4.071   0.647   3.446 -0.5270  1.0184  2.9325
16859TIP3    H271993   4.166   0.760   3.477  0.4050  1.5365 -1.4401
16860TIP3   OH271994   2.615   5.665   6.372  0.0897  0.0465 -0.2443
16860TIP3    H171995   2.548   5.638   6.435 -0.4842  1.9131 -0.0084
16860TIP3    H271996   2.692   5.686   6.425  0.1208  0.0740 -0.2987
16861TIP3   OH271997   5.417   3.649  13.828 -0.4134 -1.2572 -0.6537
16861TIP3    H171998   5.468   3.606  13.897 -0.1873  2.1441  1.4281
16861TIP3    H271999   5.363   3.713  13.874 -1.7193 -0.2420 -3.4645
16862TIP3   OH272000   3.354   4.560   4.759  0.0657  0.4239  0.3964
16862TIP3    H172001   3.449   4.567   4.748  0.0620 -0.6937 -0.4467
16862TIP3    H272002   3.330   4.639   4.808  1.1257  1.8670 -1.3362
16863TIP3   OH272003   2.861   4.525   6.030 -0.7195 -0.2545  0.7433
16863TIP3    H172004   2.952   4.539   6.002 -0.8488 -1.2484 -0.2205
16863TIP3    H272005   2.837   4.605   6.076  0.5856  0.0976  0.8197
16864TIP3   OH272006   0.648   3.940  15.270 -0.3172  0.0611  0.2043
16864TIP3    H172007   0.712   4.010  15.278  0.4163 -0.7566  1.6890
16864TIP3    H272008   0.645   3.900  15.357 -1.0716 -1.4482 -0.4968
16865TIP3   OH272009   1.674   2.096   4.867 -0.2577 -0.1306  0.1021
16865TIP3    H172010   1.731   2.105   4.790 -1.1584  1.3855 -0.4175
16865TIP3    H272011   1.672   2.002   4.885  2.3963 -0.2277  0.1370
16866TIP3   OH272012   4.477   1.279   1.235  0.1735 -0.6865 -0.3896
16866TIP3    H172013   4.396   1.274   1.185  0.5404 -0.5519 -0.9924
16866TIP3    H272014   4.507   1.188   1.240 -0.1600 -0.7747  0.0801
16867TIP3   OH272015   6.194   1.370  12.439 -0.0962 -0.0569  0.6598
16867TIP3    H172016   6.138   1.329  12.373  0.4253  1.5949 -0.8422
16867TIP3    H272017   6.133   1.403  12.505 -0.8994  1.4106 -0.7886
16868TIP3   OH272018   0.534   3.223  16.047 -1.0213  0.1014 -0.2615
16868TIP3    H172019   0.461   3.167  16.021 -0.2549 -0.9995 -0.1142
16868TIP3    H272020   0.513   3.250  16.137 -0.8839 -0.8488  0.0623
16869TIP3   OH272021   5.376   4.759  15.082  0.2094 -0.5175  0.0701
16869TIP3    H172022   5.286   4.731  15.101  0.6766 -1.2145  1.3332
16869TIP3    H272023   5.380   4.764  14.986 -0.6196 -2.3853 -0.0842
16870TIP3   OH272024   4.483   4.671  11.175 -0.0385  0.3943 -0.0912
16870TIP3    H172025   4.555   4.609  11.181  1.1660  1.7377 -0.2115
16870TIP3    H272026   4.438   4.648  11.093  1.0258  0.3374 -0.6720
16871TIP3   OH272027   2.011   0.580   3.268  0.8250 -0.1016 -0.0158
16871TIP3    H172028   2.087   0.598   3.323  1.0135 -1.1520  0.0761
16871TIP3    H272029   2.027   0.493   3.231 -0.5560 -0.5507  0.3890
16872TIP3   OH272030   3.175   3.640   3.108 -0.1113  0.2568  0.1235
16872TIP3    H172031   3.124   3.596   3.041  0.3014  0.3412 -0.2493
16872TIP3    H272032   3.230   3.570   3.146  0.4988  0.4312 -0.4259
16873TIP3   OH272033   3.038   2.029   3.976 -0.2472  0.5129 -0.0949
16873TIP3    H172034   3.078   1.945   3.953 -0.5980  0.3086  0.0462
16873TIP3    H272035   3.103   2.094   3.949 -0.0409  0.2057 -0.3470
16874TIP3   OH272036   0.980   3.535  10.759 -0.0480  0.1287 -0.0138
16874TIP3    H172037   0.994   3.534  10.854  0.1519 -1.6950 -0.0484
16874TIP3    H272038   1.069   3.535  10.722 -0.1250  0.1595 -0.1990
16875TIP3   OH272039   0.884   2.188   3.271 -0.1264  0.1528 -0.2993
16875TIP3    H172040   0.913   2.232   3.192 -0.5594  0.6393 -0.1909
16875TIP3    H272041   0.906   2.248   3.342 -0.9660  0.3215 -0.1746
16876TIP3   OH272042   2.334   4.626   3.719  0.6083 -0.3121  0.0692
16876TIP3    H172043   2.261   4.632   3.780  1.4348  1.4610  0.9511
16876TIP3    H272044   2.310   4.685   3.647  1.3425  0.6115  0.5704
16877TIP3   OH272045   6.611   2.900   4.722 -0.8893  0.3780  0.5282
16877TIP3    H172046   6.701   2.890   4.753 -0.9355  0.3171  0.6432
16877TIP3    H272047   6.600   2.832   4.656  0.2762  2.5850 -2.0417
16878TIP3   OH272048   3.729   5.643  12.128 -0.1578  0.0615 -0.3741
16878TIP3    H172049   3.709   5.737  12.126  0.1794  0.1725  0.8743
16878TIP3    H272050   3.661   5.606  12.184  1.0595 -0.0875  1.0340
16879TIP3   OH272051   6.621   2.427  14.399  0.1748  0.2575  0.5710
16879TIP3    H172052   6.698   2.476  14.371  0.0116 -0.0094 -0.3694
16879TIP3    H272053   6.578   2.484  14.463  0.9636  0.5501  0.8455
16880TIP3   OH272054   3.512   0.491   0.867 -0.4175  0.2249  0.4259
16880TIP3    H172055   3.489   0.565   0.924  1.1439  3.2178 -2.6409
16880TIP3    H272056   3.602   0.470   0.890  0.1820  1.3722 -0.8028
16881TIP3   OH272057   5.674   6.139   5.068  0.2355  0.4760 -0.1406
16881TIP3    H172058   5.698   6.223   5.107 -2.2308  1.0034  0.3512
16881TIP3    H272059   5.647   6.160   4.979  2.2171 -0.1970 -0.9187
16882TIP3   OH272060   4.034   2.602  17.014 -0.2744 -0.4580 -0.1187
16882TIP3    H172061   4.108   2.554  17.052 -1.5747 -1.7453  0.8145
16882TIP3    H272062   4.019   2.558  16.930  0.6540  0.4542 -0.7751
16883TIP3   OH272063   0.310   3.206  10.749  0.1080 -0.0594  0.0248
16883TIP3    H172064   0.236   3.148  10.731  0.4519 -1.7399  3.4267
16883TIP3    H272065   0.382   3.170  10.697 -0.4730 -0.8701 -0.2279
16884TIP3   OH272066   6.572   5.876   5.808  0.3358 -0.1190 -0.1051
16884TIP3    H172067   6.502   5.856   5.870  1.6367  1.8724  2.1290
16884TIP3    H272068   6.626   5.797   5.807 -0.1173 -0.4514  0.7279
16885TIP3   OH272069   1.708   1.553   4.191  0.2296  0.5296  0.2502
16885TIP3    H172070   1.653   1.477   4.209  0.5327  0.5141  1.1438
16885TIP3    H272071   1.798   1.521   4.200  0.3751  0.8241 -0.0924
16886TIP3   OH272072   2.808   0.153  13.563  0.2398  0.2345  0.0996
16886TIP3    H172073   2.804   0.114  13.475  1.4790  0.7807 -0.2114
16886TIP3    H272074   2.901   0.168  13.578  0.1772 -1.3032  2.1756
16887TIP3   OH272075   0.928   6.285   2.819 -0.2729 -0.2032  0.9332
16887TIP3    H172076   0.845   6.238   2.821 -1.0088  0.8304 -2.0708
16887TIP3    H272077   0.985   6.230   2.765  0.0628  0.5038  0.5599
16888TIP3   OH272078   0.144   3.994   0.335  0.0243  0.4930 -0.5207
16888TIP3    H172079   0.098   3.912   0.351  0.2553  0.1549 -1.5699
16888TIP3    H272080   0.082   4.062   0.363 -0.0051 -0.0354  0.7404
16889TIP3   OH272081   1.153   5.900   3.373  0.0155 -0.7346  0.0559
16889TIP3    H172082   1.073   5.949   3.355 -0.8902 -2.0132  0.4863
16889TIP3    H272083   1.126   5.808   3.365  1.2889 -1.1858  0.8731
16890TIP3   OH272084   3.179   5.024  14.208 -0.0381 -0.1377  0.4896
16890TIP3    H172085   3.232   5.103  14.200  1.0535 -0.8740  0.2886
16890TIP3    H272086   3.191   4.979  14.124 -0.4033 -0.6549  0.7147
16891TIP3   OH272087   0.289   4.638  11.681  0.7144  0.3979  0.2519
16891TIP3    H172088   0.235   4.560  11.692  1.8646 -0.7573 -2.1247
16891TIP3    H272089   0.292   4.677  11.769 -1.7980 -0.9244  0.9702
16892TIP3   OH272090   4.879   1.849  11.953  0.1356  0.2492  0.0286
16892TIP3    H172091   4.906   1.934  11.988  0.1872  0.8619 -1.4886
16892TIP3    H272092   4.804   1.869  11.897 -0.2652 -0.8007  0.1759
16893TIP3   OH272093   1.849   4.039   4.133 -0.3989  0.5460 -0.3771
16893TIP3    H172094   1.808   4.097   4.197 -0.6811 -1.6848  1.5125
16893TIP3    H272095   1.792   3.962   4.129  1.2933 -0.7149 -0.9296
16894TIP3   OH272096   1.433   5.024  12.249  0.4086 -0.1346  0.2406
16894TIP3    H172097   1.475   5.017  12.163 -1.5292  1.9948 -0.9548
16894TIP3    H272098   1.486   5.087  12.297 -1.7693  3.2696 -1.5946
16895TIP3   OH272099   3.311   1.736  11.966 -0.1142  0.2557  0.1312
16895TIP3    H172100   3.323   1.728  11.871 -0.9337  1.5086 -0.0847
16895TIP3    H272101   3.246   1.806  11.976  0.8785  0.9723  1.6682
16896TIP3   OH272102   4.133   5.968   1.634 -0.5592 -0.0069 -0.5621
16896TIP3    H172103   4.113   5.913   1.710  0.0607 -0.4343 -0.7073
16896TIP3    H272104   4.064   6.035   1.634 -2.0236 -1.4852 -1.0821
16897TIP3   OH272105   5.923   3.248  14.065  0.1171  0.4739 -0.5049
16897TIP3    H172106   6.017   3.238  14.051  0.1063  1.3245 -1.2065
16897TIP3    H272107   5.893   3.301  13.991 -0.9726 -0.0742 -0.4656
16898TIP3   OH272108   0.910   0.659   2.188 -0.1738  0.0601 -0.5054
16898TIP3    H172109   0.963   0.739   2.183 -2.8306  1.8680 -0.7229
16898TIP3    H272110   0.899   0.644   2.282 -3.1439  2.4154 -0.3970
16899TIP3   OH272111   1.993   2.893   4.480 -0.1117  0.3115  0.4961
16899TIP3    H172112   2.028   2.969   4.435  1.0583 -0.3309  0.2935
16899TIP3    H272113   1.990   2.825   4.413  0.1579 -0.2037  0.9996
16900TIP3   OH272114   5.941   2.280  15.574  0.3140 -0.1950  0.5347
16900TIP3    H172115   5.995   2.207  15.606  2.6517  1.2255 -0.0970
16900TIP3    H272116   5.975   2.299  15.487 -0.5375  1.4235  0.5341
16901TIP3   OH272117   5.228   2.905  17.043 -0.2229  0.3331  0.9445
16901TIP3    H172118   5.260   2.823  17.080  0.5736  0.3629  0.3290
16901TIP3    H272119   5.156   2.879  16.985  2.8053 -0.4487 -2.6873
16902TIP3   OH272120   0.042   1.947   4.594  0.0057 -0.1491  0.0002
16902TIP3    H172121   0.028   1.999   4.515 -0.2550 -1.0569 -0.5554
16902TIP3    H272122  -0.039   1.898   4.605 -0.3078  0.6521  1.3566
16903TIP3   OH272123   1.688   4.979   4.762  0.0102 -0.6118  0.2009
16903TIP3    H172124   1.662   4.890   4.741 -1.7618  0.0574 -0.5018
16903TIP3    H272125   1.655   5.032   4.689  0.3321  0.7296  1.0131
16904TIP3   OH272126   1.831   4.463   5.648 -0.0887 -0.6901  0.0112
16904TIP3    H172127   1.775   4.425   5.580 -0.4419  1.3323 -0.8908
16904TIP3    H272128   1.781   4.453   5.729  0.0409 -2.5338 -0.1290
16905TIP3   OH272129   5.824   0.030  16.683  0.4103  0.2352  0.0897
16905TIP3    H172130   5.732   0.056  16.684  0.3998  0.3130 -1.1125
16905TIP3    H272131   5.828  -0.048  16.738 -0.4292  0.0743 -0.0689
16906TIP3   OH272132   4.188   4.399  14.769 -0.1239  0.0400 -0.0515
16906TIP3    H172133   4.221   4.407  14.858 -0.3479 -0.6225  0.0963
16906TIP3    H272134   4.098   4.432  14.773  0.1696  0.8722 -0.2326
16907TIP3   OH272135   1.838   2.263  11.747 -1.3408  0.0737  0.6751
16907TIP3    H172136   1.907   2.251  11.812 -1.5148 -0.4211  0.7703
16907TIP3    H272137   1.868   2.336  11.693 -1.0886  0.3410  1.1726
16908TIP3   OH272138   2.778   4.734  17.137 -0.0100 -0.5188  0.3667
16908TIP3    H172139   2.829   4.802  17.181  0.5160 -1.2432  0.9056
16908TIP3    H272140   2.823   4.720  17.054 -0.5875  0.3498 -0.0981
16909TIP3   OH272141   0.552   3.938   1.720  0.2976 -0.1594 -0.0195
16909TIP3    H172142   0.474   3.883   1.731  0.4085 -0.1685  0.7723
16909TIP3    H272143   0.518   4.021   1.686 -0.0267 -0.2547  0.0707
16910TIP3   OH272144   2.356   0.783  12.519  0.1633  0.5650 -0.3867
16910TIP3    H172145   2.315   0.778  12.605  1.0269 -0.2503 -0.0202
16910TIP3    H272146   2.320   0.708  12.471  0.6905  0.2526 -0.2954
16911TIP3   OH272147   0.677   2.933  15.936  0.7239 -0.2208  0.5320
16911TIP3    H172148   0.595   2.977  15.959  0.5768  0.8711 -1.8799
16911TIP3    H272149   0.662   2.900  15.847  3.4997  1.5271 -0.6311
16912TIP3   OH272150   2.370   2.589  14.513  0.3871 -0.0132  0.6089
16912TIP3    H172151   2.280   2.560  14.529  0.5772 -0.8600  0.1522
16912TIP3    H272152   2.413   2.514  14.472  1.0454  0.7215 -0.0594
16913TIP3   OH272153   5.853   1.141   5.611 -0.0233 -0.1888  0.2041
16913TIP3    H172154   5.926   1.201   5.622 -0.5185 -0.0973  3.2624
16913TIP3    H272155   5.777   1.197   5.599  0.1636 -0.2789 -1.5609
16914TIP3   OH272156   6.401   1.437  12.897 -0.1633  0.9190  0.1173
16914TIP3    H172157   6.447   1.404  12.975 -0.2014  0.6293  0.0169
16914TIP3    H272158   6.334   1.495  12.932  0.7429  1.9034  0.2271
16915TIP3   OH272159   4.086   6.217  11.357  0.6326 -0.1234 -0.3364
16915TIP3    H172160   4.137   6.266  11.421 -0.6394  2.4696 -1.2473
16915TIP3    H272161   4.055   6.140  11.405 -0.0638  1.6227  2.1172
16916TIP3   OH272162   6.035   6.216   2.858  0.3763 -0.6662 -0.1173
16916TIP3    H172163   6.090   6.290   2.833 -1.6749  0.9656 -0.0008
16916TIP3    H272164   6.028   6.163   2.778  0.8872 -0.0803 -0.5567
16917TIP3   OH272165   5.030   5.459   2.957  0.7102 -0.5781 -0.1096
16917TIP3    H172166   5.055   5.549   2.976  2.6678 -1.0628 -0.3053
16917TIP3    H272167   5.032   5.453   2.861 -1.7221 -0.2225 -0.2304
16918TIP3   OH272168   3.555   5.526  16.144 -1.0617  0.2527  0.3320
16918TIP3    H172169   3.534   5.480  16.063  0.9034 -0.5388  0.2455
16918TIP3    H272170   3.560   5.618  16.119 -0.2818 -0.0099 -0.4850
16919TIP3   OH272171   3.516   1.832  12.111  0.5561  0.9534 -0.1153
16919TIP3    H172172   3.590   1.775  12.130 -0.4650 -0.6745 -0.8499
16919TIP3    H272173   3.461   1.780  12.052 -1.7436  1.6632  1.3336
16920TIP3   OH272174   3.528   5.225  12.299 -0.2674 -0.4982 -0.0421
16920TIP3    H172175   3.600   5.217  12.361 -0.4790 -1.2984  0.1170
16920TIP3    H272176   3.456   5.264  12.349  0.0937  0.4061 -0.2307
16921TIP3   OH272177   6.782   3.980  13.143 -0.2519 -0.3478 -0.4661
16921TIP3    H172178   6.772   4.047  13.074 -0.5262  0.1699  0.0742
16921TIP3    H272179   6.877   3.970  13.151 -0.1645  0.9892  0.4088
16922TIP3   OH272180   3.989   1.840   4.795 -0.6339 -0.1964 -0.0777
16922TIP3    H172181   3.939   1.907   4.748  0.4182  0.4906 -0.2360
16922TIP3    H272182   3.983   1.762   4.740 -2.0346 -0.2945  0.2063
16923TIP3   OH272183   2.795   1.204  14.350 -0.3353 -0.3377  0.0418
16923TIP3    H172184   2.883   1.230  14.380 -0.3168 -1.2182  0.7784
16923TIP3    H272185   2.767   1.276  14.293  0.3063  0.5935  0.8792
16924TIP3   OH272186   3.778   4.623   1.247  0.0403 -0.1612  0.2877
16924TIP3    H172187   3.712   4.641   1.180  0.3532 -1.6620 -0.4689
16924TIP3    H272188   3.734   4.567   1.311  0.3973 -0.7145  0.0643
16925TIP3   OH272189   1.986   0.630  12.255 -0.6334  0.6436 -0.5682
16925TIP3    H172190   2.067   0.610  12.302  0.4530  0.9688 -2.2541
16925TIP3    H272191   1.981   0.725  12.256 -0.7132  0.6426 -0.9181
16926TIP3   OH272192   2.695   3.553  14.804  0.7477  0.3739 -0.8163
16926TIP3    H172193   2.777   3.511  14.830  0.3312  0.9792  1.6096
16926TIP3    H272194   2.634   3.481  14.791  1.4957 -0.0517 -2.1741
16927TIP3   OH272195   3.185   2.804   3.999 -0.3164  0.1584 -0.0465
16927TIP3    H172196   3.104   2.762   3.971  0.6492 -3.9291  2.7789
16927TIP3    H272197   3.156   2.878   4.053 -2.1625 -0.5408 -0.0317
16928TIP3   OH272198   0.412   1.989   1.027 -0.5969 -0.4234 -0.0271
16928TIP3    H172199   0.494   1.943   1.012  0.6496  1.4750  0.8243
16928TIP3    H272200   0.365   1.934   1.090  0.6182 -0.8104  0.5425
16929TIP3   OH272201   1.820   3.533  12.011 -0.2440 -0.0675 -0.9603
16929TIP3    H172202   1.872   3.455  11.993  0.5505  0.4229 -0.7962
16929TIP3    H272203   1.862   3.602  11.960 -0.3909  0.4507 -0.3854
16930TIP3   OH272204   6.681   5.494  12.681 -0.3882  0.6083 -0.0905
16930TIP3    H172205   6.673   5.409  12.723  1.0657  0.1793 -0.6445
16930TIP3    H272206   6.592   5.527  12.676 -0.9109 -0.6783  0.5431
16931TIP3   OH272207   1.793   4.274  16.213 -0.1992  0.1425 -0.9334
16931TIP3    H172208   1.796   4.366  16.189 -1.9742 -0.1922 -2.4989
16931TIP3    H272209   1.714   4.265  16.266  0.7632 -0.2154  0.4822
16932TIP3   OH272210   1.837   4.199   2.953  0.1412  0.1796 -0.4145
16932TIP3    H172211   1.745   4.221   2.960  0.2682  0.8386 -0.8208
16932TIP3    H272212   1.861   4.221   2.863  0.5090 -0.6983 -0.5382
16933TIP3   OH272213   6.139   0.903   0.308 -0.8057  0.7696 -0.2103
16933TIP3    H172214   6.079   0.845   0.355  2.0711 -1.8362  0.3586
16933TIP3    H272215   6.167   0.967   0.374 -1.7753  1.0966 -0.1024
16934TIP3   OH272216   2.398   3.059   2.409 -0.4610 -0.3763 -0.0303
16934TIP3    H172217   2.338   2.986   2.426  0.5724 -1.6043 -1.5557
16934TIP3    H272218   2.436   3.079   2.495 -2.9170  0.3446  0.9426
16935TIP3   OH272219   1.051   3.088   4.760  0.0230 -0.4408 -0.7029
16935TIP3    H172220   0.987   3.149   4.796  0.1984 -1.3939  1.3674
16935TIP3    H272221   1.134   3.114   4.801  0.3049 -1.3298 -0.7013
16936TIP3   OH272222   2.425   2.024  11.519 -0.3874  0.1629 -0.4549
16936TIP3    H172223   2.446   1.934  11.546  0.9636 -0.0134 -2.0070
16936TIP3    H272224   2.333   2.020  11.494 -0.8207 -0.3705  1.1931
16937TIP3   OH272225   3.953   1.217   4.886  0.2559 -0.1977  0.0908
16937TIP3    H172226   3.960   1.306   4.921  0.8062  0.3079 -1.2615
16937TIP3    H272227   4.018   1.167   4.936 -0.6592 -0.0368  1.4428
16938TIP3   OH272228   2.135   5.228  11.362 -0.0338 -0.2496 -0.3416
16938TIP3    H172229   2.160   5.204  11.452 -0.7385 -0.6972 -0.2580
16938TIP3    H272230   2.184   5.167  11.307  0.3288 -0.0362 -0.2577
16939TIP3   OH272231   0.556   6.073  12.981 -0.2519  0.0494  0.3791
16939TIP3    H172232   0.498   6.029  13.043 -3.0887  0.7124 -1.7165
16939TIP3    H272233   0.571   6.159  13.021 -1.3660  0.1605  0.5908
16940TIP3   OH272234   6.057   3.974  16.699 -0.0111  0.3468 -0.2694
16940TIP3    H172235   6.151   3.958  16.708 -0.3249 -1.7581 -0.4904
16940TIP3    H272236   6.040   3.962  16.606 -0.3881  1.4525 -0.3482
16941TIP3   OH272237   1.745   4.435   6.588  0.6399 -0.1737 -0.3072
16941TIP3    H172238   1.692   4.363   6.554 -1.6591  0.6087  1.4764
16941TIP3    H272239   1.682   4.494   6.629  2.7205  1.7129  0.2939
16942TIP3   OH272240   3.080   1.826   0.366 -0.3814 -0.0109  0.0717
16942TIP3    H172241   3.026   1.766   0.418 -0.1781 -1.0932 -0.9325
16942TIP3    H272242   3.111   1.772   0.293 -0.4144  1.3951 -1.0056
16943TIP3   OH272243   5.262   1.939   0.966  0.0093 -0.2338  0.1072
16943TIP3    H172244   5.218   1.956   1.050  0.7375  0.2994  0.3776
16943TIP3    H272245   5.261   1.844   0.958  0.1272 -0.2974  0.8235
16944TIP3   OH272246   6.590   4.271  16.359  0.1123 -0.5519  0.0862
16944TIP3    H172247   6.505   4.307  16.383  0.2225 -0.0886 -0.2001
16944TIP3    H272248   6.623   4.231  16.439 -0.5940 -1.1805  0.0695
16945TIP3   OH272249   5.331   4.669  13.072 -0.0622  0.1781 -0.1928
16945TIP3    H172250   5.369   4.755  13.089 -1.5118  0.5325  1.4228
16945TIP3    H272251   5.346   4.653  12.979 -1.8218  3.2061 -1.0455
16946TIP3   OH272252   5.062   2.728   3.179  0.4789 -0.0172  0.4585
16946TIP3    H172253   5.008   2.707   3.102  1.4154 -4.0013  0.7968
16946TIP3    H272254   5.144   2.760   3.142  0.3874 -0.4932 -0.1691
16947TIP3   OH272255   0.721   1.875   5.622 -0.1711 -0.1704 -0.1282
16947TIP3    H172256   0.635   1.834   5.619 -0.4744  0.3197  1.8553
16947TIP3    H272257   0.776   1.812   5.668  0.4907 -0.3611 -1.1469
16948TIP3   OH272258   3.355   0.248   5.493 -0.4965 -0.0299 -0.6145
16948TIP3    H172259   3.387   0.158   5.506 -1.1368  0.2045  3.0311
16948TIP3    H272260   3.267   0.248   5.531 -0.6153  2.0590 -0.8429
16949TIP3   OH272261   0.558   4.422  11.650  0.0133 -0.4145 -0.2420
16949TIP3    H172262   0.535   4.494  11.709  0.9020 -1.3076  1.2098
16949TIP3    H272263   0.503   4.436  11.573 -0.9317  0.9478  0.6636
16950TIP3   OH272264   1.195   5.734   0.881  0.0207  0.0186 -0.6430
16950TIP3    H172265   1.102   5.752   0.868 -0.4098 -1.2711  0.5407
16950TIP3    H272266   1.234   5.820   0.897 -0.8300  0.6522 -1.9321
16951TIP3   OH272267   2.906   0.474  11.166  0.2411  0.6434  0.1697
16951TIP3    H172268   2.867   0.490  11.252  2.2094 -0.8815  1.3929
16951TIP3    H272269   2.843   0.512  11.104 -2.3715 -0.2906  2.1322
16952TIP3   OH272270   4.197   5.212   3.876  0.4007  0.0301 -0.2457
16952TIP3    H172271   4.181   5.268   3.952  1.1745 -0.7553  0.5061
16952TIP3    H272272   4.241   5.135   3.912  2.0542  0.2732 -1.6914
16953TIP3   OH272273   4.793   5.067  10.474  0.0325  1.0026  0.6323
16953TIP3    H172274   4.879   5.103  10.495  0.4671 -0.7697  1.9729
16953TIP3    H272275   4.735   5.144  10.473  1.4134  2.0679  0.8139
16954TIP3   OH272276   0.111   3.851  11.978  0.4138  0.0773 -0.1044
16954TIP3    H172277   0.136   3.763  11.949 -0.1988 -1.0852  2.7363
16954TIP3    H272278   0.190   3.904  11.964  1.6012 -1.5077  0.5341
16955TIP3   OH272279   5.190   2.537  12.916 -0.2230 -0.0889  0.2891
16955TIP3    H172280   5.168   2.549  13.009 -3.9352  1.6594 -0.7071
16955TIP3    H272281   5.253   2.606  12.898 -0.2481  0.2086  1.2811
16956TIP3   OH272282   1.609   5.504   1.144 -0.4570  0.2391 -0.2265
16956TIP3    H172283   1.527   5.553   1.148 -0.8393 -0.3183 -1.1891
16956TIP3    H272284   1.634   5.507   1.052  0.6395  0.4583  0.0711
16957TIP3   OH272285   2.697   6.464  12.672  0.1168  0.2488  0.2978
16957TIP3    H172286   2.764   6.459  12.604  1.6070  0.0689  1.7576
16957TIP3    H272287   2.746   6.469  12.754 -1.6722 -1.0189  1.4698
16958TIP3   OH272288   2.239   3.473   5.580 -0.0462  0.2020 -0.7208
16958TIP3    H172289   2.147   3.464   5.556  0.4871 -2.1180 -2.0604
16958TIP3    H272290   2.245   3.433   5.667 -0.1173 -0.7155 -1.1265
16959TIP3   OH272291   1.048   2.008  12.632 -0.0760 -0.2431  0.2811
16959TIP3    H172292   1.093   2.013  12.548 -2.5167 -1.5275 -1.1705
16959TIP3    H272293   1.112   2.039  12.696  2.7037 -1.7251 -1.7041
16960TIP3   OH272294   0.009   6.504  16.989 -0.0409 -0.9258 -0.7863
16960TIP3    H172295  -0.076   6.515  17.032 -0.4987 -0.7705 -1.7185
16960TIP3    H272296   0.064   6.462  17.055 -0.8234 -0.9765 -0.1587
16961TIP3   OH272297   6.453   6.047  17.032  0.1381 -0.1425 -0.5908
16961TIP3    H172298   6.377   6.062  17.089  0.9113 -1.4334  0.8290
16961TIP3    H272299   6.417   6.011  16.952 -0.7689 -0.4901 -0.0285
16962TIP3   OH272300   1.939   2.773  15.818 -0.6450  0.0187  0.4315
16962TIP3    H172301   1.924   2.741  15.730 -0.9396 -0.6969  0.7438
16962TIP3    H272302   1.947   2.868  15.808 -0.1908 -0.1148 -0.4258
16963TIP3   OH272303   6.252   5.904  11.096 -0.4807 -0.0706 -0.0054
16963TIP3    H172304   6.255   5.810  11.114 -1.8568 -0.0959  0.1829
16963TIP3    H272305   6.249   5.945  11.182 -0.5515  0.1128 -0.0946
16964TIP3   OH272306   0.677   4.193   5.020 -0.0390 -0.4063 -0.3628
16964TIP3    H172307   0.742   4.123   5.017 -0.5802 -0.9136 -0.2072
16964TIP3    H272308   0.625   4.182   4.941 -0.2593 -0.3116 -0.2340
16965TIP3   OH272309   5.110   6.514   1.388 -0.7679  0.5283  0.3192
16965TIP3    H172310   5.164   6.532   1.311  1.3261  0.2315  1.6856
16965TIP3    H272311   5.058   6.593   1.398 -0.7971  0.7270 -1.1714
16966TIP3   OH272312   0.590   3.829   2.130 -0.4929  0.3218  0.2364
16966TIP3    H172313   0.586   3.909   2.078 -0.9780 -0.0298 -0.2735
16966TIP3    H272314   0.570   3.758   2.068  1.2178 -0.3345  0.3879
16967TIP3   OH272315   0.027   1.375  13.463  0.2249 -0.1404 -0.9268
16967TIP3    H172316   0.025   1.341  13.373 -1.5069 -0.5711 -0.7473
16967TIP3    H272317   0.096   1.326  13.506 -1.4747 -2.6991 -0.9929
16968TIP3   OH272318   6.347   4.474  11.787 -0.5423  0.3556  0.3211
16968TIP3    H172319   6.441   4.461  11.794 -0.6484  0.5525  2.6536
16968TIP3    H272320   6.324   4.442  11.700  1.7217  0.6222 -0.3958
16969TIP3   OH272321   4.361   5.297   4.944 -0.2834  0.6387  0.9506
16969TIP3    H172322   4.305   5.373   4.958 -2.8215 -0.8742 -0.7061
16969TIP3    H272323   4.304   5.231   4.904  2.1155 -1.7659  1.2934
16970TIP3   OH272324   6.340   1.885   4.572  0.7048 -0.4266  0.2773
16970TIP3    H172325   6.299   1.800   4.555 -0.8307  0.1654  0.9481
16970TIP3    H272326   6.400   1.898   4.498  1.3238 -2.3048  0.4186
16971TIP3   OH272327   5.993   1.231   4.249 -0.0381 -0.1244 -0.6289
16971TIP3    H172328   6.047   1.247   4.171  0.1020  0.9574 -0.3277
16971TIP3    H272329   5.905   1.214   4.215 -0.0537  0.6975 -1.0123
16972TIP3   OH272330   0.018   3.201  11.163 -0.5486  0.2039  0.4415
16972TIP3    H172331  -0.033   3.222  11.085 -2.8168 -0.1361  1.8024
16972TIP3    H272332  -0.034   3.136  11.209  1.0073  0.0353  1.9975
16973TIP3   OH272333   5.546   2.404  14.230  0.2687  0.8948 -0.0487
16973TIP3    H172334   5.497   2.486  14.243 -1.5162 -0.2150  0.4313
16973TIP3    H272335   5.571   2.405  14.138 -2.4396  0.5686 -0.8397
16974TIP3   OH272336   3.966   5.020   6.053  0.3268  0.0086  0.3761
16974TIP3    H172337   4.020   4.947   6.084  1.3769  0.8327  0.4994
16974TIP3    H272338   4.020   5.097   6.066  0.7337  0.4523 -3.2781
16975TIP3   OH272339   5.580   3.697  12.845 -0.3270 -0.1293  0.2713
16975TIP3    H172340   5.485   3.709  12.837  0.0549  1.8903 -1.3825
16975TIP3    H272341   5.618   3.773  12.802  2.0500  0.5533  3.3969
16976TIP3   OH272342   4.872   5.791  14.188 -0.1049  0.2524  0.0761
16976TIP3    H172343   4.831   5.769  14.104 -1.8936  1.4829  0.5859
16976TIP3    H272344   4.815   5.858  14.225  0.4788 -0.5376  2.4608
16977TIP3   OH272345   1.740   0.338   2.502  0.3202  0.3895 -0.0957
16977TIP3    H172346   1.793   0.315   2.578 -1.2372 -2.6615  0.1614
16977TIP3    H272347   1.744   0.261   2.446 -1.0813  1.3941 -1.6247
16978TIP3   OH272348   2.595   2.640  13.597  0.5851  0.4865  0.4713
16978TIP3    H172349   2.563   2.688  13.520  2.2918 -1.1941 -1.3564
16978TIP3    H272350   2.616   2.553  13.563 -0.3547 -0.8545  3.2573
16979TIP3   OH272351   6.432   4.545   3.940 -0.5149  0.2480  0.3265
16979TIP3    H172352   6.400   4.552   3.850 -0.4341 -0.2278  0.2581
16979TIP3    H272353   6.364   4.586   3.993 -0.7266  0.2127  0.0804
16980TIP3   OH272354   6.039   4.416   1.798  0.4243  0.3779 -0.3709
16980TIP3    H172355   6.102   4.346   1.813 -0.8988 -1.9224 -4.8084
16980TIP3    H272356   6.055   4.445   1.708 -1.3869  3.4065  0.1891
16981TIP3   OH272357   2.450   2.091  14.815 -0.4685  0.7555  0.5487
16981TIP3    H172358   2.418   2.068  14.903  1.3545  1.3273  1.3986
16981TIP3    H272359   2.544   2.106  14.827  0.1060 -0.7065 -1.8375
16982TIP3   OH272360   5.213   2.264  16.118 -0.0663 -0.1370  0.3574
16982TIP3    H172361   5.151   2.321  16.164  0.5913  0.0543  1.0140
16982TIP3    H272362   5.277   2.324  16.080  0.0997 -0.3772  0.2593
16983TIP3   OH272363   4.966   4.146  14.392  0.3765 -0.3914  1.1726
16983TIP3    H172364   5.028   4.207  14.351 -0.2339 -0.4432  0.1514
16983TIP3    H272365   4.998   4.136  14.481  0.7257  1.0997  1.2240
16984TIP3   OH272366   2.456   0.764   4.017  0.3627  0.2490  0.0033
16984TIP3    H172367   2.367   0.795   4.005 -0.6215 -1.5088  2.5588
16984TIP3    H272368   2.500   0.834   4.065 -0.2332  0.1923  0.6304
16985TIP3   OH272369   3.468   3.312   4.788 -0.1583 -0.0661 -0.7145
16985TIP3    H172370   3.388   3.278   4.748 -0.0064 -0.2260 -0.8894
16985TIP3    H272371   3.498   3.241   4.846  1.7219 -1.4351 -3.2568
16986TIP3   OH272372   4.778   4.993  14.334  0.1781  0.6812  0.1864
16986TIP3    H172373   4.810   4.920  14.387 -1.8046  1.3451  2.4115
16986TIP3    H272374   4.697   5.020  14.377  0.1376  3.3004 -1.3972
16987TIP3   OH272375   3.589   4.022   3.969 -0.2146  0.0540  0.8229
16987TIP3    H172376   3.583   3.982   3.883  0.5216  1.7642 -0.0472
16987TIP3    H272377   3.650   3.967   4.017  1.4378  0.5912 -0.6270
16988TIP3   OH272378   2.173   0.985   4.774  0.0842  0.3842  0.0836
16988TIP3    H172379   2.225   1.017   4.701 -0.0903 -1.3543 -0.8329
16988TIP3    H272380   2.235   0.937   4.829  0.1810  1.5381  1.0030
16989TIP3   OH272381   4.456   4.687   4.316 -0.1202  0.0476 -0.1847
16989TIP3    H172382   4.428   4.666   4.226  0.0001  1.3624 -0.5366
16989TIP3    H272383   4.384   4.737   4.352 -0.0946 -0.3395  0.4070
16990TIP3   OH272384   3.208   2.152  12.249  0.2529  0.0679  0.1701
16990TIP3    H172385   3.259   2.145  12.329  2.0920 -0.2032 -0.9810
16990TIP3    H272386   3.266   2.199  12.188 -0.8537 -0.3029 -1.1905
16991TIP3   OH272387   3.346   2.293   3.764 -0.7739 -0.0831  0.5791
16991TIP3    H172388   3.379   2.347   3.693  0.2634 -2.2581 -0.6670
16991TIP3    H272389   3.266   2.336   3.793 -1.2154  0.8320 -1.9192
16992TIP3   OH272390   2.340   4.948  11.951 -0.1531  0.5836 -0.5992
16992TIP3    H172391   2.360   5.038  11.975  0.3163  0.1665  0.5881
16992TIP3    H272392   2.423   4.901  11.960 -0.7439 -0.3039  0.3628
16993TIP3   OH272393   4.137   0.165  14.221 -0.0420 -0.8574 -0.4094
16993TIP3    H172394   4.062   0.105  14.224 -0.3024 -0.5529 -0.8463
16993TIP3    H272395   4.179   0.154  14.306 -2.6288  1.5790  1.3103
16994TIP3   OH272396   6.316   3.157   5.001 -0.0385 -0.0101  0.8386
16994TIP3    H172397   6.361   3.076   4.979 -1.4474 -1.2554  2.3659
16994TIP3    H272398   6.317   3.208   4.920  1.3217 -1.3188  0.0047
16995TIP3   OH272399   1.796   5.385  11.039 -0.7913  0.2014 -0.1191
16995TIP3    H172400   1.806   5.363  11.132 -0.5282  0.9182  0.0258
16995TIP3    H272401   1.855   5.459  11.026 -1.5475  0.7279 -0.6280
16996TIP3   OH272402   0.303   0.931   5.152 -0.5838 -0.7125  0.2985
16996TIP3    H172403   0.386   0.971   5.180 -0.7716 -0.2790  0.2354
16996TIP3    H272404   0.320   0.837   5.156 -0.5298 -0.6518  1.6246
16997TIP3   OH272405   5.140   4.451  13.817  0.4572 -0.0497  0.3511
16997TIP3    H172406   5.159   4.440  13.724  0.8366 -3.8066  0.8162
16997TIP3    H272407   5.051   4.488  13.818 -1.0037 -3.2571 -1.5051
16998TIP3   OH272408   3.563   4.732  12.561 -0.9834 -0.2281  0.6758
16998TIP3    H172409   3.581   4.667  12.629 -1.2910 -1.3485 -0.2981
16998TIP3    H272410   3.592   4.691  12.479 -0.3971  1.1946  0.1406
16999TIP3   OH272411   6.665   0.139   4.469 -0.1076 -0.7280 -0.4236
16999TIP3    H172412   6.655   0.133   4.374 -2.4673 -1.2224 -0.1647
16999TIP3    H272413   6.686   0.050   4.497  3.1634 -0.1335 -0.6956
17000TIP3   OH272414   6.253   5.878  13.376  0.1209 -0.8984  0.6244
17000TIP3    H172415   6.320   5.906  13.439 -0.5208  2.1486  0.0474
17000TIP3    H272416   6.172   5.877  13.427 -0.1073 -0.1756  0.2835
17001TIP3   OH272417   5.128   5.012   6.002 -0.0085 -0.2812  0.5574
17001TIP3    H172418   5.126   5.065   6.081  1.9080 -0.3201  0.6357
17001TIP3    H272419   5.062   5.052   5.945  0.1590  1.0765  1.3039
17002TIP3   OH272420   4.529   5.045  15.780  0.1145 -0.2688  0.0107
17002TIP3    H172421   4.521   5.066  15.873 -2.1931  0.5711 -0.3400
17002TIP3    H272422   4.449   4.997  15.760  0.0004  0.6629 -1.8274
17003TIP3   OH272423   2.653   3.672   1.718  0.0227 -0.9163  0.5910
17003TIP3    H172424   2.720   3.686   1.785 -0.0612 -1.9030  0.8840
17003TIP3    H272425   2.645   3.577   1.711  0.3689 -0.8403 -1.1551
17004TIP3   OH272426   5.570   6.330   5.615 -0.1103  0.2145  0.3629
17004TIP3    H172427   5.559   6.425   5.620 -0.5694  0.1807 -0.0006
17004TIP3    H272428   5.492   6.295   5.660  0.6987  0.0213  1.6504
17005TIP3   OH272429   1.571   3.113   4.906  0.5236  0.1484 -0.0594
17005TIP3    H172430   1.658   3.073   4.899  0.9177  0.8729  0.6146
17005TIP3    H272431   1.515   3.042   4.937  0.7121 -0.5263 -1.2256
17006TIP3   OH272432   6.130   4.150  10.501 -0.2540  0.1170  0.9363
17006TIP3    H172433   6.199   4.107  10.551  0.4862 -0.2183 -0.3711
17006TIP3    H272434   6.169   4.231  10.468 -0.9106  0.6159  1.3703
17007TIP3   OH272435   5.183   0.885  16.216  0.0356 -0.0013 -0.2555
17007TIP3    H172436   5.198   0.940  16.139  1.3853 -0.0448 -0.0225
17007TIP3    H272437   5.216   0.936  16.289 -0.5889 -0.2679  0.2164
17008TIP3   OH272438   4.195   0.429   3.146 -0.0118 -0.1247  0.0857
17008TIP3    H172439   4.180   0.335   3.152  0.7575 -0.2153  0.7820
17008TIP3    H272440   4.117   0.464   3.103 -1.4017 -0.7846  1.9886
17009TIP3   OH272441   4.614   4.066   5.837 -0.1732 -0.3913  0.2326
17009TIP3    H172442   4.571   4.105   5.913 -1.2097  1.0031 -1.0328
17009TIP3    H272443   4.552   4.001   5.805 -1.6195  1.9386 -1.8658
17010TIP3   OH272444   4.553   6.126   5.609 -0.3443 -0.1026  0.5628
17010TIP3    H172445   4.643   6.141   5.581 -0.7589  0.6149 -0.4081
17010TIP3    H272446   4.533   6.200   5.666 -0.5437  0.1102  0.2205
17011TIP3   OH272447   2.485   2.871  11.703  0.3405  0.1370  0.3858
17011TIP3    H172448   2.559   2.911  11.748  0.3614  1.5236 -0.8185
17011TIP3    H272449   2.525   2.828  11.627 -0.1176  1.1589 -0.4373
17012TIP3   OH272450   4.823   6.258   3.365  0.2052 -0.2214 -0.3624
17012TIP3    H172451   4.806   6.193   3.297 -1.1383  0.5337 -0.7681
17012TIP3    H272452   4.800   6.213   3.447 -0.7019 -0.2763 -0.6378
17013TIP3   OH272453   6.368   0.541  10.695  0.0506  0.5108 -0.0710
17013TIP3    H172454   6.442   0.598  10.719  1.1944  0.3672 -3.1181
17013TIP3    H272455   6.293   0.601  10.689  0.9744  1.5072 -1.9178
17014TIP3   OH272456   6.556   5.904   2.941  0.3857 -0.3122 -0.0679
17014TIP3    H172457   6.649   5.906   2.918  0.9117  1.6010  2.1055
17014TIP3    H272458   6.552   5.855   3.023 -0.5168 -0.1312  0.0026
17015TIP3   OH272459   4.747   1.726  12.760  0.0018  0.3326 -0.4307
17015TIP3    H172460   4.794   1.694  12.683  0.4891 -1.1708  0.4584
17015TIP3    H272461   4.679   1.661  12.775  0.7469 -0.1172  1.1726
17016TIP3   OH272462   1.398   3.470   0.170 -0.5706  0.4399  0.1405
17016TIP3    H172463   1.366   3.559   0.160 -1.3511  0.2151  0.5919
17016TIP3    H272464   1.378   3.427   0.087 -1.5757  0.2669  0.4582
17017TIP3   OH272465   6.026   2.606   4.783  0.3457  0.2678 -0.1928
17017TIP3    H172466   5.973   2.617   4.704 -2.0014  0.8803  1.4304
17017TIP3    H272467   6.004   2.519   4.815  0.8901  0.2349  0.1040
17018TIP3   OH272468   2.927   0.126   6.211 -0.2088  0.0124 -0.6588
17018TIP3    H172469   2.955   0.195   6.151 -2.0238  2.1772  0.9086
17018TIP3    H272470   2.998   0.121   6.276  0.1051  0.1060 -0.9916
17019TIP3   OH272471   5.239   1.097  11.643  0.4959  0.1027 -0.3028
17019TIP3    H172472   5.298   1.087  11.568  1.2419 -0.1526  0.3171
17019TIP3    H272473   5.175   1.162  11.614  0.8710  0.1269 -1.1027
17020TIP3   OH272474   0.465   2.735   6.828 -0.4707 -0.2705  0.4258
17020TIP3    H172475   0.430   2.656   6.868 -1.7685  0.9201  1.6899
17020TIP3    H272476   0.410   2.749   6.751 -0.2689 -0.5593  0.2262
17021TIP3   OH272477   3.655   4.048   5.978 -0.0645  0.9974 -0.3219
17021TIP3    H172478   3.619   3.966   5.944  1.7540 -0.0687  0.2015
17021TIP3    H272479   3.745   4.050   5.945 -0.0934  2.8085 -0.3444
17022TIP3   OH272480   5.023   0.858   1.872 -0.0797  0.5000 -0.9064
17022TIP3    H172481   5.036   0.844   1.966  0.1127 -0.9742 -1.1380
17022TIP3    H272482   4.981   0.778   1.842  0.2387  0.7971 -2.1481
17023TIP3   OH272483   0.206   4.517   2.014 -0.2646 -0.1435  0.0778
17023TIP3    H172484   0.264   4.586   2.047  0.4138  0.6567 -2.6492
17023TIP3    H272485   0.120   4.558   2.009 -0.6782 -0.6924  2.0885
17024TIP3   OH272486   0.930   4.281   0.184 -0.0023 -0.4521  0.3312
17024TIP3    H172487   0.973   4.210   0.232  0.2155 -1.4018 -1.2273
17024TIP3    H272488   0.982   4.358   0.204  1.2111 -1.1970  0.1354
17025TIP3   OH272489   1.597   1.071   0.284 -0.2494  0.2301 -0.1905
17025TIP3    H172490   1.547   1.096   0.362  0.3731 -1.4858  0.7894
17025TIP3    H272491   1.590   0.976   0.280  1.0977  0.1521 -1.2866
17026TIP3   OH272492   4.530   1.265   0.842  0.0065 -0.4466  0.0378
17026TIP3    H172493   4.505   1.257   0.750 -0.7179 -3.3529  0.4521
17026TIP3    H272494   4.452   1.298   0.886 -0.7765 -2.3798  0.1364
17027TIP3   OH272495   5.532   1.089   6.353 -0.4588 -0.1077  0.0262
17027TIP3    H172496   5.476   1.073   6.278 -2.0021  0.6895  0.9838
17027TIP3    H272497   5.597   1.019   6.350  1.0090  1.2780 -3.3998
17028TIP3   OH272498   5.127   4.106   4.456  0.3543 -0.3591  0.5729
17028TIP3    H172499   5.148   4.176   4.518  0.3229  0.7266 -0.6249
17028TIP3    H272500   5.042   4.073   4.486  0.8290 -0.5634  1.7300
17029TIP3   OH272501   1.704   6.777  11.611 -0.0441 -0.3756 -0.7966
17029TIP3    H172502   1.691   6.850  11.672 -1.3525 -0.9473 -0.3890
17029TIP3    H272503   1.687   6.815  11.525 -0.8345 -0.2117 -0.5766
17030TIP3   OH272504   0.541   4.758  14.372  0.2824 -0.4406  0.1211
17030TIP3    H172505   0.605   4.807  14.321 -0.4589  1.5007  1.0070
17030TIP3    H272506   0.588   4.733  14.452 -0.1742  1.3899  0.9826
17031TIP3   OH272507   6.515   1.410  13.166  0.1587  0.5610 -0.4805
17031TIP3    H172508   6.532   1.492  13.212  1.4553  0.1595 -0.2437
17031TIP3    H272509   6.513   1.343  13.234 -2.0124  0.5328 -0.5381
17032TIP3   OH272510   4.150   1.257   0.220 -0.6809 -0.0514  0.1364
17032TIP3    H172511   4.079   1.194   0.232  0.9911 -1.9412  0.3014
17032TIP3    H272512   4.153   1.271   0.125 -0.4231 -0.9618  0.0108
17033TIP3   OH272513   6.051   6.404   4.116  0.3316 -0.4771  0.1357
17033TIP3    H172514   6.115   6.463   4.156 -0.8153 -0.1280  1.5291
17033TIP3    H272515   5.968   6.427   4.158 -0.5037 -1.7035 -0.7879
17034TIP3   OH272516   2.641   4.715   6.423  0.0073  0.2001  0.0145
17034TIP3    H172517   2.693   4.763   6.487  1.3252  1.4874 -1.9380
17034TIP3    H272518   2.563   4.769   6.411  0.0138  0.2376  0.1399
17035TIP3   OH272519   3.495   4.512   1.456 -0.9416  0.4855 -0.9413
17035TIP3    H172520   3.437   4.445   1.494 -1.1123  1.0754 -0.1508
17035TIP3    H272521   3.477   4.591   1.507  0.9969  0.5197 -0.2723
17036TIP3   OH272522   4.340   3.775   3.361 -0.1921  0.3423 -0.2590
17036TIP3    H172523   4.398   3.851   3.364 -0.5860  0.6263  0.1475
17036TIP3    H272524   4.267   3.802   3.306  0.3964 -0.2545 -1.3510
17037TIP3   OH272525   4.857   6.591  13.660 -0.5125  0.4367  0.0157
17037TIP3    H172526   4.890   6.513  13.704 -1.2025  0.0505 -0.1621
17037TIP3    H272527   4.911   6.599  13.581 -0.7086 -0.0845 -0.1691
17038TIP3   OH272528   2.180   3.877  14.279  0.2232 -0.2598  0.3315
17038TIP3    H172529   2.227   3.890  14.362 -0.6799  0.7551  0.7029
17038TIP3    H272530   2.101   3.829  14.304 -0.1055  0.1487  0.0769
17039TIP3   OH272531   5.568   5.993  12.609 -0.0107  0.2027  0.3095
17039TIP3    H172532   5.483   5.966  12.574 -0.0244  0.8097 -0.1431
17039TIP3    H272533   5.600   6.057  12.546  1.3238 -0.9013 -0.1507
17040TIP3   OH272534   2.254   0.365  12.712 -0.3389 -0.4711 -0.2955
17040TIP3    H172535   2.273   0.444  12.763 -1.3867  0.7528 -1.7377
17040TIP3    H272536   2.159   0.367  12.700 -0.2201 -1.2660 -1.4402
17041TIP3   OH272537   4.187   6.750  12.020 -0.0437  0.0389  0.0155
17041TIP3    H172538   4.172   6.655  12.016  1.0335 -0.0748 -1.9817
17041TIP3    H272539   4.258   6.760  12.083  0.5890 -0.5993 -0.5817
17042TIP3   OH272540   2.800   1.285   4.099  0.2381 -0.2114  0.1116
17042TIP3    H172541   2.747   1.333   4.036  0.9812  0.0621 -0.3085
17042TIP3    H272542   2.871   1.345   4.123  1.2219 -1.1048 -0.4811
17043TIP3   OH272543   3.533   3.498   3.935 -0.6493 -0.5404 -0.0451
17043TIP3    H172544   3.494   3.443   3.867  0.6009 -1.5643  0.0534
17043TIP3    H272545   3.560   3.436   4.003  2.9058 -0.0836 -0.9646
17044TIP3   OH272546   4.941   2.960  12.189 -0.0504  0.1290  0.1897
17044TIP3    H172547   4.953   2.867  12.204 -0.6016  0.4698  3.0007
17044TIP3    H272548   4.848   2.976  12.210 -0.3879  1.0393 -1.8388
17045TIP3   OH272549   1.570   2.315  14.503  0.0777  0.9156 -0.1684
17045TIP3    H172550   1.499   2.309  14.439  1.3179  1.4757 -1.6096
17045TIP3    H272551   1.600   2.225  14.513  1.2066  1.0627 -1.9253
17046TIP3   OH272552   5.319   4.408   1.955 -0.4869  0.1005 -0.2170
17046TIP3    H172553   5.242   4.352   1.966 -0.3306  0.3881  2.7787
17046TIP3    H272554   5.309   4.445   1.868 -2.2324 -2.1181 -1.0293
17047TIP3   OH272555   0.100   4.590  15.991  0.0262 -0.3239  0.1407
17047TIP3    H172556   0.021   4.554  16.030  0.2125 -1.3894 -0.4715
17047TIP3    H272557   0.137   4.645  16.060 -1.1441  0.0424  0.4914
17048TIP3   OH272558   3.684   1.956   0.467  0.0447  0.2494  0.1865
17048TIP3    H172559   3.676   1.861   0.475 -0.2746  0.4617  3.0104
17048TIP3    H272560   3.616   1.990   0.526  1.0707  2.2110  0.2502
17049TIP3   OH272561   1.007   5.379   2.557  0.2859 -0.1987  0.2991
17049TIP3    H172562   0.996   5.301   2.611  0.7299 -0.6024 -0.1933
17049TIP3    H272563   1.084   5.361   2.504  0.0851  0.3617 -0.1844
17050TIP3   OH272564   1.960   6.338  12.505 -0.0866  0.5119 -0.0336
17050TIP3    H172565   1.973   6.412  12.565  1.4063 -0.6057  1.0873
17050TIP3    H272566   2.009   6.267  12.546 -0.5117 -0.7603 -1.7170
17051TIP3   OH272567   3.343   1.172   1.360  0.7861  0.0602  0.5714
17051TIP3    H172568   3.367   1.240   1.423  1.0310 -1.3069  1.9839
17051TIP3    H272569   3.423   1.122   1.347  0.3033 -0.6792  0.4303
17052TIP3   OH272570   1.720   5.278  11.798 -0.1642  0.0112 -0.3314
17052TIP3    H172571   1.706   5.363  11.757 -0.2866 -0.2224 -0.7669
17052TIP3    H272572   1.667   5.217  11.747 -1.4137 -0.0503  0.9998
17053TIP3   OH272573   4.171   2.995  13.948  0.2886 -0.3986 -0.2947
17053TIP3    H172574   4.086   2.955  13.969 -0.2250  1.7677  1.9967
17053TIP3    H272575   4.235   2.927  13.970 -0.7296 -1.2323  0.1400
17054TIP3   OH272576   1.807   1.532  13.933  0.7441 -0.0076 -0.4465
17054TIP3    H172577   1.728   1.478  13.938  1.1222 -0.4170  1.4660
17054TIP3    H272578   1.835   1.525  13.841 -0.7101 -0.8941 -0.8388
17055TIP3   OH272579   3.817   5.828   0.795  0.3132 -0.0809 -0.1969
17055TIP3    H172580   3.726   5.858   0.790  0.4184  0.1557 -0.7156
17055TIP3    H272581   3.829   5.804   0.887 -0.7035 -1.4689 -0.4105
17056TIP3   OH272582   4.823   0.052   2.755 -0.1519  0.2190 -0.1242
17056TIP3    H172583   4.856  -0.037   2.741  3.1005  1.3485  0.0197
17056TIP3    H272584   4.778   0.047   2.839 -0.4080 -1.3944 -0.3364
17057TIP3   OH272585   6.067   2.691   6.631  0.6345 -0.1255 -0.4808
17057TIP3    H172586   6.125   2.721   6.701 -0.0717  0.2138 -0.0243
17057TIP3    H272587   6.125   2.653   6.565  1.3265 -0.2935  0.2154
17058TIP3   OH272588   5.615   2.556   2.158 -0.5411 -0.0169  0.2221
17058TIP3    H172589   5.674   2.630   2.141 -1.2617  0.4998 -0.0880
17058TIP3    H272590   5.541   2.595   2.205 -0.2058 -0.8242  1.4377
17059TIP3   OH272591   1.673   5.764  16.393 -0.2156 -0.7168 -0.3836
17059TIP3    H172592   1.752   5.748  16.445 -0.3034 -1.1319 -0.3752
17059TIP3    H272593   1.617   5.689  16.411 -0.9579 -0.0147  0.2534
17060TIP3   OH272594   0.934   0.486  11.261 -0.3728 -0.1706 -0.3800
17060TIP3    H172595   0.987   0.444  11.329 -0.2901  1.2970  0.4890
17060TIP3    H272596   0.978   0.464  11.179 -0.3201 -1.7421  0.0644
17061TIP3   OH272597   0.020   0.966   4.529  0.3484 -0.2626 -0.8788
17061TIP3    H172598  -0.073   0.989   4.536  0.4921 -0.0562  0.7182
17061TIP3    H272599   0.062   1.046   4.498 -0.0502 -0.4810 -2.0162
17062TIP3   OH272600   3.605   4.865  12.227 -0.2045  0.2727  0.0225
17062TIP3    H172601   3.539   4.796  12.219 -0.2215  0.4603 -1.5315
17062TIP3    H272602   3.575   4.935  12.169  2.1673 -0.2768 -1.9374
17063TIP3   OH272603   5.301   4.544   4.849  0.2199 -0.5741 -0.2605
17063TIP3    H172604   5.270   4.471   4.902  1.9019 -2.8350 -2.3167
17063TIP3    H272605   5.372   4.583   4.900 -0.8800 -0.1172  0.9745
17064TIP3   OH272606   2.908   3.642   4.424 -0.2830 -0.4640  0.6596
17064TIP3    H172607   2.930   3.659   4.515 -1.8886  2.5155  0.5776
17064TIP3    H272608   2.819   3.607   4.427  1.2623 -4.6310  0.4693
17065TIP3   OH272609   6.231   4.857  12.943 -0.0190 -0.3792  0.6316
17065TIP3    H172610   6.299   4.792  12.929  0.7264  0.5946 -0.3467
17065TIP3    H272611   6.276   4.931  12.984 -0.4598  0.2964 -0.0769
17066TIP3   OH272612   1.007   4.907   3.166  0.5426  0.2331  0.5216
17066TIP3    H172613   0.957   4.844   3.116  0.9619  0.3825 -0.0867
17066TIP3    H272614   1.095   4.871   3.169  0.5928  0.3823  0.8825
17067TIP3   OH272615   5.710   5.953   6.177  0.5389  0.4984  0.7898
17067TIP3    H172616   5.628   5.948   6.226 -0.6729 -0.7147 -1.2857
17067TIP3    H272617   5.744   5.864   6.178  0.8723  0.6132  0.0601
17068TIP3   OH272618   1.111   2.284  13.704  0.0695 -0.0008 -0.5420
17068TIP3    H172619   1.177   2.232  13.749 -0.3481 -1.4123 -1.5061
17068TIP3    H272620   1.160   2.333  13.638  0.2892 -0.2824 -0.5902
17069TIP3   OH272621   1.962   4.453  16.049  0.2397 -0.4741  0.3356
17069TIP3    H172622   1.885   4.454  15.992  2.0451  1.1693 -2.1997
17069TIP3    H272623   2.003   4.368  16.032  0.1536 -0.4574  0.0358
17070TIP3   OH272624   5.071   3.143  14.534 -0.1591 -0.8711  0.2309
17070TIP3    H172625   5.143   3.118  14.591  0.6872 -0.9387 -0.8621
17070TIP3    H272626   5.101   3.123  14.445 -0.2226  2.0578 -0.5251
17071TIP3   OH272627   2.282   5.629   3.850  0.6886 -0.4096 -0.2477
17071TIP3    H172628   2.315   5.718   3.861  1.8097 -0.7134 -1.1228
17071TIP3    H272629   2.360   5.574   3.854  0.1743 -1.2229 -1.2655
17072TIP3   OH272630   3.613   6.324  15.703  0.3120 -0.4892 -0.2426
17072TIP3    H172631   3.606   6.406  15.655 -1.2011 -0.0741  0.6599
17072TIP3    H272632   3.581   6.344  15.791 -3.7445 -2.8797 -1.0128
17073TIP3   OH272633   2.782   0.647   5.214 -0.3754  0.2045  0.2629
17073TIP3    H172634   2.853   0.659   5.150 -1.0154 -0.7677 -0.6395
17073TIP3    H272635   2.802   0.565   5.258 -0.5254  0.3262  0.5618
17074TIP3   OH272636   3.504   4.470   3.118 -0.4744 -0.5240 -0.4816
17074TIP3    H172637   3.482   4.378   3.132  0.2171 -0.5710  0.3093
17074TIP3    H272638   3.426   4.517   3.148 -0.3081 -0.7891  0.3846
17075TIP3   OH272639   5.646   4.081  15.557  0.7647 -0.4289  0.0624
17075TIP3    H172640   5.583   4.089  15.628 -0.2924 -1.2342 -0.7547
17075TIP3    H272641   5.593   4.081  15.478  2.1319  3.4880 -0.9402
17076TIP3   OH272642   5.920   4.354  15.247 -0.3304  0.5318  0.5050
17076TIP3    H172643   5.907   4.305  15.165 -0.0140  1.9740 -0.4263
17076TIP3    H272644   5.898   4.291  15.316  5.1146 -2.6914 -0.3903
17077TIP3   OH272645   4.700   5.436  11.749  0.1257  0.1327 -0.2176
17077TIP3    H172646   4.758   5.428  11.825  1.9355  2.2328 -1.3113
17077TIP3    H272647   4.659   5.522  11.759  0.5670  0.5397 -1.7035
17078TIP3   OH272648   3.097   6.087   3.212  0.3030 -0.1374 -0.1040
17078TIP3    H172649   3.054   6.148   3.272  0.2808 -0.1050 -0.1529
17078TIP3    H272650   3.186   6.121   3.204  0.6020 -0.7022  0.7007
17079TIP3   OH272651   0.282   3.855   1.697 -0.0653 -0.1803  0.0738
17079TIP3    H172652   0.284   3.867   1.602  1.8404  3.5339  0.4730
17079TIP3    H272653   0.193   3.879   1.723  0.1210  1.1893 -0.5308
17080TIP3   OH272654   2.691   2.875  14.234  0.0963  0.4891  0.1232
17080TIP3    H172655   2.698   2.869  14.139 -2.1656  0.8078 -0.0983
17080TIP3    H272656   2.677   2.969  14.251 -0.4021  0.3213  0.6734
17081TIP3   OH272657   3.098   5.513  11.147 -0.3115 -0.4542  0.1079
17081TIP3    H172658   3.095   5.569  11.069  0.5435 -1.1944 -0.4661
17081TIP3    H272659   3.043   5.439  11.125  1.6789 -1.7413 -0.6661
17082TIP3   OH272660   0.309   5.146  12.263  0.1920  0.4815  0.6526
17082TIP3    H172661   0.390   5.130  12.310  0.0039 -0.3362  0.7086
17082TIP3    H272662   0.311   5.239  12.242  0.5605  0.7180  1.7354
17083TIP3   OH272663   6.307   1.847  15.627  0.3246 -0.2602  0.6189
17083TIP3    H172664   6.286   1.782  15.560 -1.3974 -1.6345  2.4567
17083TIP3    H272665   6.362   1.800  15.690  1.6281  0.9352  0.4194
17084TIP3   OH272666   4.978   2.457  15.231  0.4152  0.1730 -0.1768
17084TIP3    H172667   4.895   2.458  15.185  0.2263 -0.0867  0.1571
17084TIP3    H272668   5.001   2.550  15.242 -0.1196  0.2511  0.2576
17085TIP3   OH272669   2.022   1.226   2.552 -0.2708 -0.2811 -0.1173
17085TIP3    H172670   1.991   1.199   2.466  0.3790 -0.9296 -0.1596
17085TIP3    H272671   2.110   1.188   2.559  0.9533  2.4052 -0.4234
17086TIP3   OH272672   5.518   3.331  16.444  0.3809  0.0613  0.1637
17086TIP3    H172673   5.437   3.370  16.477 -0.4666 -1.8988  0.4343
17086TIP3    H272674   5.525   3.364  16.354 -0.2434  0.9448  0.4293
17087TIP3   OH272675   2.222   0.509  16.693 -0.2846  0.3597  0.1606
17087TIP3    H172676   2.276   0.476  16.764 -0.5350 -0.1638  0.1130
17087TIP3    H272677   2.143   0.543  16.736  0.8231  2.7585  0.3990
17088TIP3   OH272678   2.211   5.597   4.346 -0.2007  0.0786  0.3552
17088TIP3    H172679   2.189   5.518   4.298 -1.9128  0.5970  0.2210
17088TIP3    H272680   2.199   5.573   4.438 -0.8411  0.1892  0.3093
17089TIP3   OH272681   5.075   0.547   2.297  0.6965  0.5886 -0.0149
17089TIP3    H172682   5.083   0.499   2.214  2.0222 -0.7473  0.8633
17089TIP3    H272683   5.083   0.481   2.365  0.9028  1.8381  1.2137
17090TIP3   OH272684   1.269   4.180   0.607 -0.1649 -0.5416  0.6111
17090TIP3    H172685   1.314   4.098   0.588 -0.2657 -0.7498  1.2553
17090TIP3    H272686   1.243   4.173   0.699 -1.9481 -0.6479  0.1249
17091TIP3   OH272687   2.759   6.596   6.214 -0.0327 -0.3422 -0.5790
17091TIP3    H172688   2.709   6.515   6.205  0.5290 -1.0970  2.5597
17091TIP3    H272689   2.724   6.637   6.292  0.5300  1.8757 -1.4522
17092TIP3   OH272690   1.369   5.752   0.076  0.5428 -0.9616 -0.0709
17092TIP3    H172691   1.306   5.773   0.145 -0.1069  1.2778 -1.3211
17092TIP3    H272692   1.324   5.685   0.023 -0.3002 -0.2539 -0.2621
17093TIP3   OH272693   5.434   5.270   1.466 -0.1641 -0.1188 -0.3618
17093TIP3    H172694   5.349   5.274   1.423  0.4741  0.2780 -1.6077
17093TIP3    H272695   5.414   5.243   1.556 -1.5955 -0.0393 -0.6434
17094TIP3   OH272696   2.295   2.461  17.233 -0.1905 -0.0447 -0.0415
17094TIP3    H172697   2.379   2.505  17.243  0.0936  0.5992 -4.2097
17094TIP3    H272698   2.234   2.513  17.286  1.4906  1.1136  0.8033
17095TIP3   OH272699   6.739   5.748  11.369  0.1038 -0.2346 -0.4764
17095TIP3    H172700   6.664   5.691  11.350  0.3283 -1.9096  3.2350
17095TIP3    H272701   6.798   5.693  11.420  2.3268  2.1158 -0.4314
17096TIP3   OH272702   3.125   4.650   3.341 -0.7255  0.0725 -0.0848
17096TIP3    H172703   3.076   4.666   3.260 -0.4156 -0.2027 -0.3296
17096TIP3    H272704   3.071   4.689   3.410 -1.2031 -0.0797 -0.3707
17097TIP3   OH272705   3.635   3.681   3.375 -0.1358 -0.1427 -0.2029
17097TIP3    H172706   3.554   3.713   3.415  0.0025 -0.8739  0.6717
17097TIP3    H272707   3.655   3.600   3.422 -0.2956 -1.3644 -2.1292
17098TIP3   OH272708   4.280   2.907   1.140 -0.2110  0.2527 -0.7945
17098TIP3    H172709   4.362   2.925   1.094  0.0499  0.2035 -0.3499
17098TIP3    H272710   4.307   2.866   1.222 -0.5521  2.4160  0.4429
17099TIP3   OH272711   0.636   2.311   2.940 -0.6778 -0.4110 -0.4154
17099TIP3    H172712   0.654   2.217   2.944 -0.1649 -0.2913  0.1670
17099TIP3    H272713   0.723   2.352   2.930 -0.9052 -0.0044 -0.7495
17100TIP3   OH272714   1.537   2.389  14.919  0.0199 -0.2550 -0.3524
17100TIP3    H172715   1.451   2.353  14.896  0.1637 -1.2062  0.5588
17100TIP3    H272716   1.565   2.338  14.994  1.7755 -0.5178 -1.1680
17101TIP3   OH272717   5.281   6.211   1.090  0.2453  0.4937 -0.2940
17101TIP3    H172718   5.193   6.186   1.062  0.5117 -0.7693 -0.0442
17101TIP3    H272719   5.273   6.302   1.119 -1.2096  0.0137  0.8284
17102TIP3   OH272720   0.950   3.479  12.456  0.1227  0.2689  0.3385
17102TIP3    H172721   1.035   3.523  12.461 -0.3165  1.2920 -0.8315
17102TIP3    H272722   0.954   3.410  12.522  3.1203 -1.9091 -1.9704
17103TIP3   OH272723   1.307   3.075   5.706  0.1583  0.1880 -0.3416
17103TIP3    H172724   1.290   3.167   5.721 -1.0021  0.0644 -0.8698
17103TIP3    H272725   1.402   3.066   5.717  0.3947  1.5898 -1.1124
17104TIP3   OH272726   6.359   6.689  14.131  0.4224 -0.1182  0.1208
17104TIP3    H172727   6.418   6.671  14.203 -0.9421  0.0449  1.3022
17104TIP3    H272728   6.413   6.681  14.052  2.6097  2.6147  1.3018
17105TIP3   OH272729   3.740   1.488   4.919  0.5382  0.1908 -0.2172
17105TIP3    H172730   3.795   1.497   4.996  1.1560 -1.2794 -0.4609
17105TIP3    H272731   3.721   1.394   4.914 -2.3929  0.7325  0.1269
17106TIP3   OH272732   5.285   6.380  16.738 -0.1416  0.0274 -0.2720
17106TIP3    H172733   5.378   6.393  16.757 -0.3116 -0.0563  0.6523
17106TIP3    H272734   5.280   6.380  16.642  0.8458 -0.2417 -0.3348
17107TIP3   OH272735   5.362   4.748  11.887  0.0122  0.4278 -0.1666
17107TIP3    H172736   5.340   4.784  11.973  2.5937  1.1645  0.2285
17107TIP3    H272737   5.358   4.823  11.828 -0.1130  0.2440 -0.3931
17108TIP3   OH272738   3.532   2.580   1.920  0.4107  0.1471  0.0465
17108TIP3    H172739   3.524   2.671   1.894  1.1747  0.0957 -0.3941
17108TIP3    H272740   3.576   2.537   1.846  1.6442 -0.2207  0.9551
17109TIP3   OH272741   6.252   4.184   2.523  0.0009  0.0840 -0.4788
17109TIP3    H172742   6.176   4.127   2.539  0.5405  0.1607  2.7708
17109TIP3    H272743   6.273   4.220   2.609  1.6061  2.7976 -1.9316
17110TIP3   OH272744   3.175   0.470  16.596 -0.1020 -0.3538  0.0430
17110TIP3    H172745   3.091   0.510  16.575 -0.7929 -0.5395  2.2807
17110TIP3    H272746   3.152   0.390  16.644  1.3412  0.1214  1.5655
17111TIP3   OH272747   1.506   2.257   4.743 -0.2586  0.1860  0.2204
17111TIP3    H172748   1.419   2.236   4.776 -0.3692  2.5983  1.5403
17111TIP3    H272749   1.561   2.183   4.771 -1.1643  0.3274  2.4309
17112TIP3   OH272750   0.368   4.243  13.728 -0.4749 -0.4085  0.6369
17112TIP3    H172751   0.370   4.255  13.633  1.5495  0.3048  0.7606
17112TIP3    H272752   0.357   4.149  13.741 -0.7697 -0.5032 -0.2879
17113TIP3   OH272753   2.480   4.266   1.091 -0.7194 -0.1989  0.2789
17113TIP3    H172754   2.485   4.184   1.140  0.6589  0.4336  1.2236
17113TIP3    H272755   2.458   4.332   1.158  1.0897  0.6608  0.0435
17114TIP3   OH272756   0.065   0.415   5.006  0.3134 -0.2498  0.4688
17114TIP3    H172757   0.142   0.431   5.062 -0.7272  0.3595  1.7567
17114TIP3    H272758   0.020   0.500   5.002  0.1607 -0.3887 -0.9893
17115TIP3   OH272759   1.178   4.898   2.243 -0.0929  0.3910  0.2331
17115TIP3    H172760   1.111   4.830   2.237  1.4530 -1.1013 -0.4711
17115TIP3    H272761   1.206   4.896   2.335  1.7660 -1.7385 -0.3413
17116TIP3   OH272762   0.217   4.082  14.591 -0.3044 -0.3343  0.6153
17116TIP3    H172763   0.248   4.043  14.509  0.4456  1.1235  0.2001
17116TIP3    H272764   0.260   4.029  14.659  0.2242 -0.6240  0.0656
17117TIP3   OH272765   1.056   3.015  12.104 -0.1222  0.0591  0.4581
17117TIP3    H172766   0.990   2.952  12.076 -1.6852  1.8569  0.0198
17117TIP3    H272767   1.063   3.078  12.032 -0.5101  1.8605  1.9431
17118TIP3   OH272768   0.285   2.062  16.696 -0.3011 -0.7713  0.3412
17118TIP3    H172769   0.319   2.015  16.620  2.3253 -0.8079  1.5034
17118TIP3    H272770   0.315   2.152  16.684 -2.9521  0.0571 -0.4547
17119TIP3   OH272771   2.994   0.023  13.994 -0.0934 -0.1281  0.6940
17119TIP3    H172772   3.050  -0.014  13.926  1.3117 -0.7398  2.1742
17119TIP3    H272773   2.911  -0.024  13.985  0.3466 -0.7552 -0.0683
17120TIP3   OH272774   4.978   2.675   2.406  1.0150  0.5075 -0.2563
17120TIP3    H172775   4.954   2.764   2.431 -1.7204  0.0032 -0.9086
17120TIP3    H272776   5.064   2.661   2.446  1.5750  3.4712 -0.2766
17121TIP3   OH272777   0.505   2.546   1.112 -0.3604 -0.3642  0.3643
17121TIP3    H172778   0.482   2.541   1.205 -0.9576 -1.5358  0.1522
17121TIP3    H272779   0.546   2.462   1.093 -1.2209 -0.5513 -0.6976
17122TIP3   OH272780   3.966   4.521   0.180 -0.0702  0.3169 -0.0910
17122TIP3    H172781   4.045   4.574   0.172  0.3922 -0.5352 -1.2952
17122TIP3    H272782   3.919   4.559   0.254  0.8077  1.6886 -0.2219
17123TIP3   OH272783   5.202   2.572   6.515 -0.1916 -0.0551  0.0936
17123TIP3    H172784   5.120   2.532   6.541  1.4330 -3.5423  0.1313
17123TIP3    H272785   5.197   2.577   6.419  0.0974 -1.6101 -0.0176
17124TIP3   OH272786   1.091   1.536   2.225 -0.0655  0.1311 -0.2123
17124TIP3    H172787   1.020   1.518   2.164 -1.5374  1.5762  1.0024
17124TIP3    H272788   1.115   1.451   2.262 -0.4283 -0.4975 -1.4244
17125TIP3   OH272789   2.144   2.033  15.128  0.0077  0.0631  1.3694
17125TIP3    H172790   2.227   2.007  15.088 -0.0552  1.4809  0.2473
17125TIP3    H272791   2.094   1.952  15.134  0.2845 -0.3180 -0.8619
17126TIP3   OH272792   3.182   0.974   1.209  0.8494 -0.0662 -0.0796
17126TIP3    H172793   3.169   0.891   1.254  0.4454 -0.1069 -0.2635
17126TIP3    H272794   3.220   1.032   1.275  1.3194 -0.4540 -0.0079
17127TIP3   OH272795   1.002   5.693   3.191  0.2997 -0.3309  0.6186
17127TIP3    H172796   0.931   5.748   3.223 -0.2875 -1.8205  1.9608
17127TIP3    H272797   1.014   5.720   3.100 -2.0242 -0.0691  0.3441
17128TIP3   OH272798   0.263   5.507  16.899  0.1367 -0.4300 -0.4920
17128TIP3    H172799   0.179   5.466  16.920  0.1721 -0.8678 -1.1558
17128TIP3    H272800   0.287   5.469  16.814  0.8587 -0.0828 -0.4500
17129TIP3   OH272801   4.423   0.852   1.107 -0.0339  1.0043 -0.0983
17129TIP3    H172802   4.343   0.846   1.055 -0.1300  0.4937  0.1092
17129TIP3    H272803   4.409   0.929   1.163 -0.5351  0.6934  0.2060
17130TIP3   OH272804   0.283   3.705  13.127  0.4387 -0.4275  0.5876
17130TIP3    H172805   0.252   3.711  13.218  1.9320 -1.0164  1.1462
17130TIP3    H272806   0.325   3.789  13.111 -2.2389  0.7645 -0.5001
17131TIP3   OH272807   1.761   6.065  14.945  0.9610  0.1309  0.1468
17131TIP3    H172808   1.813   6.124  14.999 -0.3441  0.7967  0.7120
17131TIP3    H272809   1.794   6.078  14.856  0.7025  1.7150  0.2653
17132TIP3   OH272810   3.926   6.619   4.694  0.7270  0.5679 -0.0803
17132TIP3    H172811   3.996   6.635   4.757  2.6315  0.6979 -2.1808
17132TIP3    H272812   3.938   6.528   4.666 -1.5324 -0.2317  1.4346
17133TIP3   OH272813   3.844   0.782   6.161  0.5092  0.2441  0.5022
17133TIP3    H172814   3.771   0.720   6.158 -0.4950  1.4968 -2.4945
17133TIP3    H272815   3.923   0.727   6.153 -0.3560 -0.6926 -1.9672
17134TIP3   OH272816   6.475   4.876   6.087  0.2949  0.1754  0.2289
17134TIP3    H172817   6.529   4.951   6.112  0.2386  0.1784  0.3434
17134TIP3    H272818   6.454   4.834   6.170 -2.4378  1.9111  0.4929
17135TIP3   OH272819   0.458   2.300  15.376 -0.8473 -0.8104 -0.0596
17135TIP3    H172820   0.373   2.266  15.347 -1.4743 -0.3922  1.2358
17135TIP3    H272821   0.489   2.236  15.440 -0.2154 -0.9303 -0.4894
17136TIP3   OH272822   3.986   2.059   2.458 -0.3875 -0.6062  0.2492
17136TIP3    H172823   4.049   2.092   2.521 -0.5201 -0.4891  0.3210
17136TIP3    H272824   4.037   2.003   2.399 -0.2816 -0.8013  0.5245
17137TIP3   OH272825   1.644   5.322  16.744  0.2264 -0.1513 -0.3157
17137TIP3    H172826   1.571   5.380  16.722 -0.8257 -1.7079 -1.0444
17137TIP3    H272827   1.624   5.240  16.698  1.7556 -1.0423  0.5602
17138TIP3   OH272828   6.022   5.563   2.862 -0.4333 -0.4635 -0.1776
17138TIP3    H172829   6.070   5.579   2.781  1.9567 -0.2279  1.2237
17138TIP3    H272830   5.960   5.494   2.840  0.2682 -0.4943 -2.1751
17139TIP3   OH272831   5.734   0.830   3.714  0.1747  0.7913 -0.6732
17139TIP3    H172832   5.775   0.877   3.786  2.0877 -0.8084 -0.6640
17139TIP3    H272833   5.805   0.776   3.677 -1.2927 -0.0507 -2.3498
17140TIP3   OH272834   1.756   0.773  12.067 -0.0311 -0.3576 -0.3355
17140TIP3    H172835   1.819   0.839  12.095  0.1091  0.0512 -1.5805
17140TIP3    H272836   1.671   0.814  12.080 -0.0346 -0.6585  0.6990
17141TIP3   OH272837   1.553   2.886  11.745 -0.6135  0.5858 -0.0561
17141TIP3    H172838   1.632   2.879  11.798 -0.2671 -1.9820 -0.8483
17141TIP3    H272839   1.582   2.929  11.664 -0.2989  0.7981  0.1676
17142TIP3   OH272840   0.604   4.347   3.285 -0.0225 -0.3181 -0.0092
17142TIP3    H172841   0.531   4.403   3.258 -0.0578 -1.5180 -2.6087
17142TIP3    H272842   0.562   4.264   3.309  0.3845 -0.6948 -0.5825
17143TIP3   OH272843   0.420   4.593   0.139  0.1151  0.3054 -0.0192
17143TIP3    H172844   0.403   4.645   0.218 -0.8934  0.9010 -0.6123
17143TIP3    H272845   0.504   4.625   0.107  0.1076  0.6826  0.3255
17144TIP3   OH272846   4.948   6.325  12.230  0.5858  0.3321 -0.4224
17144TIP3    H172847   5.036   6.321  12.191  1.2558  1.0287  0.9704
17144TIP3    H272848   4.954   6.394  12.296 -0.4096 -1.0191  1.1430
17145TIP3   OH272849   2.527   5.331   3.503  0.2133 -0.2342  0.4595
17145TIP3    H172850   2.598   5.274   3.475  1.6878  1.3439  0.9040
17145TIP3    H272851   2.447   5.287   3.474  1.3832 -1.8744 -0.3089
17146TIP3   OH272852   6.652   2.625   3.885 -0.2284 -0.2987  0.9580
17146TIP3    H172853   6.585   2.573   3.930  0.4021  0.8980  3.4113
17146TIP3    H272854   6.656   2.706   3.936  2.4893 -0.0142  0.3353
17147TIP3   OH272855   4.528   5.134  16.106  0.7702 -0.3511 -0.6998
17147TIP3    H172856   4.622   5.138  16.122  0.4833  0.6131  0.7736
17147TIP3    H272857   4.500   5.053  16.149  0.2770  1.4002  2.4125
17148TIP3   OH272858   0.771   5.374  16.728  1.1509  0.1226 -0.2058
17148TIP3    H172859   0.720   5.447  16.694 -1.6075 -1.6718 -0.1258
17148TIP3    H272860   0.792   5.399  16.818 -0.0953  0.6899 -0.0568
17149TIP3   OH272861   1.242   6.387  12.380 -0.0454  0.2256 -0.0652
17149TIP3    H172862   1.206   6.458  12.329 -0.3213  0.4877  0.4857
17149TIP3    H272863   1.289   6.430  12.451  0.7936 -0.1242 -0.4043
17150TIP3   OH272864   2.085   5.504   2.747 -0.2869  0.2839  0.1548
17150TIP3    H172865   2.040   5.439   2.693 -1.0407  2.4159 -1.8697
17150TIP3    H272866   2.176   5.503   2.716 -0.3134  0.2633  0.0787
17151TIP3   OH272867   1.875   5.535   0.366  0.0873 -0.5172  0.1356
17151TIP3    H172868   1.945   5.473   0.345  0.6584  0.5543 -1.2000
17151TIP3    H272869   1.916   5.598   0.426  0.4537  0.4773 -1.1523
17152TIP3   OH272870   1.937   1.219  16.135  0.1062 -0.5308 -0.4675
17152TIP3    H172871   1.951   1.256  16.222  0.2492  0.4839 -0.9207
17152TIP3    H272872   1.892   1.136  16.151 -3.1891  1.3265  0.3797
17153TIP3   OH272873   4.586   0.610  13.330 -0.5813  0.6456  0.8598
17153TIP3    H172874   4.671   0.620  13.287 -0.9542 -0.3954 -0.1375
17153TIP3    H272875   4.607   0.570  13.415 -0.0778  0.3723  0.6092
17154TIP3   OH272876   3.865   1.783   1.280 -0.1750  0.6574 -0.9677
17154TIP3    H172877   3.886   1.836   1.357  0.7113  1.7770 -1.9609
17154TIP3    H272878   3.896   1.695   1.302 -0.1967  0.9014  0.0638
17155TIP3   OH272879   3.877   5.637  11.206 -0.3271  0.5619  0.1670
17155TIP3    H172880   3.787   5.638  11.172 -0.4833 -1.1523  0.4904
17155TIP3    H272881   3.867   5.617  11.299  0.3960  0.4350  0.2167
17156TIP3   OH272882   1.354   2.350  13.571  0.0582  0.2551  0.1045
17156TIP3    H172883   1.357   2.277  13.509  1.2118 -0.2367  0.7280
17156TIP3    H272884   1.425   2.332  13.633  0.0842  1.6924  0.5045
17157TIP3   OH272885   6.442   1.584  13.532  0.2167 -0.2020 -0.0863
17157TIP3    H172886   6.353   1.593  13.498  0.3188 -3.1794 -1.3345
17157TIP3    H272887   6.498   1.587  13.455  0.8845 -1.7773  0.3098
17158TIP3   OH272888   4.059   4.695  13.964 -0.2644  0.4579 -0.2981
17158TIP3    H172889   4.125   4.756  13.997  0.4355  0.5399 -1.8004
17158TIP3    H272890   4.109   4.619  13.934 -1.2270 -1.4284  2.6960
17159TIP3   OH272891   5.114   5.833   1.656 -0.6694 -0.0509 -0.8707
17159TIP3    H172892   5.204   5.863   1.674 -1.0890  1.3465 -1.0552
17159TIP3    H272893   5.102   5.847   1.563 -0.7260 -1.2447 -1.0507
17160TIP3   OH272894   1.277   2.491   2.111 -0.3661 -0.1278 -0.1811
17160TIP3    H172895   1.368   2.502   2.138 -0.5431 -0.3124  0.5112
17160TIP3    H272896   1.226   2.527   2.184 -0.8539 -0.7254 -0.2180
17161TIP3   OH272897   1.322   1.189   6.092  0.8032 -0.4518  0.1647
17161TIP3    H172898   1.403   1.215   6.138  0.0128  0.5228  1.0469
17161TIP3    H272899   1.252   1.214   6.152 -0.2240  0.1103 -1.2377
17162TIP3   OH272900   4.757   1.883   4.473  0.9738  0.3541  0.4121
17162TIP3    H172901   4.758   1.976   4.492 -4.0249  0.1304  2.4723
17162TIP3    H272902   4.775   1.841   4.557 -0.6093 -0.5414  0.3206
17163TIP3   OH272903   3.904   4.277   6.113 -0.2189 -0.0199 -0.1629
17163TIP3    H172904   3.836   4.231   6.162  0.6605 -1.3443 -0.1641
17163TIP3    H272905   3.896   4.368   6.141 -1.6856 -0.2406  0.1876
17164TIP3   OH272906   0.645   4.461  13.210 -0.1512 -0.2516  0.5305
17164TIP3    H172907   0.718   4.481  13.268  1.0467 -0.1474 -0.9622
17164TIP3    H272908   0.673   4.383  13.162 -1.1541 -0.3977  0.1667
17165TIP3   OH272909   1.925   3.972   1.112 -0.0043 -0.0800 -0.0275
17165TIP3    H172910   1.851   3.911   1.119  1.0456 -1.4221 -0.5820
17165TIP3    H272911   1.911   4.033   1.185 -0.9620 -1.0910  0.6654
17166TIP3   OH272912   2.590   1.380   4.870 -0.0402 -0.1932  0.0066
17166TIP3    H172913   2.593   1.463   4.823  2.9311  1.2439  2.5275
17166TIP3    H272914   2.525   1.393   4.939 -2.7528 -1.5247 -2.2252
17167TIP3   OH272915   1.071   2.318  14.458  0.2615 -0.1545 -0.6440
17167TIP3    H172916   1.028   2.403  14.448 -0.0316 -0.0504  1.2438
17167TIP3    H272917   1.001   2.254  14.445  0.0863 -0.0560 -0.1908
17168TIP3   OH272918   2.161   3.942  16.484  0.2003  0.1134 -0.1459
17168TIP3    H172919   2.118   3.979  16.406  0.0447  0.2785  0.0152
17168TIP3    H272920   2.095   3.885  16.522  1.3013 -2.3249 -1.7862
17169TIP3   OH272921   5.466   1.988  15.562  0.0917  0.3916 -0.1131
17169TIP3    H172922   5.537   2.014  15.619  0.4895  0.1523 -0.4919
17169TIP3    H272923   5.425   2.070  15.535 -0.3890  0.4847  0.8706
17170TIP3   OH272924   3.090   4.094  14.189 -0.1308 -0.2586  0.2151
17170TIP3    H172925   3.183   4.083  14.166 -0.2114 -1.1859  0.3129
17170TIP3    H272926   3.043   4.042  14.123 -0.6655  1.2528 -0.6269
17171TIP3   OH272927   2.364   1.362   4.352  0.3467  0.3806  0.7231
17171TIP3    H172928   2.394   1.393   4.267  1.4510 -3.0251 -0.2278
17171TIP3    H272929   2.443   1.363   4.407  0.4068 -0.6460  0.6728
17172TIP3   OH272930   0.746   4.167   2.231  0.5194  0.2320  0.6065
17172TIP3    H172931   0.725   4.127   2.316  1.6513 -1.3273  0.1720
17172TIP3    H272932   0.674   4.140   2.174  0.6272 -0.1340  0.6416
17173TIP3   OH272933   0.897   3.684   4.717  0.4733 -0.0644  0.3040
17173TIP3    H172934   0.832   3.699   4.649 -0.0097 -1.9066  0.3195
17173TIP3    H272935   0.867   3.737   4.791  0.9734  1.8933 -0.8788
17174TIP3   OH272936   1.949   3.004   1.848 -0.7132 -0.2865  0.5255
17174TIP3    H172937   1.883   2.935   1.843 -0.4466 -0.4778 -0.6285
17174TIP3    H272938   1.913   3.068   1.908 -1.1300 -1.2615  1.3224
17175TIP3   OH272939   6.006   6.786   1.735 -0.0050 -0.6809  0.2683
17175TIP3    H172940   6.059   6.708   1.752 -1.6272 -1.4037  2.1862
17175TIP3    H272941   5.922   6.767   1.776 -0.5972  1.8830  0.2877
17176TIP3   OH272942   0.998   0.051   1.670 -0.2818 -0.1704 -0.4214
17176TIP3    H172943   1.001  -0.040   1.642 -1.0338 -0.3623  0.1012
17176TIP3    H272944   1.021   0.049   1.763 -0.8459  0.1002 -0.2705
17177TIP3   OH272945   1.204   2.816  16.973 -0.3043 -0.2918 -0.3285
17177TIP3    H172946   1.153   2.848  16.899  0.1086  0.4228 -0.3153
17177TIP3    H272947   1.233   2.896  17.018 -1.4285 -0.7107  1.2149
17178TIP3   OH272948   4.285   6.039  13.179  0.3191  0.0160 -0.0867
17178TIP3    H172949   4.380   6.048  13.191  0.2431  0.0202  0.4993
17178TIP3    H272950   4.268   5.945  13.193  0.2706 -0.0315 -0.4461
17179TIP3   OH272951   4.518   0.344   5.686  0.7331 -0.2339  0.1229
17179TIP3    H172952   4.555   0.268   5.641  0.2439 -0.1429 -0.4461
17179TIP3    H272953   4.494   0.404   5.615  0.9437  0.3744  0.5570
17180TIP3   OH272954   0.744   2.624   2.039  0.0901  0.2643  0.4459
17180TIP3    H172955   0.654   2.599   2.017  0.1766 -0.6445  1.0799
17180TIP3    H272956   0.743   2.720   2.041 -1.3016  0.2386  2.2118
17181TIP3   OH272957   1.390   0.668   3.184 -0.4783  0.2434 -0.5258
17181TIP3    H172958   1.395   0.594   3.123  1.5695 -1.1734  1.2885
17181TIP3    H272959   1.437   0.739   3.139  0.7761 -0.7049 -0.7527
17182TIP3   OH272960   6.009   5.651   1.688 -0.0105  0.4637 -0.3270
17182TIP3    H172961   5.954   5.599   1.628  1.5337 -1.1052 -0.4050
17182TIP3    H272962   6.005   5.604   1.771  0.9358  0.5366 -0.2347
17183TIP3   OH272963   5.294   0.337  13.298 -0.0876 -0.4752 -0.2046
17183TIP3    H172964   5.352   0.280  13.246 -0.7937 -1.3251 -0.0757
17183TIP3    H272965   5.325   0.326  13.388  0.3324  0.0276 -0.2843
17184TIP3   OH272966   3.784   2.043  13.914 -1.0133 -0.5389 -0.8986
17184TIP3    H172967   3.873   2.037  13.882 -1.3210  1.1996 -2.1094
17184TIP3    H272968   3.777   2.130  13.953 -1.7033 -1.2806  0.7347
17185TIP3   OH272969   2.039   3.237   2.436  0.1989  0.1024 -0.4251
17185TIP3    H172970   2.055   3.157   2.486  0.2225 -0.8214 -1.8975
17185TIP3    H272971   2.108   3.239   2.370 -1.5233 -0.2328 -2.2925
17186TIP3   OH272972   5.553   2.474   1.235  0.2995  0.0822  0.2043
17186TIP3    H172973   5.544   2.536   1.308 -1.1573 -0.4332  0.4639
17186TIP3    H272974   5.494   2.402   1.256  1.0089 -0.7931 -0.7441
17187TIP3   OH272975   5.940   6.715  16.051  0.8557 -0.2923  0.4313
17187TIP3    H172976   5.879   6.780  16.086  0.5351  0.3214 -1.2139
17187TIP3    H272977   5.890   6.667  15.986  1.7127 -0.7493  0.0975
17188TIP3   OH272978   5.717   1.336  17.237  0.1204 -0.1558 -0.0799
17188TIP3    H172979   5.756   1.306  17.319 -0.7368  1.6204  1.0082
17188TIP3    H272980   5.697   1.256  17.189  0.6467 -1.2080  1.4326
17189TIP3   OH272981   3.294   1.724  11.549  0.3232  0.2106  0.1105
17189TIP3    H172982   3.365   1.734  11.612  1.5840 -1.4712 -0.9764
17189TIP3    H272983   3.264   1.813  11.532  0.5832  0.7615  2.3615
17190TIP3   OH272984   5.551   4.173  14.043 -0.4361 -0.2735 -0.3886
17190TIP3    H172985   5.606   4.229  13.988 -0.8544 -0.5003 -1.0455
17190TIP3    H272986   5.597   4.089  14.044 -0.2662 -0.1776 -0.1331
17191TIP3   OH272987   5.193   1.660  16.562 -0.1157 -0.1736  0.0743
17191TIP3    H172988   5.126   1.716  16.601  0.4359  0.0512  0.7053
17191TIP3    H272989   5.272   1.677  16.614  0.1420 -1.2840  0.0553
17192TIP3   OH272990   2.540   1.674   2.630 -0.4516 -0.6185 -0.1277
17192TIP3    H172991   2.553   1.647   2.721 -0.4113  0.2961  0.1373
17192TIP3    H272992   2.456   1.719   2.630  0.1286  0.4768 -0.2978
17193TIP3   OH272993   2.309   6.074  16.395 -0.0800  0.2241  0.1627
17193TIP3    H172994   2.229   6.113  16.361 -0.1995 -0.5194 -0.4249
17193TIP3    H272995   2.341   6.138  16.459 -0.1697  1.3631 -0.9024
17194TIP3   OH272996   6.080   5.518   3.543  0.0613  0.5400  0.4186
17194TIP3    H172997   6.159   5.571   3.534 -0.7149  2.3427  3.4792
17194TIP3    H272998   6.101   5.436   3.498  2.9727  1.6743 -0.4124
17195TIP3   OH272999   6.130   4.182   5.738  0.3031 -0.4820  0.3247
17195TIP3    H173000   6.042   4.220   5.746  1.4570  2.5147 -0.5611
17195TIP3    H273001   6.117   4.089   5.752 -3.2379 -0.2920 -1.1898
17196TIP3   OH273002   4.451   6.089   5.955 -0.1164  0.2722  0.1684
17196TIP3    H173003   4.463   6.126   6.043  0.5604 -0.2601  0.3016
17196TIP3    H273004   4.380   6.141   5.917  1.4548  2.3320 -0.0025
17197TIP3   OH273005   6.588   3.458  14.625 -0.3162  0.2920  0.2885
17197TIP3    H173006   6.637   3.492  14.549 -0.1934 -0.9913 -0.2227
17197TIP3    H273007   6.593   3.363  14.616 -1.0808  0.1342  1.4233
17198TIP3   OH273008   3.751   5.455   2.113  0.5711 -0.0205  0.0969
17198TIP3    H173009   3.777   5.442   2.204 -0.4857  0.0751  0.4155
17198TIP3    H273010   3.761   5.369   2.073  0.1646 -0.2681  0.5251
17199TIP3   OH273011   6.489   2.348  14.168  0.9000  0.5124 -0.5927
17199TIP3    H173012   6.520   2.376  14.254  0.4702 -0.1838 -0.2068
17199TIP3    H273013   6.512   2.420  14.110  2.5286  0.3590 -0.1686
17200TIP3   OH273014   3.609   4.745   3.297  0.1193 -0.2262  0.2055
17200TIP3    H173015   3.616   4.839   3.310 -1.5200 -0.4343  2.9040
17200TIP3    H273016   3.543   4.736   3.228 -0.0966  0.5778  0.2991
17201TIP3   OH273017   0.503   5.187   5.756  0.4071 -0.1046  0.7772
17201TIP3    H173018   0.465   5.107   5.718 -0.8820  0.7037  0.3517
17201TIP3    H273019   0.592   5.189   5.721 -0.1890 -0.3120 -0.8038
17202TIP3   OH273020   6.732   4.401   5.010  0.3553 -0.0386  0.1396
17202TIP3    H173021   6.713   4.407   5.104 -0.5127 -0.6946  0.0096
17202TIP3    H273022   6.812   4.348   5.005  0.6162  0.3120  0.5208
17203TIP3   OH273023   1.325   0.719   6.076  0.3409  0.5671 -0.0427
17203TIP3    H173024   1.291   0.808   6.067  0.3019  0.4620 -1.0427
17203TIP3    H273025   1.253   0.669   6.115 -0.6834  0.3523 -2.1026
17204TIP3   OH273026   6.531   1.396  12.637  0.1376  0.2576 -0.0762
17204TIP3    H173027   6.480   1.434  12.709 -2.3029 -0.3872 -1.3952
17204TIP3    H273028   6.597   1.463  12.617  0.1468  0.9083  2.0121
17205TIP3   OH273029   5.248   1.310   2.162  0.7891  0.3985  0.1226
17205TIP3    H173030   5.216   1.224   2.135 -0.5678  0.9488 -0.0547
17205TIP3    H273031   5.293   1.294   2.245 -2.2564  0.0113  1.7548
17206TIP3   OH273032   3.005   4.591   1.020 -0.0223  0.0965 -0.3375
17206TIP3    H173033   2.928   4.639   0.990 -0.2127 -0.2827 -0.4618
17206TIP3    H273034   2.996   4.588   1.115  0.8018  1.6742 -0.1891
17207TIP3   OH273035   0.454   2.825  13.233  0.1441  0.3162 -0.1446
17207TIP3    H173036   0.549   2.834  13.244  0.3952  0.3543 -2.1211
17207TIP3    H273037   0.428   2.905  13.187 -1.0571  0.8785  1.4713
17208TIP3   OH273038   3.655   5.545   3.619 -0.0093 -0.2586  0.0587
17208TIP3    H173039   3.725   5.510   3.565  1.4525  0.9209  1.1757
17208TIP3    H273040   3.624   5.622   3.571  2.3059  1.6760  1.6000
17209TIP3   OH273041   6.390   1.619   2.006  0.3465  0.0828  0.5148
17209TIP3    H173042   6.341   1.576   1.936 -1.5076  2.4658  0.2597
17209TIP3    H273043   6.374   1.565   2.083  0.2078 -1.1055 -0.3328
17210TIP3   OH273044   0.451   3.952   1.194  0.3065 -0.2214  0.3646
17210TIP3    H173045   0.478   4.017   1.130 -0.0409  0.1378  0.5761
17210TIP3    H273046   0.528   3.898   1.208 -0.7276 -2.7569 -3.2556
17211TIP3   OH273047   2.878   5.195   5.103 -0.3502  0.7875 -0.3698
17211TIP3    H173048   2.862   5.289   5.095  1.2096  1.0292 -0.7667
17211TIP3    H273049   2.930   5.173   5.026 -0.4763 -0.3673 -0.1437
17212TIP3   OH273050   4.882   0.423  13.763  0.1233 -0.4554 -0.3990
17212TIP3    H173051   4.978   0.431  13.757  0.0398  0.5269 -0.5316
17212TIP3    H273052   4.852   0.424  13.673 -0.2157  2.1672 -0.3077
17213TIP3   OH273053   3.156   2.135  15.091  0.1945  0.1014  0.4624
17213TIP3    H173054   3.250   2.146  15.075  0.2412  1.8242  1.7661
17213TIP3    H273055   3.152   2.082  15.171  0.0578  0.4118  0.6616
17214TIP3   OH273056   6.050   0.613  16.859  0.2218  0.6086  0.3421
17214TIP3    H173057   5.957   0.605  16.837  0.1183  0.6418  0.7747
17214TIP3    H273058   6.064   0.551  16.930  1.2106 -1.6669 -1.7744
17215TIP3   OH273059   6.444   0.446  16.692 -0.0677 -0.5708  0.1481
17215TIP3    H173060   6.386   0.491  16.631 -0.3602 -0.2687  0.6377
17215TIP3    H273061   6.385   0.413  16.760  0.4375  0.5510  1.1391
17216TIP3   OH273062   0.121   2.341  14.982 -0.0755 -0.1367 -0.0157
17216TIP3    H173063   0.051   2.284  15.014 -0.9928 -0.3419 -2.2507
17216TIP3    H273064   0.076   2.400  14.921  1.6021  0.1437 -0.9986
17217TIP3   OH273065   2.666   5.834   5.974  0.9374  0.4122 -0.0464
17217TIP3    H173066   2.733   5.786   5.925  0.1799 -0.0779 -0.6109
17217TIP3    H273067   2.619   5.766   6.022 -1.3155  0.3488 -2.2424
17218TIP3   OH273068   5.711   6.320  14.338  0.5941 -0.0068 -0.1269
17218TIP3    H173069   5.707   6.330  14.433 -1.5455  0.0138 -0.1939
17218TIP3    H273070   5.721   6.225  14.324 -1.5588 -0.3075  0.1130
17219TIP3   OH273071   0.744   6.202   2.473 -0.4003 -0.1573  0.3628
17219TIP3    H173072   0.768   6.291   2.449 -0.0441  0.0358  1.4089
17219TIP3    H273073   0.649   6.205   2.486 -0.7856 -0.5384 -2.1395
17220TIP3   OH273074   3.555   0.850  10.904  0.4362 -0.3329  0.2625
17220TIP3    H173075   3.613   0.918  10.939  0.1347 -0.5241  1.1624
17220TIP3    H273076   3.492   0.834  10.974 -0.5712 -0.2956 -0.6206
17221TIP3   OH273077   6.275   4.364  15.429 -0.8471  0.0275  0.0388
17221TIP3    H173078   6.339   4.402  15.488 -2.4415  1.2163  1.0639
17221TIP3    H273079   6.216   4.314  15.486 -0.4331 -1.6348 -0.9657
17222TIP3   OH273080   5.148   6.112   4.537  0.3531  0.5298 -0.6129
17222TIP3    H173081   5.074   6.117   4.597 -0.1131  1.3545 -1.2369
17222TIP3    H273082   5.115   6.064   4.462  0.7030  0.1736 -0.5386
17223TIP3   OH273083   5.694   6.521  13.409 -0.0664  0.1899  0.1781
17223TIP3    H173084   5.766   6.494  13.352  0.0715 -1.2308  0.9992
17223TIP3    H273085   5.666   6.440  13.453 -0.9578  1.0399  1.2118
17224TIP3   OH273086   3.729   5.292  11.902  0.3059 -0.0169 -0.4888
17224TIP3    H173087   3.808   5.345  11.918  1.3268 -1.5723 -0.1814
17224TIP3    H273088   3.736   5.220  11.966 -1.3128 -0.2316 -0.5368
17225TIP3   OH273089   3.144   5.677   5.878 -0.0162 -0.3777 -0.2709
17225TIP3    H173090   3.233   5.695   5.847 -0.2582  0.3956 -0.5281
17225TIP3    H273091   3.128   5.586   5.853  1.0831 -0.8459  0.6881
17226TIP3   OH273092   1.580   3.624   4.743  0.2003 -0.0391  0.0011
17226TIP3    H173093   1.503   3.567   4.750  1.1566 -1.3072  0.2857
17226TIP3    H273094   1.613   3.609   4.655 -0.3441  1.1288 -0.4122
17227TIP3   OH273095   2.929   5.796  16.797  0.0897  0.0640  0.5034
17227TIP3    H173096   2.937   5.834  16.710 -0.4591  1.0374  0.8656
17227TIP3    H273097   2.984   5.851  16.853 -1.0743  0.6344  1.1158
17228TIP3   OH273098   6.284   6.499   2.514 -0.3708 -0.4433 -0.2476
17228TIP3    H173099   6.315   6.497   2.424 -1.0138 -1.3546 -0.4497
17228TIP3    H273100   6.256   6.590   2.528 -0.4409 -0.3448 -1.0192
17229TIP3   OH273101   0.670   1.849   2.430 -0.7009  0.3421  0.0957
17229TIP3    H173102   0.757   1.860   2.469 -0.5577  1.4656 -0.5009
17229TIP3    H273103   0.671   1.761   2.392  0.5769  0.7376 -0.8444
17230TIP3   OH273104   0.750   2.067   1.207  0.1487 -0.1651 -0.1063
17230TIP3    H173105   0.693   2.050   1.282 -2.7155  2.2469 -1.6466
17230TIP3    H273106   0.787   1.982   1.185 -2.1985 -1.6336  1.4760
17231TIP3   OH273107   2.405   5.548   0.513  0.2667  0.2801  0.4590
17231TIP3    H173108   2.488   5.558   0.559  0.3106  2.3748 -0.0232
17231TIP3    H273109   2.404   5.618   0.449 -1.0135 -0.9379 -0.8996
17232TIP3   OH273110   4.668   4.099  13.196  0.1127 -0.2193  0.3537
17232TIP3    H173111   4.701   4.020  13.239  3.1521  0.2810 -0.9106
17232TIP3    H273112   4.701   4.093  13.106 -0.0484  2.2103  0.0936
17233TIP3   OH273113   3.210   3.276  14.852  0.0421  0.1939 -0.6317
17233TIP3    H173114   3.218   3.182  14.866  0.0711 -0.0103 -1.9216
17233TIP3    H273115   3.296   3.311  14.875  0.4967 -0.2885 -1.5550
17234TIP3   OH273116   4.639   1.660   3.708  0.4743  0.4905 -0.5766
17234TIP3    H173117   4.547   1.689   3.708 -0.4700 -2.2413  1.2682
17234TIP3    H273118   4.673   1.689   3.793  0.5491 -0.6298 -0.2115
17235TIP3   OH273119   1.854   1.097  11.519  0.2884  0.5156 -0.1328
17235TIP3    H173120   1.911   1.063  11.449 -0.1314  0.9759 -0.6980
17235TIP3    H273121   1.828   1.019  11.568  1.3015  0.2866  0.0474
17236TIP3   OH273122   1.453   0.418   6.246  1.0457 -0.4355 -0.3556
17236TIP3    H173123   1.485   0.411   6.156  1.4146 -1.1189 -0.1733
17236TIP3    H273124   1.363   0.383   6.242  1.0988 -0.5648 -0.4431
17237TIP3   OH273125   1.383   0.656  16.082  0.6932 -0.8306  0.0822
17237TIP3    H173126   1.308   0.679  16.137 -0.1566 -1.1242 -0.9396
17237TIP3    H273127   1.437   0.599  16.137  0.0669 -0.7783  0.7527
17238TIP3   OH273128   2.971   3.341   0.193  0.0547 -0.0729 -0.1129
17238TIP3    H173129   2.888   3.364   0.151 -0.1212 -2.5161 -1.1862
17238TIP3    H273130   2.991   3.416   0.250 -2.3668  0.9805 -0.5947
17239TIP3   OH273131   6.444   0.261  11.810 -0.0825 -0.0137  0.0196
17239TIP3    H173132   6.475   0.290  11.724  0.9052  0.7456  0.6210
17239TIP3    H273133   6.372   0.320  11.831  0.7078  0.8166  0.4116
17240TIP3   OH273134   6.278   2.364   2.685 -0.5746 -0.0158  0.0635
17240TIP3    H173135   6.332   2.300   2.731  2.2088  1.2597 -1.3265
17240TIP3    H273136   6.310   2.449   2.715 -1.9637  0.7618 -0.6113
17241TIP3   OH273137   3.225   2.763  10.894  0.4687  0.8846  0.1571
17241TIP3    H173138   3.313   2.781  10.862  0.4832  1.2846  0.4280
17241TIP3    H273139   3.208   2.831  10.959 -0.9882  2.3016 -1.6644
17242TIP3   OH273140   6.455   5.764   2.035 -0.2196 -0.3376  0.3623
17242TIP3    H173141   6.414   5.817   1.967  2.2835  0.7279 -0.3678
17242TIP3    H273142   6.439   5.673   2.008 -0.6841  0.0708 -0.7387
17243TIP3   OH273143   0.568   2.086  14.090  0.1494  0.3982 -0.5061
17243TIP3    H173144   0.625   2.039  14.152  1.2608  0.9916 -1.0581
17243TIP3    H273145   0.513   2.017  14.052 -0.1185 -0.0635  0.6746
17244TIP3   OH273146   6.740   0.509  17.158  0.4006 -0.5680 -0.4689
17244TIP3    H173147   6.653   0.469  17.168  0.8810 -1.4474  0.3531
17244TIP3    H273148   6.765   0.533  17.247  0.8499  0.0116 -0.7528
17245TIP3   OH273149   5.540   4.962   1.443  0.0677 -0.0317  0.0362
17245TIP3    H173150   5.505   5.040   1.487 -0.5572 -1.3690  2.0147
17245TIP3    H273151   5.471   4.896   1.453  1.1942 -1.2800 -0.2557
17246TIP3   OH273152   4.220   3.870   3.779 -0.2625  0.0638  0.5452
17246TIP3    H173153   4.258   3.938   3.723  0.9154 -0.1471  1.0745
17246TIP3    H273154   4.151   3.915   3.827  1.3563  1.2390  1.8392
17247TIP3   OH273155   0.599   2.337  16.462 -0.6167  0.3749 -0.6997
17247TIP3    H173156   0.638   2.406  16.516 -0.5381 -0.8376  0.8267
17247TIP3    H273157   0.506   2.360  16.458 -0.6697  0.3435  0.1814
17248TIP3   OH273158   3.163   4.916   3.873  0.2444 -0.4588  0.2147
17248TIP3    H173159   3.119   4.949   3.795 -0.2118  1.6993  1.3533
17248TIP3    H273160   3.236   4.977   3.887 -0.3670 -0.1202  2.1168
17249TIP3   OH273161   6.141   4.710  13.298 -0.4981 -0.1352 -0.3183
17249TIP3    H173162   6.140   4.805  13.314 -1.2255  0.0097 -1.1822
17249TIP3    H273163   6.050   4.684  13.307  0.1169 -1.3970  3.4971
17250TIP3   OH273164   3.757   2.321   0.230  0.2384  0.0231 -0.0792
17250TIP3    H173165   3.785   2.378   0.158  1.3815 -0.0263  0.3192
17250TIP3    H273166   3.797   2.236   0.211 -0.5920 -0.3728 -0.1053
17251TIP3   OH273167   1.271   0.784   3.399 -0.6366  0.7129 -0.3846
17251TIP3    H173168   1.206   0.813   3.335  0.0318 -1.7860 -2.2547
17251TIP3    H273169   1.322   0.717   3.353  1.2296  0.3689  2.0837
17252TIP3   OH273170   5.183   5.378   4.522  0.1819 -0.8461 -0.1213
17252TIP3    H173171   5.178   5.446   4.590  1.0524 -2.6520  1.8045
17252TIP3    H273172   5.105   5.324   4.537 -0.7158 -0.0929 -1.8903
17253TIP3   OH273173   4.220   1.211  12.431 -0.6423 -0.6178 -0.4597
17253TIP3    H173174   4.195   1.129  12.473 -0.4594 -0.7771 -0.6609
17253TIP3    H273175   4.314   1.220  12.450 -0.4358 -0.9615 -1.2859
17254TIP3   OH273176   5.646   3.894   2.445 -0.1775  0.4812 -0.9095
17254TIP3    H173177   5.570   3.910   2.389 -0.9367 -0.7538 -0.2543
17254TIP3    H273178   5.653   3.973   2.499 -2.6673 -0.4541  0.9082
17255TIP3   OH273179   1.790   0.662  16.294 -0.4129  0.3155 -0.4296
17255TIP3    H173180   1.720   0.616  16.246  0.3607 -0.1050 -1.1815
17255TIP3    H273181   1.801   0.611  16.374 -1.7115  1.0143  0.2033
17256TIP3   OH273182   2.825   4.771  15.079 -0.2864  0.1251 -0.5203
17256TIP3    H173183   2.747   4.795  15.030 -0.2516  0.8374 -0.2311
17256TIP3    H273184   2.801   4.691  15.126 -1.2159  0.9901  0.4882
17257TIP3   OH273185   1.969   0.516   4.106 -0.4721  0.2409 -0.4508
17257TIP3    H173186   1.925   0.572   4.043 -0.1296  0.8363 -0.1702
17257TIP3    H273187   1.906   0.505   4.177 -0.0663  1.3355  0.0882
17258TIP3   OH273188   1.000   1.418  17.014 -0.1411 -0.1722 -0.3536
17258TIP3    H173189   1.059   1.360  17.061 -2.1991 -2.0242  0.0472
17258TIP3    H273190   1.057   1.472  16.959  1.9809 -0.9404  1.0365
17259TIP3   OH273191   4.626   3.257  15.358  0.3820 -0.5050 -0.1621
17259TIP3    H173192   4.618   3.167  15.327 -1.7921 -0.2275 -0.5352
17259TIP3    H273193   4.719   3.278  15.351  0.7312 -2.3368 -1.1524
17260TIP3   OH273194   5.928   0.972   4.769  0.0979 -0.1655  0.3944
17260TIP3    H173195   5.942   1.009   4.682  1.5227 -0.2125  0.5935
17260TIP3    H273196   5.862   0.905   4.757  0.2593 -0.1385 -0.6430
17261TIP3   OH273197   5.413   5.796  16.494  0.3198  0.1437  0.4092
17261TIP3    H173198   5.480   5.770  16.431  0.9820 -0.8523  1.5003
17261TIP3    H273199   5.433   5.744  16.572  0.2586  2.2482  1.8577
17262TIP3   OH273200   0.705   1.711  13.842 -0.5705  0.7757 -1.0043
17262TIP3    H173201   0.726   1.799  13.813  1.0730  0.4408 -0.8850
17262TIP3    H273202   0.610   1.711  13.852 -0.7508  2.0527 -2.5242
17263TIP3   OH273203   4.618   1.331  14.076  0.2729 -0.0824 -0.4059
17263TIP3    H173204   4.614   1.361  13.985 -0.4713  0.5805 -0.1613
17263TIP3    H273205   4.708   1.302  14.087  0.8182  1.3666 -0.8787
17264TIP3   OH273206   0.224   0.661  16.343 -0.0109  0.0678 -0.5495
17264TIP3    H173207   0.185   0.578  16.368 -0.5391 -0.1203 -2.0012
17264TIP3    H273208   0.243   0.705  16.427 -2.0975 -0.3985  0.1778
17265TIP3   OH273209   6.206   4.981  15.510 -0.0029 -0.0753  0.3763
17265TIP3    H173210   6.138   4.968  15.576 -1.5697 -1.9641 -1.5043
17265TIP3    H273211   6.166   5.039  15.445  0.5550 -0.3505 -0.2254
17266TIP3   OH273212   5.631   4.675  11.593 -0.6950  0.3938  0.1452
17266TIP3    H173213   5.674   4.676  11.679  0.3260  1.6649 -0.3592
17266TIP3    H273214   5.701   4.697  11.531 -1.2650 -1.2359 -1.0885
17267TIP3   OH273215   2.658   6.003  14.197 -0.5625  0.1377  0.6140
17267TIP3    H173216   2.590   6.012  14.130 -1.2550 -2.3536  0.9276
17267TIP3    H273217   2.627   6.057  14.269 -1.9025 -0.4244  0.4858
17268TIP3   OH273218   1.318   0.906  16.927 -0.3169  0.9540  0.1238
17268TIP3    H173219   1.289   0.996  16.915 -2.0135  0.8655  3.1639
17268TIP3    H273220   1.273   0.876  17.005  2.0368 -1.7845  0.5244
17269TIP3   OH273221   2.664   2.211   3.959  0.3479 -0.6254 -0.4237
17269TIP3    H173222   2.570   2.201   3.946  0.0823  0.0223  0.8366
17269TIP3    H273223   2.672   2.284   4.021  1.5225 -2.4091  1.6460
17270TIP3   OH273224   6.274   1.275   1.570 -0.0677  0.0041  0.8426
17270TIP3    H173225   6.187   1.266   1.532 -0.0233  0.6226  0.5827
17270TIP3    H273226   6.277   1.366   1.601  0.6628  0.1459  0.3812
17271TIP3   OH273227   0.731   1.203   4.462  0.3942 -0.4196 -0.1888
17271TIP3    H173228   0.804   1.264   4.467  0.2318 -0.2844  0.7075
17271TIP3    H273229   0.654   1.256   4.483  0.2571 -0.9310  0.6403
17272TIP3   OH273230   0.227   2.811  13.020 -0.5269 -0.2202  0.3606
17272TIP3    H173231   0.225   2.875  12.948  0.8543 -0.3510  0.2009
17272TIP3    H273232   0.263   2.732  12.981 -1.0187 -0.7051  0.8824
17273TIP3   OH273233   4.549   0.281  15.661  0.0181 -0.1560 -0.2487
17273TIP3    H173234   4.573   0.335  15.736  1.0820 -0.9494  0.0027
17273TIP3    H273235   4.551   0.341  15.586 -0.3915  0.4937  0.2588
17274TIP3   OH273236   1.517   5.546   3.280 -0.4405  0.3111  0.5414
17274TIP3    H173237   1.469   5.625   3.307  2.5666  2.3135  0.3092
17274TIP3    H273238   1.538   5.562   3.188 -0.3301 -1.0494  0.3244
17275TIP3   OH273239   4.750   5.352   5.860 -0.3772 -0.4732 -0.0936
17275TIP3    H173240   4.840   5.386   5.857 -0.9164  0.9339 -0.5812
17275TIP3    H273241   4.746   5.304   5.943  0.4024  0.6818  0.6420
17276TIP3   OH273242   4.136   2.523   0.881  0.8233  0.4240  0.1437
17276TIP3    H173243   4.095   2.560   0.958  2.4441  0.1135  1.1868
17276TIP3    H273244   4.206   2.584   0.859  1.0918 -0.0665 -0.3917
17277TIP3   OH273245   1.505   2.032  12.216  0.1673 -0.3243 -0.2509
17277TIP3    H173246   1.515   2.050  12.309 -0.4307 -0.1822 -0.2136
17277TIP3    H273247   1.575   2.083  12.174  0.3956 -0.3398  0.1115
17278TIP3   OH273248   0.148   6.093   0.195  0.7753 -0.3063  0.1427
17278TIP3    H173249   0.168   6.186   0.209  0.3765 -0.2949  0.6500
17278TIP3    H273250   0.069   6.078   0.246  0.7092 -0.8742 -0.1259
17279TIP3   OH273251   2.125   6.683  15.912  0.2747 -0.6258 -0.2058
17279TIP3    H173252   2.171   6.701  15.830 -0.4064 -1.7908 -0.8543
17279TIP3    H273253   2.073   6.605  15.894 -0.6522 -0.3087  1.0369
17280TIP3   OH273254   6.424   5.763  14.174 -0.2333 -0.1717 -0.4100
17280TIP3    H173255   6.426   5.716  14.090 -1.2129 -0.5718 -0.2124
17280TIP3    H273256   6.492   5.721  14.227  1.7251  1.3226 -1.6435
17281TIP3   OH273257   1.468   2.706  15.853  0.0082 -0.0450  0.5378
17281TIP3    H173258   1.461   2.616  15.822  0.8816  0.4167 -1.0670
17281TIP3    H273259   1.489   2.698  15.946  0.8850 -1.5090  0.2210
17282TIP3   OH273260   2.989   1.188   1.088 -0.2684  0.2206 -0.3672
17282TIP3    H173261   2.943   1.175   1.170 -0.6683  2.3069 -0.2231
17282TIP3    H273262   3.071   1.139   1.097  0.7354  2.2650  2.1977
17283TIP3   OH273263   3.082   2.144   5.927 -0.0097  0.2232  0.1019
17283TIP3    H173264   3.101   2.233   5.958 -1.1870  0.4948  0.0749
17283TIP3    H273265   3.019   2.157   5.856 -0.4047 -0.6463  0.2855
17284TIP3   OH273266   6.479   5.056  12.128 -0.0432  0.1163 -0.4164
17284TIP3    H173267   6.502   4.980  12.182 -0.6897 -1.3521 -2.1590
17284TIP3    H273268   6.387   5.072  12.146 -0.2098 -0.2560 -0.9186
17285TIP3   OH273269   3.801   4.860   3.002 -0.1909 -0.3498  0.3208
17285TIP3    H173270   3.848   4.857   3.086  0.5932 -1.0849 -0.1481
17285TIP3    H273271   3.869   4.861   2.936 -0.7846 -4.2526 -0.4747
17286TIP3   OH273272   1.940   4.069   5.480 -0.4797 -0.2706 -0.2458
17286TIP3    H173273   1.938   3.974   5.490  0.3214 -0.2488  0.0991
17286TIP3    H273274   1.929   4.083   5.386 -3.9355 -0.5927  0.0367
17287TIP3   OH273275   3.324   2.921  15.634  0.1115  0.2827 -0.5583
17287TIP3    H173276   3.231   2.934  15.616 -0.5323 -0.1545  2.1757
17287TIP3    H273277   3.348   2.844  15.583 -1.3392 -0.3071 -0.3798
17288TIP3   OH273278   0.562   1.520  14.603 -0.0892  0.1428 -0.6300
17288TIP3    H173279   0.655   1.512  14.585 -0.1867  0.3918 -1.2689
17288TIP3    H273280   0.528   1.430  14.596  0.1202  0.0325 -0.2623
17289TIP3   OH273281   6.190   5.794  16.245 -0.1324  0.1125  0.4892
17289TIP3    H173282   6.155   5.750  16.322 -0.2860 -1.2721 -0.3531
17289TIP3    H273283   6.184   5.887  16.266  0.1851 -0.2547  2.2984
17290TIP3   OH273284   5.068   5.449   6.251 -0.0248 -0.0227 -0.5209
17290TIP3    H173285   4.996   5.458   6.313  0.3733 -0.0113 -0.0525
17290TIP3    H273286   5.139   5.500   6.290  0.5462 -0.8194 -0.4960
17291TIP3   OH273287   5.983   1.600  11.921 -0.1978 -0.2412 -0.4749
17291TIP3    H173288   5.997   1.604  12.016 -1.1669 -0.6996 -0.3104
17291TIP3    H273289   5.938   1.516  11.907 -0.2476 -0.0761 -1.3133
17292TIP3   OH273290   0.325   6.370  11.592 -0.1906 -0.5909 -0.0644
17292TIP3    H173291   0.254   6.317  11.628  0.2983 -0.8375  0.5443
17292TIP3    H273292   0.403   6.315  11.603 -0.0223 -0.6154 -1.3889
17293TIP3   OH273293   4.798   5.003   3.935 -0.2562  0.5435 -0.3299
17293TIP3    H173294   4.723   4.952   3.965  0.0428 -0.3982 -1.1276
17293TIP3    H273295   4.761   5.067   3.874 -0.4605  0.3576 -0.3997
17294TIP3   OH273296   4.333   0.904   5.178 -0.1155 -0.1342  0.0908
17294TIP3    H173297   4.425   0.928   5.170 -0.0908 -0.1464  0.3425
17294TIP3    H273298   4.327   0.858   5.262 -0.2437 -0.6516 -0.2061
17295TIP3   OH273299   1.370   0.228   0.713 -0.1873  0.8143  0.1353
17295TIP3    H173300   1.374   0.180   0.630 -1.2195 -0.9617  1.0747
17295TIP3    H273301   1.283   0.266   0.716  0.3952  2.1943 -0.2969
17296TIP3   OH273302   4.326   5.028   5.226 -0.4516  0.2840 -0.2747
17296TIP3    H173303   4.268   5.018   5.151 -0.7008 -2.4760  0.2287
17296TIP3    H273304   4.303   4.955   5.284  2.2241  0.2397  0.8092
17297TIP3   OH273305   5.332   5.414  12.864 -0.1238  0.6985  0.3348
17297TIP3    H173306   5.329   5.474  12.789 -1.1513  0.1828 -0.0435
17297TIP3    H273307   5.241   5.390  12.880  0.1216  0.5653  1.5628
17298TIP3   OH273308   3.987   4.043   6.418 -0.0199 -0.1927  0.2999
17298TIP3    H173309   3.969   4.105   6.489 -0.2161 -1.8535  1.7576
17298TIP3    H273310   4.079   4.060   6.394 -0.3713  1.3151 -0.0200
17299TIP3   OH273311   3.970   2.161  16.120  0.3752  0.1554  0.1796
17299TIP3    H173312   4.005   2.202  16.040  0.2567 -0.1722 -0.0406
17299TIP3    H273313   4.000   2.070  16.115 -0.5165 -0.1238 -0.0124
17300TIP3   OH273314   2.849   4.987   5.278 -0.9838 -0.1262  0.1674
17300TIP3    H173315   2.872   5.058   5.218  1.6008  0.9959  2.3739
17300TIP3    H273316   2.763   5.010   5.312 -1.7191  0.0913 -1.8022
17301TIP3   OH273317   4.981   3.387  11.028 -0.1366 -0.3403  0.2004
17301TIP3    H173318   5.011   3.456  10.969  0.1904  0.9285  1.8330
17301TIP3    H273319   5.040   3.313  11.010  0.3176  0.2230 -0.6531
17302TIP3   OH273320   0.322   6.633  16.561 -0.1556 -0.4056 -0.0029
17302TIP3    H173321   0.400   6.581  16.543 -1.3955 -2.5139  0.4769
17302TIP3    H273322   0.302   6.615  16.654 -2.5356 -1.8385 -0.7240
17303TIP3   OH273323   2.317   5.022  13.451 -0.2918  0.7422  0.2979
17303TIP3    H173324   2.321   4.927  13.456  1.3984  0.6702 -1.9049
17303TIP3    H273325   2.224   5.043  13.467 -1.1836 -1.4596 -1.7745
17304TIP3   OH273326   6.606   3.169   2.332  0.0681 -0.2672 -0.3205
17304TIP3    H173327   6.530   3.122   2.299  0.2487 -1.7408  1.2916
17304TIP3    H273328   6.588   3.182   2.425  1.6647 -0.4154  0.0277
17305TIP3   OH273329   1.741   5.088   2.125  0.2654  0.1186  0.0508
17305TIP3    H173330   1.720   5.159   2.185 -0.1062 -0.6454  0.8513
17305TIP3    H273331   1.836   5.092   2.114  0.1388  1.2831 -0.6096
17306TIP3   OH273332   6.666   1.074  13.711 -0.3344 -0.3256 -0.0120
17306TIP3    H173333   6.615   1.154  13.698  0.3528  0.2528  0.7906
17306TIP3    H273334   6.741   1.084  13.652  0.8139  0.5754  1.5416
17307TIP3   OH273335   2.416   3.720  16.280  0.4445  0.5216  0.0283
17307TIP3    H173336   2.429   3.652  16.214  1.6488  1.0030 -0.2406
17307TIP3    H273337   2.452   3.799  16.241  1.3928  0.7671  1.3350
17308TIP3   OH273338   0.371   0.047  10.598 -0.8265  0.2841  0.0831
17308TIP3    H173339   0.297  -0.005  10.565 -0.2985  0.9536 -2.2246
17308TIP3    H273340   0.330   0.115  10.651 -1.7789 -0.2709  0.0713
17309TIP3   OH273341   2.923   0.432   3.708 -0.4416  0.4450  0.0206
17309TIP3    H173342   2.948   0.347   3.744  0.2867  0.3686 -0.6385
17309TIP3    H273343   2.979   0.495   3.753  0.3842  0.3620 -0.8710
17310TIP3   OH273344   6.370   0.977  14.584  0.0272  0.6286  0.4970
17310TIP3    H173345   6.437   0.942  14.643 -0.8371  0.9757  1.6866
17310TIP3    H273346   6.417   0.992  14.502  1.1377 -0.2658  0.9558
17311TIP3   OH273347   0.287   3.716   2.140 -0.1663 -0.0755 -0.6398
17311TIP3    H173348   0.361   3.680   2.091  0.3134  0.4406 -0.3065
17311TIP3    H273349   0.300   3.811   2.136 -0.5536 -0.0038 -0.1780
17312TIP3   OH273350   0.318   0.989  14.676 -0.1517 -0.5925 -0.5415
17312TIP3    H173351   0.242   1.009  14.623  0.5027 -0.4195 -1.4321
17312TIP3    H273352   0.371   0.931  14.621  0.3402 -0.7407  0.0809
17313TIP3   OH273353   2.566   0.390  16.649 -0.5309 -0.0893  0.1811
17313TIP3    H173354   2.629   0.328  16.686  0.2530  0.1493 -0.7251
17313TIP3    H273355   2.562   0.460  16.714  0.0374 -0.1792  0.3212
17314TIP3   OH273356   5.466   6.254   5.856 -0.0081 -0.1609  0.1260
17314TIP3    H173357   5.509   6.335   5.882 -0.6284 -0.4447  2.1064
17314TIP3    H273358   5.502   6.187   5.914 -0.2022 -1.1324 -0.8453
17315TIP3   OH273359   1.449   4.927   3.291  0.1306  0.8251 -0.0428
17315TIP3    H173360   1.521   4.984   3.263  1.4849 -1.3265 -1.1683
17315TIP3    H273361   1.477   4.894   3.376  0.6273 -0.1964 -0.5856
17316TIP3   OH273362   2.491   0.551   6.033 -0.0534 -0.2251 -0.4860
17316TIP3    H173363   2.580   0.521   6.015 -0.4024 -0.8537 -1.1943
17316TIP3    H273364   2.501   0.621   6.098  0.8307 -1.2582  0.4948
17317TIP3   OH273365   2.489   0.590  11.649  0.4405  0.7160  0.0055
17317TIP3    H173366   2.530   0.611  11.733  0.2293  0.3909  0.1897
17317TIP3    H273367   2.417   0.653  11.641 -0.6240 -0.3741  0.8814
17318TIP3   OH273368   5.061   6.766  10.900 -0.2787  0.1043 -0.1386
17318TIP3    H173369   5.143   6.776  10.948 -0.7586 -2.1598  1.2244
17318TIP3    H273370   5.081   6.702  10.832 -0.4182  1.0093 -1.0427
17319TIP3   OH273371   6.647   5.706  15.391  0.7912 -0.2850 -0.6551
17319TIP3    H173372   6.613   5.631  15.343  0.3886 -0.2845 -0.3648
17319TIP3    H273373   6.719   5.670  15.444  1.2270 -0.2889 -1.2423
17320TIP3   OH273374   0.175   3.710   0.704  0.1248  0.3412 -0.1514
17320TIP3    H173375   0.118   3.725   0.628  1.1234 -1.2151 -1.2583
17320TIP3    H273376   0.116   3.690   0.776 -0.7456 -2.0153 -1.4614
17321TIP3   OH273377   1.621   3.203  16.391  0.5561  0.1261 -0.6665
17321TIP3    H173378   1.716   3.190  16.395  0.4253 -1.0178 -0.8850
17321TIP3    H273379   1.586   3.152  16.464  0.0349 -0.5143 -1.3365
17322TIP3   OH273380   6.587   6.785   1.928 -0.2053  0.4258 -0.1446
17322TIP3    H173381   6.621   6.854   1.870  0.0267  0.2847 -0.1765
17322TIP3    H273382   6.640   6.708   1.907  0.8957  0.7750  1.3137
17323TIP3   OH273383   5.476   4.249  12.022  0.3238  0.1873 -0.2371
17323TIP3    H173384   5.401   4.266  12.080  1.0636  0.8247  0.5393
17323TIP3    H273385   5.506   4.336  11.995 -0.3074 -0.1085 -1.9854
17324TIP3   OH273386   2.294   0.503   5.239  0.8730 -0.1959 -0.3764
17324TIP3    H173387   2.206   0.511   5.276  1.1267 -1.2529  0.4948
17324TIP3    H273388   2.352   0.537   5.307  1.2682 -1.2834 -0.1511
17325TIP3   OH273389   3.136   6.497  11.784 -0.0777  0.6340 -0.1584
17325TIP3    H173390   3.192   6.545  11.845 -0.7605  0.4188  0.6453
17325TIP3    H273391   3.157   6.534  11.698  0.1633  1.6409  0.3260
17326TIP3   OH273392   5.778   2.719  15.219  0.1443 -0.1158 -0.0646
17326TIP3    H173393   5.719   2.784  15.181  0.1657  0.2283  0.4699
17326TIP3    H273394   5.819   2.676  15.144 -0.4797 -0.0751 -0.4342
17327TIP3   OH273395   3.790   4.167  12.296 -0.3215  0.2987  0.4619
17327TIP3    H173396   3.749   4.215  12.368 -2.7987 -3.6613  1.8478
17327TIP3    H273397   3.884   4.172  12.313 -0.7040  2.0763  2.1807
17328TIP3   OH273398   4.090   0.389  15.349  0.4820  0.0253  0.5305
17328TIP3    H173399   4.164   0.426  15.396  0.5747 -1.0219  1.2426
17328TIP3    H273400   4.014   0.434  15.386  0.6599  0.1034  0.8046
17329TIP3   OH273401   4.348   5.015   5.941 -0.3541 -0.4913  0.2208
17329TIP3    H173402   4.420   4.954   5.927 -0.3364 -0.2741 -0.6884
17329TIP3    H273403   4.381   5.098   5.905 -1.3721 -0.5999 -0.9888
17330TIP3   OH273404   1.724   4.852  14.135  0.5345  0.4848 -0.0207
17330TIP3    H173405   1.635   4.885  14.121 -0.0197 -0.7116  0.6012
17330TIP3    H273406   1.740   4.867  14.228  1.4425  1.7633 -0.3661
17331TIP3   OH273407   3.473   3.466  15.844  0.0666  0.0375  0.5241
17331TIP3    H173408   3.391   3.515  15.838  0.1825  0.2800  0.8818
17331TIP3    H273409   3.539   3.531  15.868  0.2519 -0.2596  0.8437
17332TIP3   OH273410   4.763   6.482   5.725 -0.0466 -0.1251  0.3246
17332TIP3    H173411   4.740   6.414   5.788 -1.5826 -0.3356 -0.4376
17332TIP3    H273412   4.852   6.509   5.750  0.5834 -2.3982  0.6389
17333TIP3   OH273413   1.177   2.644   4.993 -0.3456 -0.3461 -0.4022
17333TIP3    H173414   1.188   2.616   4.902  1.8577 -0.9268 -0.0006
17333TIP3    H273415   1.176   2.562   5.043  3.0404  0.0877  0.4867
17334TIP3   OH273416   4.952   2.754  15.171  0.1500 -0.4482  0.2511
17334TIP3    H173417   4.889   2.822  15.193 -0.7032 -1.2448  0.2795
17334TIP3    H273418   4.942   2.741  15.077  0.2565 -0.5827  0.2575
17335TIP3   OH273419   3.770   5.252   4.837  0.8221  0.1759  0.3215
17335TIP3    H173420   3.696   5.212   4.791  0.8976  0.6235 -0.1971
17335TIP3    H273421   3.843   5.247   4.775  1.1542 -0.0071  0.7235
17336TIP3   OH273422   3.064   5.780  12.491 -0.2462 -0.0593 -0.6020
17336TIP3    H173423   3.118   5.858  12.501 -0.4256  0.0382 -0.4047
17336TIP3    H273424   3.019   5.771  12.574  0.4290 -0.8689 -0.3152
17337TIP3   OH273425   3.169   6.410   4.337  0.6218 -0.3189 -0.1535
17337TIP3    H173426   3.120   6.351   4.395 -0.8008  1.0689  0.1047
17337TIP3    H273427   3.222   6.352   4.283  0.5621 -1.7418  1.2631
17338TIP3   OH273428   3.009   5.683   5.603 -0.5802 -0.1288  0.1208
17338TIP3    H173429   3.097   5.667   5.570 -0.7453 -1.1041  0.1131
17338TIP3    H273430   3.022   5.728   5.686 -0.1240  1.0756 -0.5850
17339TIP3   OH273431   4.153   1.683  13.425 -0.0795  0.1029 -0.2121
17339TIP3    H173432   4.099   1.730  13.361  0.5686  0.0603 -0.7884
17339TIP3    H273433   4.233   1.736  13.433  0.4138 -0.6083 -0.4440
17340TIP3   OH273434   1.277   0.520  16.671  0.2409 -0.1070  0.4549
17340TIP3    H173435   1.365   0.483  16.676  1.5326  2.8551  0.4087
17340TIP3    H273436   1.275   0.587  16.739 -0.9713  1.8484 -1.4444
17341TIP3   OH273437   1.419   6.579  14.670  0.2545 -0.5673  0.7216
17341TIP3    H173438   1.417   6.656  14.613  0.4138 -0.6165  0.6495
17341TIP3    H273439   1.439   6.615  14.757 -0.5621 -0.4271  0.8565
17342TIP3   OH273440   6.693   3.463  12.828  0.1831  0.1932 -0.0833
17342TIP3    H173441   6.738   3.515  12.895  1.3528  0.4232 -1.0210
17342TIP3    H273442   6.629   3.524  12.790 -0.3725  0.1078  0.7002
17343TIP3   OH273443   2.662   4.669   1.265  0.1891  0.3374  0.0101
17343TIP3    H173444   2.596   4.738   1.276 -0.3410 -0.2904  0.8058
17343TIP3    H273445   2.685   4.672   1.172  0.1020  1.5245  0.0252
17344TIP3   OH273446   6.418   3.902  11.074 -0.4053  0.4170  0.2230
17344TIP3    H173447   6.334   3.874  11.036 -1.1290  3.0997 -0.2153
17344TIP3    H273448   6.468   3.934  10.999  0.2636  0.6902  0.7851
17345TIP3   OH273449   6.666   6.340  13.070  0.2974 -0.2963  0.2292
17345TIP3    H173450   6.720   6.288  13.130 -0.3859  0.7455  1.8003
17345TIP3    H273451   6.635   6.278  13.005 -0.0235 -1.7568  1.7350
17346TIP3   OH273452   0.306   2.529  12.456  0.1872 -1.0177  1.0062
17346TIP3    H173453   0.258   2.579  12.522 -2.5715 -0.2384 -1.4974
17346TIP3    H273454   0.265   2.442  12.457 -0.5272 -0.7034 -0.3330
17347TIP3   OH273455   2.410   1.176  14.189 -0.2547  0.4687  0.3733
17347TIP3    H173456   2.338   1.144  14.243 -0.4297 -1.4417 -0.9153
17347TIP3    H273457   2.447   1.249  14.238 -3.2745  1.7351  0.9291
17348TIP3   OH273458   6.104   2.687   5.437  0.1634  0.3780  0.1343
17348TIP3    H173459   6.085   2.764   5.491 -0.1057 -0.1100  0.7344
17348TIP3    H273460   6.144   2.723   5.358  1.6005  1.0154  1.1392
17349TIP3   OH273461   4.686   6.571   0.956  0.5957 -0.1179  0.4223
17349TIP3    H173462   4.775   6.577   0.991  0.4875  0.5902  0.5893
17349TIP3    H273463   4.630   6.596   1.029  0.1700 -1.9230  0.7286
17350TIP3   OH273464   2.114   2.160   3.137 -0.1939  0.9920 -0.0338
17350TIP3    H173465   2.144   2.101   3.068  0.8361 -1.7892  2.6497
17350TIP3    H273466   2.034   2.120   3.169  0.7308  0.7683  2.0982
17351TIP3   OH273467   3.161   2.433   5.008 -0.0149  0.0030  0.2854
17351TIP3    H173468   3.071   2.409   4.987  0.4747 -1.2420 -0.4222
17351TIP3    H273469   3.206   2.437   4.924  0.0979  2.7933  0.4343
17352TIP3   OH273470   3.830   2.504  13.753  0.8642 -1.0751 -0.3612
17352TIP3    H173471   3.799   2.518  13.842  3.4113  1.0816  0.2456
17352TIP3    H273472   3.888   2.429  13.758  2.0355 -0.1442  0.0581
17353TIP3   OH273473   5.560   2.261   5.177 -0.8086  0.8207 -0.1742
17353TIP3    H173474   5.619   2.240   5.249 -1.7761  1.2090  0.7481
17353TIP3    H273475   5.556   2.180   5.125 -0.3100  0.4597  0.3419
17354TIP3   OH273476   4.260   4.843  11.894 -0.4579  0.2570  0.0663
17354TIP3    H173477   4.203   4.782  11.941 -0.6607  0.9431  0.7135
17354TIP3    H273478   4.347   4.824  11.929 -0.7005  1.2211  1.2099
17355TIP3   OH273479   2.144   5.703   5.560 -0.1709  0.8171 -0.4152
17355TIP3    H173480   2.209   5.633   5.552  1.6084  2.4633 -0.6784
17355TIP3    H273481   2.140   5.741   5.472 -2.5357 -0.1382 -0.7662
17356TIP3   OH273482   6.384   0.473   2.534  0.3564  0.0045  0.2949
17356TIP3    H173483   6.412   0.457   2.624 -0.6217  2.2133  1.0275
17356TIP3    H273484   6.290   0.454   2.534  0.4462 -0.4516 -0.3811
17357TIP3   OH273485   4.169   5.796  13.508 -0.5286 -0.9957 -0.1182
17357TIP3    H173486   4.097   5.758  13.557 -0.6039 -2.2365 -1.1706
17357TIP3    H273487   4.146   5.888  13.499 -0.6281 -0.7915  1.9362
17358TIP3   OH273488   1.972   5.665   2.174  0.3962 -0.1353 -0.1048
17358TIP3    H173489   1.934   5.682   2.260 -0.0223  2.6405 -0.8001
17358TIP3    H273490   1.942   5.738   2.119  0.7011 -1.8144 -2.5974
17359TIP3   OH273491   0.395   2.823  14.195 -0.1581  0.6476 -0.2821
17359TIP3    H173492   0.344   2.815  14.114 -1.7894  2.8346  0.5128
17359TIP3    H273493   0.385   2.738  14.237  1.3563 -0.8084 -2.7211
17360TIP3   OH273494   3.418   2.011   4.757  0.1860  0.0023  0.3492
17360TIP3    H173495   3.357   1.970   4.818  0.8650  1.2042  1.8497
17360TIP3    H273496   3.377   2.094   4.733 -0.3067 -0.6685 -1.2418
17361TIP3   OH273497   1.728   2.489   0.128 -0.0857  0.1521 -0.4834
17361TIP3    H173498   1.734   2.483   0.033 -2.3846  1.0632 -0.7094
17361TIP3    H273499   1.802   2.437   0.160  1.2984  0.6363 -2.7659
17362TIP3   OH273500   2.264   3.867   3.697 -0.1454 -0.2061  0.0197
17362TIP3    H173501   2.317   3.788   3.709 -1.0198 -1.0286 -1.3709
17362TIP3    H273502   2.202   3.844   3.628 -0.8070  1.5121  0.0138
17363TIP3   OH273503   3.646   5.640  15.085  0.0185 -0.4129  0.0729
17363TIP3    H173504   3.658   5.683  15.170  0.3886 -2.9415  1.3395
17363TIP3    H273505   3.634   5.547  15.106 -2.4794 -0.7416 -2.4596
17364TIP3   OH273506   5.195   3.854   0.602 -0.0210  0.2666  0.1402
17364TIP3    H173507   5.289   3.851   0.584  0.0204 -2.0269  0.6035
17364TIP3    H273508   5.188   3.886   0.692  0.1666  2.8492 -0.7138
17365TIP3   OH273509   2.853   1.985   2.026  0.5743 -0.4983 -0.1620
17365TIP3    H173510   2.903   1.919   2.075 -1.3392 -0.1616  2.3427
17365TIP3    H273511   2.864   2.066   2.076  0.5547  0.4475 -1.6494
17366TIP3   OH273512   0.680   0.328  11.779  0.0832  0.0376  0.6799
17366TIP3    H173513   0.631   0.246  11.774 -1.0087  0.7106  0.1309
17366TIP3    H273514   0.757   0.307  11.832 -0.8698 -1.0094  1.6647
17367TIP3   OH273515   6.453   3.811   4.425  0.8543 -0.1247 -0.5441
17367TIP3    H173516   6.544   3.839   4.432  0.8633 -0.2505 -0.1471
17367TIP3    H273517   6.405   3.890   4.402  1.0221  0.0059 -0.4400
17368TIP3   OH273518   3.992   2.893   4.186 -0.3279 -0.4309 -0.4575
17368TIP3    H173519   4.018   2.834   4.115 -1.8802 -1.5957 -0.0666
17368TIP3    H273520   3.907   2.861   4.215  0.5278 -0.3098  2.3362
17369TIP3   OH273521   1.366   1.683   0.052  0.1422 -0.4645  0.3797
17369TIP3    H173522   1.329   1.743   0.117  0.1470 -0.3001  0.2310
17369TIP3    H273523   1.391   1.739  -0.021 -0.5707 -0.7473 -0.0857
17370TIP3   OH273524   5.284   1.472   0.694 -0.1741 -0.0040 -0.1592
17370TIP3    H173525   5.209   1.424   0.659 -1.0818  1.5163 -0.3394
17370TIP3    H273526   5.263   1.565   0.678  0.9504  0.5278  1.3530
17371TIP3   OH273527   5.668   5.304   1.299 -0.1005 -0.0987  0.0039
17371TIP3    H173528   5.663   5.308   1.395  0.2010  0.8377 -0.0189
17371TIP3    H273529   5.597   5.360   1.269 -0.3270 -0.5566 -0.3329
17372TIP3   OH273530   2.152   4.489  15.755 -0.2000 -0.1067 -0.3601
17372TIP3    H173531   2.087   4.437  15.801 -1.0953  0.3048 -1.1476
17372TIP3    H273532   2.235   4.467  15.798 -0.8461 -0.6445  0.6341
17373TIP3   OH273533   3.200   1.777   3.021 -0.0121 -0.5632 -0.2173
17373TIP3    H173534   3.276   1.798   2.968  0.4853 -0.0025  0.6988
17373TIP3    H273535   3.177   1.687   2.997  0.9480 -0.7438 -0.4790
17374TIP3   OH273536   5.822   2.523   4.375 -0.4669 -0.2058 -0.0059
17374TIP3    H173537   5.825   2.594   4.439 -1.6549  0.4079 -0.6065
17374TIP3    H273538   5.892   2.464   4.401 -0.3523  0.4967  1.3164
17375TIP3   OH273539   1.977   5.039  13.458 -0.1419  0.8182 -0.4350
17375TIP3    H173540   2.007   5.047  13.549 -2.5165  0.9323  0.3671
17375TIP3    H273541   1.958   4.945  13.448 -0.4293  0.8969 -0.6263
17376TIP3   OH273542   3.920   0.387   4.750  0.3263  0.8876 -0.4856
17376TIP3    H173543   3.974   0.466   4.754 -1.2019  1.9172  0.3754
17376TIP3    H273544   3.833   0.420   4.728  0.0510 -0.7493 -1.9008
17377TIP3   OH273545   5.534   2.445  16.707 -0.3741 -0.2831 -0.0534
17377TIP3    H173546   5.466   2.378  16.714 -1.6543  1.0588  0.6151
17377TIP3    H273547   5.486   2.528  16.703  1.2229  0.7439  1.3028
17378TIP3   OH273548   3.988   2.394  15.309  0.3538  0.4788 -0.1606
17378TIP3    H173549   3.933   2.413  15.233  0.2931 -0.0992 -0.2639
17378TIP3    H273550   3.942   2.432  15.383 -1.2473 -1.8198  0.0632
17379TIP3   OH273551   5.162   6.031   6.052 -0.1244  0.1133 -0.1368
17379TIP3    H173552   5.179   6.104   6.112  0.0289  1.6449 -2.0100
17379TIP3    H273553   5.067   6.020   6.054 -0.1448  0.3379  0.1805
17380TIP3   OH273554   0.098   1.085   5.030 -0.1903 -0.3106 -0.0444
17380TIP3    H173555   0.104   1.158   5.092  1.0012 -0.8122  0.4488
17380TIP3    H273556   0.183   1.041   5.037 -0.6132 -1.2790 -0.9164
17381TIP3   OH273557   3.076   1.993   6.582 -0.6817  0.0586  0.0461
17381TIP3    H173558   3.113   2.079   6.562  1.2700 -0.9784 -0.9145
17381TIP3    H273559   3.032   1.966   6.501 -2.8345  0.8794  0.8925
17382TIP3   OH273560   6.090   3.203  17.093  0.6024 -0.3865 -0.0767
17382TIP3    H173561   6.017   3.239  17.045  1.0158 -0.4481 -0.7532
17382TIP3    H273562   6.116   3.125  17.044 -0.7914 -2.0748  1.7966
17383TIP3   OH273563   0.689   3.773   1.135  0.0334 -0.2242 -0.6884
17383TIP3    H173564   0.719   3.683   1.151  2.3083  0.2536 -2.1075
17383TIP3    H273565   0.764   3.828   1.158 -1.3485  1.3415  0.1907
17384TIP3   OH273566   5.114   5.974  12.826 -0.3036  0.1285  0.0509
17384TIP3    H173567   5.035   6.018  12.793 -0.8257 -0.2744  0.7527
17384TIP3    H273568   5.085   5.929  12.906  0.7339  0.3242  0.5446
17385TIP3   OH273569   6.655   2.403  12.873 -0.5531 -0.3115 -0.1075
17385TIP3    H173570   6.612   2.478  12.832  0.5546  1.5048  1.9111
17385TIP3    H273571   6.584   2.350  12.909 -1.2843  0.6110 -0.1888
17386TIP3   OH273572   4.528   1.127   4.212 -0.0043  0.0774 -0.4555
17386TIP3    H173573   4.563   1.130   4.123 -1.2721 -0.4685 -0.9842
17386TIP3    H273574   4.449   1.073   4.205 -0.0855 -0.0105  1.0087
17387TIP3   OH273575   2.216   0.262  16.036  1.1004  0.4002  0.6864
17387TIP3    H173576   2.167   0.200  16.089 -0.5532  0.9663 -0.1239
17387TIP3    H273577   2.277   0.304  16.097  0.7615 -0.5197  1.6680
17388TIP3   OH273578   4.580   5.723  13.197 -0.3112  0.5631 -0.2686
17388TIP3    H173579   4.634   5.748  13.121 -0.4302  0.6193 -0.3358
17388TIP3    H273580   4.640   5.677  13.255 -0.5051 -0.5851 -0.9557
17389TIP3   OH273581   2.746   6.449   3.016 -0.5882  0.6779  0.0114
17389TIP3    H173582   2.812   6.425   3.081 -1.8876 -0.8560  0.8023
17389TIP3    H273583   2.732   6.543   3.030 -0.3759  0.5012  1.5156
17390TIP3   OH273584   0.970   4.964  13.593 -1.0649 -0.5364 -0.1313
17390TIP3    H173585   1.060   4.934  13.601 -1.0724 -0.2141  1.1875
17390TIP3    H273586   0.918   4.884  13.606 -1.0071 -0.5203  0.1844
17391TIP3   OH273587   4.313   6.009  13.823 -0.0559 -0.1419 -0.1605
17391TIP3    H173588   4.342   5.924  13.788 -0.0460  0.6973 -2.2563
17391TIP3    H273589   4.258   5.986  13.898  0.8711 -1.9657 -0.0033
17392TIP3   OH273590   5.322   3.101  11.363  0.4068  0.3917 -0.5557
17392TIP3    H173591   5.378   3.088  11.287  0.0468  0.2936 -0.8072
17392TIP3    H273592   5.376   3.150  11.425  0.7923  0.2301 -0.7639
17393TIP3   OH273593   0.792   0.795   5.071 -0.2570  0.2537  0.3724
17393TIP3    H173594   0.886   0.779   5.070 -0.7248 -2.6352 -0.8949
17393TIP3    H273595   0.758   0.739   5.141 -1.0289  1.4183  0.9508
17394TIP3   OH273596   4.059   1.541   2.279  0.0202 -0.4318  0.0148
17394TIP3    H173597   3.965   1.547   2.299 -0.6790 -3.0674 -2.0143
17394TIP3    H273598   4.064   1.468   2.217  3.3178  0.3225 -0.6604
17395TIP3   OH273599   3.292   2.750  14.148  0.5493 -0.0452  0.5422
17395TIP3    H173600   3.328   2.833  14.118 -1.1916  0.2930 -0.7250
17395TIP3    H273601   3.202   2.771  14.175 -0.3179 -1.6961 -0.9379
17396TIP3   OH273602   2.187   5.356   1.782  0.2440  0.3762  0.2956
17396TIP3    H173603   2.192   5.413   1.859  2.8925  0.5399  0.0322
17396TIP3    H273604   2.137   5.280   1.813  0.9813  0.5864  2.0961
17397TIP3   OH273605   1.212   4.336  11.234 -0.3484 -0.2186 -0.2014
17397TIP3    H173606   1.123   4.332  11.269 -0.9741  0.7879 -1.6244
17397TIP3    H273607   1.209   4.408  11.171  1.9364  1.0194  1.0517
17398TIP3   OH273608   2.010   3.138  12.445 -0.0117 -0.9428 -0.2797
17398TIP3    H173609   2.003   3.170  12.355  0.1332 -0.2706 -0.0597
17398TIP3    H273610   1.954   3.197  12.495  0.7563 -0.6298  0.2293
17399TIP3   OH273611   2.947   4.175   2.506 -0.8061 -0.7945 -0.5333
17399TIP3    H173612   2.930   4.219   2.589 -0.8938 -0.2811 -0.8215
17399TIP3    H273613   2.888   4.099   2.507 -1.7937 -0.0423 -0.7107
17400TIP3   OH273614   3.889   6.356   2.359  0.0484  0.6321  0.1058
17400TIP3    H173615   3.956   6.423   2.374 -0.8665  1.6458 -0.3220
17400TIP3    H273616   3.815   6.383   2.414 -0.5398  0.2949 -0.5214
17401TIP3   OH273617   0.631   1.842  11.086 -0.1729  0.4104  0.2795
17401TIP3    H173618   0.588   1.758  11.074  0.7907  0.3246 -3.1757
17401TIP3    H273619   0.722   1.826  11.059 -0.0052  2.5402 -0.5162
17402TIP3   OH273620   5.057   5.112   6.514 -0.1560 -0.3390 -0.3608
17402TIP3    H173621   5.145   5.076   6.506  0.6816  1.3265  0.9868
17402TIP3    H273622   5.050   5.138   6.606 -1.5354  0.8379 -0.7729
17403TIP3   OH273623   3.074   3.897  17.173 -0.0414 -0.1661  0.3031
17403TIP3    H173624   3.047   3.948  17.248  2.3335 -0.2038  1.2235
17403TIP3    H273625   3.140   3.837  17.207 -0.4443 -1.6294 -1.3965
17404TIP3   OH273626   5.575   3.287  11.763 -0.5844  0.4909  0.2222
17404TIP3    H173627   5.630   3.218  11.800 -0.1915  0.7497  0.1285
17404TIP3    H273628   5.580   3.358  11.827  0.7651  1.2594 -0.7106
17405TIP3   OH273629   0.799   3.198   3.382 -0.2888  0.0701 -0.3409
17405TIP3    H173630   0.717   3.229   3.420 -0.0016  0.1542  0.2077
17405TIP3    H273631   0.772   3.146   3.307 -0.8975 -1.1342  0.7069
17406TIP3   OH273632   2.951   4.876  14.111  0.4946  0.2497  0.0022
17406TIP3    H173633   2.990   4.826  14.039 -1.1737  0.8626 -1.3590
17406TIP3    H273634   3.011   4.949  14.125  1.4145 -0.4967 -0.0096
17407TIP3   OH273635   1.484   4.772   0.579 -0.0083 -0.5174 -0.8543
17407TIP3    H173636   1.504   4.806   0.492  0.9602 -1.0110 -0.8322
17407TIP3    H273637   1.455   4.683   0.564  1.7400 -1.1669 -0.5586
17408TIP3   OH273638   0.260   4.164   2.597 -0.4996 -0.9322 -0.6101
17408TIP3    H173639   0.204   4.169   2.520 -0.9289  0.9656 -0.1972
17408TIP3    H273640   0.199   4.149   2.670 -0.3624 -0.0265 -0.3041
17409TIP3   OH273641   2.497   4.498  14.626  0.2589 -0.5934 -0.0397
17409TIP3    H173642   2.448   4.431  14.579  1.8122  0.9653 -4.1365
17409TIP3    H273643   2.588   4.467  14.625  0.7774  0.8788 -0.7911
17410TIP3   OH273644   2.571   6.469   0.793  0.0698 -0.0436  0.4058
17410TIP3    H173645   2.524   6.546   0.824 -0.8780 -0.3743 -0.1716
17410TIP3    H273646   2.646   6.461   0.851 -1.2204 -0.1790  2.0941
17411TIP3   OH273647   1.449   3.612  15.937  0.2949  0.4657 -0.1493
17411TIP3    H173648   1.529   3.663  15.947  0.7288 -0.3826  0.8467
17411TIP3    H273649   1.453   3.577  15.848  0.8497  0.7187 -0.2235
17412TIP3   OH273650   0.840   0.957   4.536 -0.7141 -0.4881  0.3975
17412TIP3    H173651   0.895   0.977   4.612  0.6104 -0.4093 -0.5623
17412TIP3    H273652   0.812   1.043   4.505 -1.2426 -0.5196  0.7736
17413TIP3   OH273653   1.324   5.469   3.582  0.1308 -0.1531 -0.6127
17413TIP3    H173654   1.397   5.529   3.569 -1.6288  2.1042 -0.3158
17413TIP3    H273655   1.263   5.488   3.511 -1.3326 -0.1853  0.5876
17414TIP3   OH273656   6.495   0.865  14.081 -0.2821  0.0014 -0.6923
17414TIP3    H173657   6.419   0.891  14.132  1.2824  2.1380  0.6023
17414TIP3    H273658   6.542   0.946  14.065  1.6564 -1.2761 -1.6370
17415TIP3   OH273659   1.680   1.055  16.962  0.1102  0.2129 -0.4267
17415TIP3    H173660   1.634   1.030  17.043 -0.2214 -0.7395 -0.9002
17415TIP3    H273661   1.762   1.094  16.992 -0.1547  0.1509  0.3837
17416TIP3   OH273662   3.208   1.235   5.060  0.0356  0.2460  0.1259
17416TIP3    H173663   3.261   1.291   5.117 -0.2364 -0.8734  1.4985
17416TIP3    H273664   3.272   1.184   5.010  0.2683  0.5263  0.1363
17417TIP3   OH273665   2.092   5.035  16.629  0.1800 -0.1311 -0.0686
17417TIP3    H173666   2.124   5.112  16.582 -0.9014  0.7052  0.5469
17417TIP3    H273667   2.022   5.068  16.685  0.3942 -1.3897  0.9725
17418TIP3   OH273668   2.553   1.239   3.267  0.3127  0.1899  0.1054
17418TIP3    H173669   2.633   1.257   3.217  1.1550 -0.8331  1.0558
17418TIP3    H273670   2.500   1.186   3.208  1.4391 -1.2884  0.3892
17419TIP3   OH273671   3.691   5.773  10.899  0.0129  0.6277 -0.3668
17419TIP3    H173672   3.598   5.786  10.881 -0.6644 -1.4557  1.4116
17419TIP3    H273673   3.706   5.681  10.879  0.8599  0.0698  2.5548
17420TIP3   OH273674   5.920   0.187   0.168  0.0925 -0.1432 -0.2945
17420TIP3    H173675   5.835   0.188   0.123  0.2412  1.4236 -0.5417
17420TIP3    H273676   5.954   0.276   0.158  1.2761 -0.4703  0.7470
17421TIP3   OH273677   5.367   1.666   1.210  0.5629 -0.7315  0.5566
17421TIP3    H173678   5.405   1.580   1.189  0.4661 -0.7211  0.3320
17421TIP3    H273679   5.293   1.674   1.149  2.2133  0.6880 -1.3134
17422TIP3   OH273680   3.957   1.035   2.085  0.2927 -0.2699 -0.1298
17422TIP3    H173681   3.984   0.944   2.075  0.3406 -0.1478 -1.1961
17422TIP3    H273682   4.015   1.084   2.027  0.7417  0.5352  0.9699
17423TIP3   OH273683   1.325   0.921  16.499 -0.3815  0.3139  0.4078
17423TIP3    H173684   1.308   0.943  16.407 -1.0751 -1.1793  0.1536
17423TIP3    H273685   1.381   0.843  16.494  1.1733  1.3601  1.2602
17424TIP3   OH273686   3.291   3.949  12.342 -0.2067 -0.0794  0.8863
17424TIP3    H173687   3.313   3.998  12.421 -1.5827 -0.4589  1.5238
17424TIP3    H273688   3.200   3.973  12.324  0.5535  1.2498 -1.5117
17425TIP3   OH273689   3.935   1.097  14.980 -0.0832  0.0486 -0.1255
17425TIP3    H173690   3.969   1.008  14.973 -2.9258 -0.9085 -3.3255
17425TIP3    H273691   3.992   1.149  14.923 -1.3132 -0.7440 -2.1523
17426TIP3   OH273692   0.507   1.548   3.747  0.1799 -0.0113  0.2110
17426TIP3    H173693   0.462   1.565   3.830 -1.1746  3.1090 -1.0773
17426TIP3    H273694   0.437   1.524   3.686  1.2554 -3.1185  0.1268
17427TIP3   OH273695   6.478   1.407   5.692 -0.1224  0.0670 -0.2117
17427TIP3    H173696   6.537   1.426   5.619  0.3436 -1.3309 -0.2138
17427TIP3    H273697   6.391   1.425   5.657 -0.0411 -2.2092 -1.6840
17428TIP3   OH273698   1.560   0.108   5.252  0.4179 -0.2838 -0.1885
17428TIP3    H173699   1.561   0.016   5.279 -0.4955 -0.3755 -0.4583
17428TIP3    H273700   1.626   0.112   5.182 -0.4699 -1.0208 -1.0864
17429TIP3   OH273701   2.668   1.264  11.687  0.5170  0.4801 -0.0914
17429TIP3    H173702   2.703   1.317  11.615  0.9621  1.7350  1.0452
17429TIP3    H273703   2.633   1.327  11.749 -1.1190 -0.6494  0.1816
17430TIP3   OH273704   2.146   3.171   4.417  0.1538  0.3230 -0.5538
17430TIP3    H173705   2.181   3.232   4.482 -3.2955  0.5014  1.2403
17430TIP3    H273706   2.093   3.225   4.358 -2.5355 -0.7712  0.7641
17431TIP3   OH273707   1.914   1.415  14.469 -0.5222  0.5202 -0.4018
17431TIP3    H173708   1.991   1.374  14.509 -1.9946  0.1009  2.1438
17431TIP3    H273709   1.950   1.476  14.404  2.0815  2.2138  2.4677
17432TIP3   OH273710   0.673   6.158   4.165 -0.1967 -0.0918 -0.3347
17432TIP3    H173711   0.616   6.088   4.197  0.7220 -0.8480 -0.3422
17432TIP3    H273712   0.749   6.113   4.128  2.3972  0.9712  3.3867
17433TIP3   OH273713   1.676   3.500   2.587  0.1169  0.8244 -0.0765
17433TIP3    H173714   1.644   3.584   2.553 -1.4510  0.1087 -0.3889
17433TIP3    H273715   1.651   3.436   2.521 -0.1488 -0.1363  0.9376
17434TIP3   OH273716   3.039   4.321   1.289  0.4549 -0.5888 -0.3024
17434TIP3    H173717   3.133   4.332   1.277  0.5070  0.7335  1.1629
17434TIP3    H273718   2.999   4.376   1.221  0.7433  0.2489  0.2023
17435TIP3   OH273719   1.030   3.881  12.189  0.3587  0.3582  0.0414
17435TIP3    H173720   1.116   3.840  12.178  0.4158  0.0641  1.4617
17435TIP3    H273721   1.001   3.852  12.275 -0.7842  1.1710 -0.0631
17436TIP3   OH273722   4.251   4.650  11.360 -0.4125 -0.5803 -0.2485
17436TIP3    H173723   4.290   4.680  11.278 -2.8401 -0.7560 -1.5028
17436TIP3    H273724   4.245   4.729  11.414 -1.6578  0.1445 -1.4274
17437TIP3   OH273725   0.780   6.699   2.359 -0.1822 -0.2304 -0.8319
17437TIP3    H173726   0.810   6.775   2.409  0.8171  0.5392 -2.5458
17437TIP3    H273727   0.816   6.624   2.406  2.7324  0.5744 -1.6470
17438TIP3   OH273728   0.676   1.088  15.269  0.6792 -0.0703  0.5530
17438TIP3    H173729   0.707   1.137  15.193  0.7510  0.2039  0.7583
17438TIP3    H273730   0.646   1.005  15.233  3.0863 -0.9756  0.5274
17439TIP3   OH273731   6.074   1.461  14.363  0.5411 -0.2641  0.3692
17439TIP3    H173732   6.078   1.475  14.458 -1.1033 -0.4683  0.4980
17439TIP3    H273733   6.000   1.401  14.351  1.6282 -1.3619 -0.9345
17440TIP3   OH273734   6.524   6.718   4.215 -0.1589 -0.1755  0.1366
17440TIP3    H173735   6.513   6.811   4.233 -0.7313 -0.5556  1.7782
17440TIP3    H273736   6.553   6.715   4.123 -0.5175  1.5787 -0.0498
17441TIP3   OH273737   0.089   1.878  15.551 -0.0525 -0.0110 -0.0048
17441TIP3    H173738   0.001   1.842  15.550  0.3688 -1.0580 -0.1662
17441TIP3    H273739   0.106   1.905  15.461  0.1199 -0.6143 -0.1505
17442TIP3   OH273740   3.263   3.914   4.971 -0.4711 -0.3336 -0.0394
17442TIP3    H173741   3.266   3.905   5.067 -0.6023 -0.8195 -0.0762
17442TIP3    H273742   3.304   3.998   4.953 -0.8826 -0.0163  0.4806
17443TIP3   OH273743   3.651   4.635   1.717 -0.5385 -0.2012 -0.0604
17443TIP3    H173744   3.731   4.676   1.751 -0.0560 -1.5724  0.5040
17443TIP3    H273745   3.683   4.560   1.667 -1.3909  0.3331 -1.4113
17444TIP3   OH273746   0.933   0.064  16.117  0.1210 -0.2557  0.6507
17444TIP3    H173747   0.922   0.157  16.135  0.3958 -0.3273  1.2210
17444TIP3    H273748   0.850   0.025  16.141 -0.0746 -0.1284  0.1895
17445TIP3   OH273749   3.928   2.092  15.432 -0.3447  0.5674  0.5468
17445TIP3    H173750   3.892   2.098  15.344 -1.0801 -0.8718  0.7259
17445TIP3    H273751   4.019   2.066  15.419  0.0713  2.1863  0.1602
17446TIP3   OH273752   3.599   6.371   0.791  0.4231 -0.6182  0.0241
17446TIP3    H173753   3.558   6.303   0.844 -0.6926 -0.9398 -1.2313
17446TIP3    H273754   3.682   6.332   0.762  0.4114 -0.9271  0.4030
17447TIP3   OH273755   5.241   6.337   2.783  0.0064  0.4330  0.1983
17447TIP3    H173756   5.258   6.366   2.872 -1.5255 -1.0353  0.9892
17447TIP3    H273757   5.215   6.416   2.736  0.6365  1.1755  1.0837
17448TIP3   OH273758   4.892   5.464   0.909 -0.2253  0.1081 -0.7885
17448TIP3    H173759   4.912   5.460   0.815 -1.6401 -1.9473 -1.0336
17448TIP3    H273760   4.960   5.412   0.951 -1.5665 -1.9277 -1.0526
17449TIP3   OH273761   0.363   4.139  14.981  0.4386  0.1850  0.4372
17449TIP3    H173762   0.429   4.185  15.034  0.5151 -2.2867  2.5424
17449TIP3    H273763   0.279   4.169  15.016  0.4881 -1.2140  1.7843
17450TIP3   OH273764   4.860   5.985  14.947  0.4700  0.0226  0.2064
17450TIP3    H173765   4.843   5.895  14.978 -1.9308  0.4863  0.3304
17450TIP3    H273766   4.843   6.040  15.024  2.6478  0.5738  0.3408
17451TIP3   OH273767   0.711   1.425   1.778 -0.0060  0.4968 -0.1486
17451TIP3    H173768   0.631   1.411   1.727  1.2997  0.3988 -2.2529
17451TIP3    H273769   0.770   1.356   1.748  1.7861  2.2012 -0.6218
17452TIP3   OH273770   5.954   3.319   1.070  0.2086 -0.4990  0.4680
17452TIP3    H173771   5.888   3.381   1.041  1.8887  0.1821 -1.9714
17452TIP3    H273772   5.946   3.318   1.166 -1.8356  1.1895  0.3292
17453TIP3   OH273773   3.831   5.687  14.721 -0.0300  0.0412  0.5781
17453TIP3    H173774   3.897   5.658  14.657 -0.3064 -1.6144  1.0306
17453TIP3    H273775   3.852   5.639  14.800 -1.0305  0.4649  1.1081
17454TIP3   OH273776   5.665   6.162   2.017 -0.3267  0.0849 -0.2136
17454TIP3    H173777   5.698   6.229   2.076 -0.3459  2.0933 -2.3989
17454TIP3    H273778   5.743   6.118   1.983 -0.2116  0.4614 -0.4357
17455TIP3   OH273779   1.888   6.223  13.969  0.2282  0.1710 -0.2258
17455TIP3    H173780   1.834   6.300  13.988  2.0010  1.3182  0.3576
17455TIP3    H273781   1.968   6.260  13.930  1.9866 -1.1868  1.9924
17456TIP3   OH273782   1.212   2.338  17.017 -0.2948  0.4869  0.0435
17456TIP3    H173783   1.210   2.302  16.929  1.8518 -0.8810  0.5214
17456TIP3    H273784   1.123   2.325  17.050 -1.2003  1.3319 -2.0137
17457TIP3   OH273785   1.130   0.349   0.675  0.4283  0.3666 -0.0757
17457TIP3    H173786   1.041   0.321   0.694  0.5875 -1.3476 -1.7493
17457TIP3    H273787   1.140   0.431   0.724 -2.3112  0.9922 -0.4646
17458TIP3   OH273788   4.514   3.938   4.108  0.9371 -0.2226 -0.1792
17458TIP3    H173789   4.425   3.912   4.085  0.2936  1.4851  0.2742
17458TIP3    H273790   4.570   3.874   4.065 -0.4675 -0.6217 -1.4464
17459TIP3   OH273791   2.280   0.038   0.189  0.4831  0.3357 -0.1177
17459TIP3    H173792   2.286   0.123   0.145  0.6674  1.3860  1.9014
17459TIP3    H273793   2.357   0.036   0.246 -0.9534 -0.0297  1.8321
17460TIP3   OH273794   3.203   2.065  17.182 -0.5133  0.0536 -0.6802
17460TIP3    H173795   3.155   1.983  17.178 -1.9508  0.8908 -0.7468
17460TIP3    H273796   3.263   2.054  17.256 -1.7489 -0.4804  0.2535
17461TIP3   OH273797   0.755   0.570   6.077  0.1223 -0.1881 -0.0123
17461TIP3    H173798   0.692   0.633   6.112  1.0887  0.3509  0.7846
17461TIP3    H273799   0.774   0.512   6.150  1.8894  0.7284  0.2913
17462TIP3   OH273800   6.025   3.492  11.276  0.1431  0.1601  0.0304
17462TIP3    H173801   6.030   3.404  11.313  1.5859 -0.5523 -1.7836
17462TIP3    H273802   6.114   3.527  11.288  0.3135  0.3382 -1.7115
17463TIP3   OH273803   2.401   6.507  16.663 -0.2637 -0.3036  0.4106
17463TIP3    H173804   2.374   6.587  16.618 -2.0063 -0.3125  1.3883
17463TIP3    H273805   2.463   6.537  16.730  1.1541 -0.1127 -0.9691
17464TIP3   OH273806   0.109   3.281  11.875  0.3691 -0.1839  0.8234
17464TIP3    H173807   0.169   3.354  11.861 -1.3281  1.0738 -0.0250
17464TIP3    H273808   0.166   3.206  11.892  2.1941  0.8231 -0.7129
17465TIP3   OH273809   5.508   3.910  13.642  0.4178  0.3525  0.2727
17465TIP3    H173810   5.519   3.920  13.737 -1.4510  0.5299  0.4780
17465TIP3    H273811   5.557   3.830  13.621  1.0582  0.4510  1.3306
17466TIP3   OH273812   1.517   2.189   5.086 -0.1800 -0.7312 -0.0765
17466TIP3    H173813   1.571   2.133   5.030  0.1575  0.0820 -0.5862
17466TIP3    H273814   1.439   2.207   5.034 -0.6334 -1.3528  0.3915
17467TIP3   OH273815   3.286   5.003  14.734  0.7035  0.3676  0.5773
17467TIP3    H173816   3.260   4.994  14.642  1.1690  1.4543  0.3387
17467TIP3    H273817   3.205   4.991  14.783  0.5822 -1.0067  0.0699
17468TIP3   OH273818   3.424   1.203  13.213 -0.2475 -0.1368  0.1893
17468TIP3    H173819   3.432   1.114  13.179 -2.6638 -1.2739  2.4369
17468TIP3    H273820   3.354   1.242  13.160 -1.0506 -0.4874  0.9821
17469TIP3   OH273821   5.438   5.043  14.952  0.0566  0.1350 -0.0375
17469TIP3    H173822   5.460   5.074  14.864  1.9221 -0.1544  0.3123
17469TIP3    H273823   5.348   5.012  14.944  0.2353  0.0284 -1.8706
17470TIP3   OH273824   4.790   4.080  12.173 -0.2128  0.0003  0.3267
17470TIP3    H173825   4.723   4.145  12.192 -1.5507 -1.1872 -0.1910
17470TIP3    H273826   4.755   4.030  12.100  1.7378  0.0405 -0.6712
17471TIP3   OH273827   4.303   4.458  12.839  0.2069 -0.0208  0.0195
17471TIP3    H173828   4.372   4.472  12.775 -0.6902  0.5346 -0.8406
17471TIP3    H273829   4.319   4.524  12.907  1.4774 -0.9605  0.6591
17472TIP3   OH273830   2.884   4.892   3.166 -0.4407 -0.0682  0.6262
17472TIP3    H173831   2.969   4.934   3.180 -0.8370  1.1933 -0.6680
17472TIP3    H273832   2.875   4.886   3.071 -0.7738 -2.3768  0.7600
17473TIP3   OH273833   2.706   2.427  13.479  0.2931 -0.4198 -0.0782
17473TIP3    H173834   2.779   2.376  13.515  2.0392  1.1857 -1.3073
17473TIP3    H273835   2.670   2.371  13.410  0.5930 -1.0416  0.2584
17474TIP3   OH273836   2.961   4.750   1.715 -0.1632 -0.3663  0.5514
17474TIP3    H173837   2.876   4.736   1.758 -1.8287  1.3173 -1.9956
17474TIP3    H273838   2.962   4.686   1.644 -0.2816  0.9850 -0.7041
17475TIP3   OH273839   1.056   6.638   2.103 -0.0706  0.2940 -0.3133
17475TIP3    H173840   0.964   6.613   2.094  0.1286 -1.2018  1.5595
17475TIP3    H273841   1.104   6.556   2.094  1.0034  0.8844 -0.0593
17476TIP3   OH273842   1.900   2.848  14.528  0.3559  0.2933 -0.0694
17476TIP3    H173843   1.954   2.835  14.606  1.3154  0.8391 -0.6364
17476TIP3    H273844   1.858   2.933  14.541 -0.1478  0.0036  0.2329
17477TIP3   OH273845   1.249   4.070  15.684  0.4048  0.3833  0.1739
17477TIP3    H173846   1.205   4.067  15.599 -0.3674 -0.9282  0.6052
17477TIP3    H273847   1.184   4.035  15.746  1.3645  0.2480  1.1182
17478TIP3   OH273848   3.360   0.207  11.551  0.1070  0.5111 -0.4194
17478TIP3    H173849   3.300   0.178  11.620 -0.4653  0.2878 -1.0080
17478TIP3    H273850   3.381   0.128  11.502  0.8749  0.5943 -0.2241
17479TIP3   OH273851   5.909   6.090  14.380 -0.2680  0.4602 -0.1236
17479TIP3    H173852   6.002   6.066  14.377 -0.2163  0.6520 -0.0543
17479TIP3    H273853   5.908   6.179  14.414 -0.3356  1.3187 -2.3080
17480TIP3   OH273854   6.753   4.581  10.663  0.2115  0.9681  0.2666
17480TIP3    H173855   6.721   4.593  10.574  2.1417  0.8282 -0.4669
17480TIP3    H273856   6.743   4.488  10.680 -0.1721  0.9981  0.2214
17481TIP3   OH273857   2.391   3.409   1.173 -0.1424  0.9773 -0.8824
17481TIP3    H173858   2.462   3.446   1.121  1.1446  1.6001  1.2855
17481TIP3    H273859   2.326   3.479   1.180 -1.1886  0.2927 -3.1638
17482TIP3   OH273860   3.670   1.032  17.179 -0.1508  0.0173  0.3946
17482TIP3    H173861   3.751   1.081  17.165  0.5169 -1.3294 -0.5158
17482TIP3    H273862   3.650   1.045  17.272  0.6864  0.9761  0.4448
17483TIP3   OH273863   4.985   2.660  16.979  0.0775  0.0573  0.4820
17483TIP3    H173864   5.072   2.679  17.014  1.2545 -1.1802 -1.6523
17483TIP3    H273865   4.981   2.565  16.974 -0.5060  0.1584 -1.5093
17484TIP3   OH273866   4.304   3.937  13.332 -0.1121 -0.0651  0.5577
17484TIP3    H173867   4.265   3.937  13.419 -0.8820  2.7043  0.2537
17484TIP3    H273868   4.361   4.014  13.331  0.0467 -0.1877 -1.3210
17485TIP3   OH273869   5.497   5.825   0.262 -0.0990  0.1271  0.6292
17485TIP3    H173870   5.434   5.890   0.231 -0.4322 -0.7110 -0.4785
17485TIP3    H273871   5.538   5.791   0.182  2.5405  1.4178  1.3518
17486TIP3   OH273872   5.538   0.303   2.030  0.0952  0.8157  0.5002
17486TIP3    H173873   5.597   0.274   2.099  1.3728 -0.8254 -1.2165
17486TIP3    H273874   5.473   0.233   2.024  0.3703  0.6319 -0.3901
17487TIP3   OH273875   3.089   0.019  13.733  0.3013 -0.2798  0.4538
17487TIP3    H173876   3.180   0.042  13.751  0.3538  0.9411 -1.1877
17487TIP3    H273877   3.039   0.096  13.760 -0.2083 -0.7713  0.9351
17488TIP3   OH273878   6.102   0.946   2.088 -0.5228 -0.3454 -0.0077
17488TIP3    H173879   6.107   0.863   2.040 -1.0733 -0.7212  0.5778
17488TIP3    H273880   6.060   0.924   2.171 -0.4456  0.4765  0.2591
17489TIP3   OH273881   6.713   6.495  11.081  0.1126  0.2963  0.1811
17489TIP3    H173882   6.808   6.502  11.072  0.3909  1.1834  3.5388
17489TIP3    H273883   6.681   6.585  11.075 -0.2525  0.2767  1.7748
17490TIP3   OH273884   5.520   0.308  12.513 -0.0162 -0.1474  0.2665
17490TIP3    H173885   5.439   0.291  12.562 -1.1490  1.7993 -0.8594
17490TIP3    H273886   5.537   0.227  12.466 -1.7576 -0.3275 -0.0817
17491TIP3   OH273887   3.847   0.569   5.038  0.0606  0.2878  0.2183
17491TIP3    H173888   3.931   0.559   4.994  0.5677  1.1269  0.9770
17491TIP3    H273889   3.791   0.613   4.974  0.7905  1.4995  0.3956
17492TIP3   OH273890   4.114   5.033  14.211  0.0086  0.5702 -0.4433
17492TIP3    H173891   4.198   4.991  14.228 -0.3852 -0.9287 -2.0908
17492TIP3    H273892   4.125   5.075  14.125 -1.1709 -0.2964 -1.0212
17493TIP3   OH273893   4.550   5.038  16.687  0.0818 -0.2677 -0.4799
17493TIP3    H173894   4.599   5.109  16.645  1.7713 -0.7031  0.6727
17493TIP3    H273895   4.530   4.977  16.616  2.2538 -0.6357 -0.8276
17494TIP3   OH273896   3.518   4.692  11.664  0.7200  0.7676 -0.5649
17494TIP3    H173897   3.504   4.722  11.754  2.9891  0.3494 -0.0639
17494TIP3    H273898   3.515   4.772  11.611  1.4518  1.2601  0.1308
17495TIP3   OH273899   1.889   1.065  15.748 -0.0694  0.2413  0.1951
17495TIP3    H173900   1.826   1.031  15.685  2.1792 -2.4594 -0.6971
17495TIP3    H273901   1.886   1.004  15.821  1.0779  0.4197  0.4067
17496TIP3   OH273902   2.073   5.804   5.301  0.7672 -0.2256 -0.0082
17496TIP3    H173903   2.123   5.836   5.226  0.3890 -1.6590 -0.9010
17496TIP3    H273904   2.001   5.867   5.310  0.5276 -0.3070 -1.1883
17497TIP3   OH273905   4.713   6.380  16.508  0.2640 -0.7488  0.0344
17497TIP3    H173906   4.622   6.386  16.479  1.0469 -0.9446 -2.5703
17497TIP3    H273907   4.736   6.469  16.533 -0.6932 -0.7317  0.8693
17498TIP3   OH273908   4.751   2.122   2.709 -0.0172 -0.4386  0.0129
17498TIP3    H173909   4.670   2.131   2.759 -0.0043  0.6578 -0.1477
17498TIP3    H273910   4.770   2.211   2.678  1.5684 -0.5745  0.5568
17499TIP3   OH273911   4.402   0.304  15.232  0.0968 -0.1727  0.6020
17499TIP3    H173912   4.355   0.339  15.157  0.3323 -0.7594  0.1739
17499TIP3    H273913   4.405   0.376  15.294  0.5886  0.5650 -0.2704
17500TIP3   OH273914   6.726   1.673  13.641 -0.4206 -0.2466 -0.3163
17500TIP3    H173915   6.665   1.724  13.588  0.4472  0.0388 -1.0580
17500TIP3    H273916   6.796   1.649  13.580  0.8703  0.5548  0.8125
17501TIP3   OH273917   1.976   1.780   0.004  0.0403  0.0251  0.3981
17501TIP3    H173918   1.916   1.730  -0.051  1.2623 -0.5789 -0.4109
17501TIP3    H273919   1.943   1.870  -0.000 -0.9796 -0.3550  0.2122
17502TIP3   OH273920   1.310   1.740   4.534 -0.4719 -0.5802  0.3698
17502TIP3    H173921   1.325   1.649   4.561  0.4908 -0.8747 -1.1082
17502TIP3    H273922   1.351   1.747   4.448 -2.0431  0.7978 -0.2875
17503TIP3   OH273923   2.676   6.653   6.497  0.1993 -0.0564  0.7538
17503TIP3    H173924   2.764   6.665   6.533  0.7312 -1.5432 -0.0420
17503TIP3    H273925   2.641   6.577   6.543  0.2818 -1.0023 -0.7386
17504TIP3   OH273926   0.739   5.419   0.926  0.2041 -0.2514 -0.2140
17504TIP3    H173927   0.648   5.394   0.913 -0.2524  0.2285  1.8805
17504TIP3    H273928   0.760   5.473   0.850 -1.5328  0.3734 -0.2776
17505TIP3   OH273929   1.833   6.025  13.302  0.6360  0.4040  0.1230
17505TIP3    H173930   1.753   5.988  13.265  0.1061  1.7447 -0.0747
17505TIP3    H273931   1.876   5.950  13.344 -1.2000 -0.1209  1.1232
17506TIP3   OH273932   4.179   0.679   4.184  0.1285 -0.5733  0.3479
17506TIP3    H173933   4.275   0.673   4.190  0.2216 -0.3908 -0.7983
17506TIP3    H273934   4.163   0.765   4.144 -0.5620 -0.1078  1.6103
17507TIP3   OH273935   0.360   1.864  13.375  0.7142 -0.2322  0.0250
17507TIP3    H173936   0.297   1.932  13.352 -0.0246 -0.5684  1.0120
17507TIP3    H273937   0.413   1.902  13.445 -1.3866 -1.5446  2.4203
17508TIP3   OH273938   6.777   6.460  10.791  0.2962 -0.1572  0.2116
17508TIP3    H173939   6.805   6.550  10.811 -1.2420  0.5634 -0.7951
17508TIP3    H273940   6.835   6.432  10.721  0.1256  0.4287 -0.1685
17509TIP3   OH273941   2.107   5.900   2.388  0.4883  0.1273 -0.3147
17509TIP3    H173942   2.035   5.932   2.442 -0.1398  2.3452 -2.3621
17509TIP3    H273943   2.168   5.859   2.450 -2.1470 -1.1144  1.5286
17510TIP3   OH273944   5.692   6.120  13.073  0.5843 -0.0405  0.0842
17510TIP3    H173945   5.608   6.165  13.071 -0.7241 -2.3693  0.3686
17510TIP3    H273946   5.674   6.039  13.121  2.2824 -1.8786 -2.2424
17511TIP3   OH273947   2.931   2.203  12.803  0.0393 -0.0628 -0.4633
17511TIP3    H173948   2.869   2.206  12.876  0.1305  0.8799 -0.4266
17511TIP3    H273949   2.892   2.259  12.736  0.9313  0.6425 -0.3834
17512TIP3   OH273950   0.234   2.935  10.683 -0.3533 -0.2206 -0.5523
17512TIP3    H173951   0.165   2.870  10.670 -0.6843 -0.0579  0.3863
17512TIP3    H273952   0.305   2.906  10.626 -1.5110  0.0800 -2.1980
17513TIP3   OH273953   0.776   2.109   0.126 -0.0919 -0.7105 -0.2062
17513TIP3    H173954   0.865   2.088   0.097  1.7209  1.5552  3.3555
17513TIP3    H273955   0.755   2.039   0.189 -0.6736 -1.0027 -0.7205
17514TIP3   OH273956   6.087   4.247   2.097 -0.0566 -0.1367 -0.0913
17514TIP3    H173957   6.129   4.234   2.011  0.3900  2.9222 -0.3922
17514TIP3    H273958   5.996   4.220   2.083  0.1511 -0.2328 -1.3464
17515TIP3   OH273959   0.894   3.707   3.500  0.2971  0.5543 -0.8016
17515TIP3    H173960   0.918   3.620   3.532  1.0608  0.5395 -1.3953
17515TIP3    H273961   0.978   3.750   3.484 -0.0282  2.3089  1.9108
17516TIP3   OH273962   2.803   5.949   3.653  0.0558  0.0785  0.0520
17516TIP3    H173963   2.759   6.033   3.641 -0.4890 -0.2507 -0.2723
17516TIP3    H273964   2.786   5.926   3.745  0.2328  0.3364  0.1494
17517TIP3   OH273965   1.817   0.146   1.049  0.3990  0.0478 -0.0568
17517TIP3    H173966   1.886   0.085   1.073 -0.2946 -1.9304 -2.9608
17517TIP3    H273967   1.735   0.100   1.069 -0.1588  1.5808  1.4174
17518TIP3   OH273968   0.266   1.673   4.256 -0.3007  0.4359 -0.7667
17518TIP3    H173969   0.340   1.623   4.291  0.8854  2.0723 -0.9263
17518TIP3    H273970   0.190   1.639   4.304  0.5686 -1.0499 -0.4007
17519TIP3   OH273971   2.760   2.163   2.710  0.3670 -1.0670  0.3324
17519TIP3    H173972   2.795   2.168   2.799 -0.5170 -3.2105  0.8406
17519TIP3    H273973   2.832   2.129   2.658  0.8427  0.0623  0.2351
17520TIP3   OH273974   4.575   3.281   2.754 -0.2528 -0.3984 -0.1158
17520TIP3    H173975   4.660   3.312   2.785 -0.5280  1.3582 -1.0594
17520TIP3    H273976   4.590   3.191   2.728  1.4988  0.1224 -0.9552
17521TIP3   OH273977   0.992   4.355  12.746 -0.2675  0.1272 -0.2376
17521TIP3    H173978   0.954   4.433  12.786  0.5038 -0.5318  1.8257
17521TIP3    H273979   1.085   4.359  12.767 -0.0057 -0.7148 -1.1762
17522TIP3   OH273980   6.316   3.920  13.020 -0.6067  0.3276  0.7750
17522TIP3    H173981   6.262   3.846  12.994  0.1887 -0.1455  0.4599
17522TIP3    H273982   6.363   3.890  13.098  0.9425 -0.0802 -0.2923
17523TIP3   OH273983   0.135   4.259   3.300 -0.4212 -0.2620 -0.1228
17523TIP3    H173984   0.182   4.300   3.374 -0.5990  0.2411 -0.2877
17523TIP3    H273985   0.205   4.226   3.243 -0.2136  2.0442 -1.2526
17524TIP3   OH273986   3.543   1.256  13.474 -0.3891  0.3236 -0.6147
17524TIP3    H173987   3.478   1.238  13.406 -0.8330  0.6970 -0.2956
17524TIP3    H273988   3.590   1.333  13.442 -0.9525  0.8244 -0.2579
17525TIP3   OH273989   0.993   4.367   0.587 -0.2507  0.1026 -0.0664
17525TIP3    H173990   0.970   4.341   0.676  0.7488  2.5361  0.9215
17525TIP3    H273991   0.921   4.334   0.533 -1.0520 -1.0603  1.6693
17526TIP3   OH273992   5.890   3.569   1.735  0.6456  0.0385 -0.6572
17526TIP3    H173993   5.938   3.621   1.801  1.5979 -1.3281 -0.2588
17526TIP3    H273994   5.798   3.576   1.762  0.9518  0.0938  0.3969
17527TIP3   OH273995   3.710   2.643  11.550  0.1144 -0.1267  0.0575
17527TIP3    H173996   3.805   2.641  11.557  0.1860 -1.9357 -1.0958
17527TIP3    H273997   3.693   2.642  11.455 -1.0704 -1.8944  0.2723
17528TIP3   OH273998   6.525   1.160   5.390 -0.7059  0.2579  0.4269
17528TIP3    H173999   6.444   1.150   5.440 -0.6885 -0.1445  0.3765
17528TIP3    H274000   6.497   1.200   5.307 -1.0305 -1.0110 -0.0870
17529TIP3   OH274001   5.526   4.964  15.490 -0.0778  0.1419 -0.4385
17529TIP3    H174002   5.450   4.907  15.479 -0.0884  0.3610 -1.4993
17529TIP3    H274003   5.570   4.962  15.405  1.5055 -0.5621  0.3728
17530TIP3   OH274004   6.012   4.823  14.551 -0.0884  0.3279 -0.5622
17530TIP3    H174005   6.008   4.887  14.480 -0.5301 -0.6038 -1.3886
17530TIP3    H274006   6.105   4.804  14.561  0.0354  1.0729 -0.3488
17531TIP3   OH274007   0.015   3.333   1.395 -0.0378  0.6716  0.2515
17531TIP3    H174008   0.028   3.319   1.489 -0.1264  0.4464  0.2317
17531TIP3    H274009  -0.063   3.281   1.374  1.4163 -1.3411 -0.4276
17532TIP3   OH274010   2.351   4.820   5.161  0.3274 -0.5529 -0.2624
17532TIP3    H174011   2.414   4.751   5.177  1.2903  0.2386 -0.5731
17532TIP3    H274012   2.351   4.872   5.241  1.2768  0.3795 -0.8518
17533TIP3   OH274013   5.574   3.611   5.552  0.5865  0.2627 -0.1578
17533TIP3    H174014   5.482   3.589   5.544  1.3441 -3.0845 -0.4193
17533TIP3    H274015   5.616   3.570   5.476  2.3293  1.5305  0.0754
17534TIP3   OH274016   5.878   3.716  13.208 -0.6486 -0.4340 -0.3313
17534TIP3    H174017   5.879   3.630  13.168 -2.6237 -0.4193 -0.4552
17534TIP3    H274018   5.886   3.777  13.135  2.8338 -0.4891 -0.0943
17535TIP3   OH274019   1.098   0.601   1.340  0.0306  0.4388  0.3392
17535TIP3    H174020   1.072   0.570   1.427  0.2428  0.1775  0.3124
17535TIP3    H274021   1.152   0.678   1.357 -1.1786  1.2935  0.3725
17536TIP3   OH274022   2.971   1.257   1.967 -0.5044 -0.8671  0.0943
17536TIP3    H174023   2.952   1.194   1.898 -2.9859 -1.3923  1.1863
17536TIP3    H274024   2.907   1.327   1.954 -0.1334 -0.3370  1.0441
17537TIP3   OH274025   0.060   6.326   4.842 -0.0604  0.2763 -0.1213
17537TIP3    H174026   0.009   6.356   4.767 -1.7821  2.4187  1.8364
17537TIP3    H274027  -0.003   6.322   4.914  1.4618 -2.1305  1.1370
17538TIP3   OH274028   4.369   2.740   1.552 -0.1648  0.1939 -0.0586
17538TIP3    H174029   4.399   2.700   1.471  1.1683  2.7707 -0.9062
17538TIP3    H274030   4.437   2.804   1.574 -0.9666  0.2244  2.5766
17539TIP3   OH274031   3.603   3.641   4.237 -0.2576  0.3943  0.1482
17539TIP3    H174032   3.692   3.632   4.272  0.4626  1.5464 -1.3470
17539TIP3    H274033   3.608   3.603   4.149 -0.8169  1.9505 -0.5684
17540TIP3   OH274034   2.336   6.199   4.168 -0.3336  0.0875  0.5050
17540TIP3    H174035   2.415   6.215   4.117  0.4044  2.0295  2.2061
17540TIP3    H274036   2.367   6.161   4.251 -1.1689  0.8370  1.1745
17541TIP3   OH274037   2.007   0.365  12.869 -0.1757  0.0679  0.0473
17541TIP3    H174038   1.962   0.320  12.797 -1.7005 -0.5701  1.3833
17541TIP3    H274039   1.966   0.452  12.872  0.8916  0.6068 -0.7788
17542TIP3   OH274040   5.660   3.045   2.156 -0.0256 -0.3912 -0.5819
17542TIP3    H174041   5.633   2.980   2.090  0.7300  0.8702 -2.1761
17542TIP3    H274042   5.754   3.056   2.142 -0.0060  0.4719  0.2033
17543TIP3   OH274043   6.724   1.345   1.773 -0.3515 -0.6435 -0.2375
17543TIP3    H174044   6.721   1.255   1.741 -2.4556 -0.6867  0.0671
17543TIP3    H274045   6.642   1.358   1.820  0.8979  0.7335  1.6501
17544TIP3   OH274046   6.301   4.319  12.013 -0.2816  0.0138 -0.0719
17544TIP3    H174047   6.380   4.271  11.989  0.3774  0.0310  2.0109
17544TIP3    H274048   6.310   4.403  11.969 -0.4123 -0.9393 -1.9807
17545TIP3   OH274049   6.693   6.095   5.244  0.3532 -0.6204 -0.4119
17545TIP3    H174050   6.633   6.101   5.318  0.3583 -0.8863 -0.3834
17545TIP3    H274051   6.659   6.158   5.180  0.9899  0.4041  0.2548
17546TIP3   OH274052   1.299   0.953   4.295  0.5419  0.1381 -0.1767
17546TIP3    H174053   1.275   0.929   4.385  1.6448 -2.7555 -0.5996
17546TIP3    H274054   1.393   0.970   4.300  0.6066 -0.0508 -0.8029
17547TIP3   OH274055   6.497   5.187   3.289  0.7490  0.3032  0.3198
17547TIP3    H174056   6.554   5.234   3.228 -1.7787  0.2896 -2.1050
17547TIP3    H274057   6.530   5.097   3.288  1.4955  0.5758 -0.0413
17548TIP3   OH274058   1.257   5.866   1.127  0.1149 -0.3584 -0.3243
17548TIP3    H174059   1.167   5.855   1.156  0.8080  0.4557  2.3102
17548TIP3    H274060   1.251   5.916   1.045 -1.7554  0.5682  0.3691
17549TIP3   OH274061   1.375   5.217   3.694 -0.0811  0.4703 -0.0776
17549TIP3    H174062   1.390   5.303   3.655  0.0304 -0.2234 -1.6015
17549TIP3    H274063   1.318   5.172   3.632 -2.1218  0.2717  1.8519
17550TIP3   OH274064   5.019   4.366   5.838 -0.3830 -0.5757  0.1194
17550TIP3    H174065   5.074   4.428   5.886 -0.2426  0.4906 -1.3670
17550TIP3    H274066   4.946   4.419   5.805 -2.2862 -1.9662  1.9957
17551TIP3   OH274067   0.949   2.840   2.833 -0.3653 -0.1130 -0.2305
17551TIP3    H174068   0.999   2.907   2.879  2.2583 -1.2714 -1.2637
17551TIP3    H274069   0.900   2.888   2.766  1.6386  0.8002 -1.0950
17552TIP3   OH274070   6.542   4.970  16.367  0.2468  0.2239  0.5943
17552TIP3    H174071   6.556   4.934  16.455  1.9767 -0.0488  0.2372
17552TIP3    H274072   6.529   4.893  16.312 -0.0414  0.3508  0.4851
17553TIP3   OH274073   0.676   4.709   3.151 -0.2133  0.3404  0.0328
17553TIP3    H174074   0.738   4.649   3.110  0.6757  0.9733  0.4349
17553TIP3    H274075   0.715   4.730   3.236  0.3164  2.7453 -0.7644
17554TIP3   OH274076   3.699   4.812  10.931 -0.0110  0.3619 -0.3295
17554TIP3    H174077   3.701   4.907  10.926  3.1657  0.4528  1.4169
17554TIP3    H274078   3.612   4.792  10.968 -0.5023  2.5905 -0.2165
17555TIP3   OH274079   5.995   3.461   4.447 -0.2467 -0.5223 -0.0047
17555TIP3    H174080   5.995   3.367   4.464 -2.5981 -0.4850  0.4684
17555TIP3    H274081   5.981   3.467   4.352 -0.1481 -0.6529 -0.0273
17556TIP3   OH274082   4.355   3.648  11.970  0.4416  0.2178  0.5981
17556TIP3    H174083   4.369   3.742  11.965  1.0295  0.1306  0.5098
17556TIP3    H274084   4.343   3.630  12.063  1.0335  0.2896  0.6923
17557TIP3   OH274085   0.387   3.833   5.373 -0.4178  0.0624  0.7610
17557TIP3    H174086   0.363   3.832   5.466 -2.2881  1.5406  0.3212
17557TIP3    H274087   0.419   3.922   5.357 -1.5450  0.2785 -0.3534
17558TIP3   OH274088   3.226   1.663   5.570  0.1454 -0.0907  0.4859
17558TIP3    H174089   3.171   1.742   5.577  0.4414  0.0936  0.7626
17558TIP3    H274090   3.167   1.591   5.593  0.2306  0.1864  1.6363
17559TIP3   OH274091   6.049   4.683   4.399 -0.4478  0.2506 -0.1729
17559TIP3    H174092   6.082   4.773   4.395 -1.1817  0.6052  1.3380
17559TIP3    H274093   5.954   4.693   4.395 -0.5027 -0.5335 -0.9789
17560TIP3   OH274094   6.617   5.335  11.474 -0.3793  0.8255 -0.2044
17560TIP3    H174095   6.622   5.254  11.423 -1.3923 -0.8409  2.2522
17560TIP3    H274096   6.673   5.319  11.550 -0.6205  2.4271  0.3217
17561TIP3   OH274097   4.837   6.247   0.584  0.2730  1.0303  0.3914
17561TIP3    H174098   4.762   6.281   0.632  0.3794  0.8712  0.6734
17561TIP3    H274099   4.841   6.155   0.609  0.5886  1.0489  0.4078
17562TIP3   OH274100   0.952   2.244  10.929  0.2073 -0.2314  0.7624
17562TIP3    H174101   0.974   2.163  10.884 -4.1971 -2.0821  1.6389
17562TIP3    H274102   0.974   2.227  11.021  0.2367 -0.0586  0.7867
17563TIP3   OH274103   1.900   0.689  11.024 -0.3573  0.3061 -0.0412
17563TIP3    H174104   1.890   0.632  10.947  0.1658  0.5637 -0.2969
17563TIP3    H274105   1.911   0.777  10.989  2.5713  0.0930  0.2214
17564TIP3   OH274106   4.843   5.272   1.269  0.2515 -0.1334  0.2677
17564TIP3    H174107   4.767   5.281   1.327  1.4573  1.3334  1.6795
17564TIP3    H274108   4.909   5.230   1.324  0.7960 -0.4691 -0.6384
17565TIP3   OH274109   1.740   4.072  15.436 -0.4920  0.3418  0.1608
17565TIP3    H174110   1.783   4.074  15.351  1.8668 -1.0070  1.2719
17565TIP3    H274111   1.667   4.011  15.424  0.0974 -0.1957 -0.7650
17566TIP3   OH274112   5.749   1.489   4.168 -0.1214 -0.2519 -0.5656
17566TIP3    H174113   5.820   1.451   4.116  0.3828 -0.6379  0.3721
17566TIP3    H274114   5.720   1.417   4.224  0.2517  0.4880  0.6070
17567TIP3   OH274115   1.225   2.277  12.455  0.1036 -0.6019  0.1591
17567TIP3    H174116   1.281   2.202  12.434  1.2992 -0.3911  2.3424
17567TIP3    H274117   1.287   2.348  12.472 -0.9690  0.5200 -0.5515
17568TIP3   OH274118   5.596   1.401   5.288  0.8187  0.1471  0.0282
17568TIP3    H174119   5.682   1.364   5.268  1.6449  1.7564  0.4841
17568TIP3    H274120   5.605   1.495   5.269 -0.8011  0.3450  0.1665
17569TIP3   OH274121   3.880   6.250   4.890 -0.0137 -0.0394 -0.1006
17569TIP3    H174122   3.807   6.295   4.846 -0.8599  0.7704  2.0987
17569TIP3    H274123   3.958   6.291   4.854 -0.7256  1.4760  0.0385
17570TIP3   OH274124   3.845   2.361   2.781 -0.2017  0.1764 -0.3713
17570TIP3    H174125   3.833   2.286   2.723 -0.9299  0.0001 -0.0073
17570TIP3    H274126   3.760   2.370   2.825  0.4363  0.0986  0.9006
17571TIP3   OH274127   6.435   1.064  12.574  0.2496 -0.4040 -0.2364
17571TIP3    H174128   6.370   1.035  12.638  0.1614 -0.4331 -0.3403
17571TIP3    H274129   6.496   0.990  12.567 -0.0874 -0.6394 -0.6519
17572TIP3   OH274130   1.097   0.305   0.004  0.3193  0.0659 -0.1607
17572TIP3    H174131   1.076   0.319   0.097  1.8797 -0.0753  0.2291
17572TIP3    H274132   1.193   0.303   0.002  0.2888  0.2172 -1.8068
17573TIP3   OH274133   4.866   2.891  15.868 -0.1333 -0.3093  0.1961
17573TIP3    H174134   4.948   2.860  15.830 -1.4125 -0.9392 -2.0962
17573TIP3    H274135   4.856   2.980  15.834 -0.5568 -0.3264  0.2788
17574TIP3   OH274136   3.706   3.730   2.405 -0.4588  0.0661 -0.1613
17574TIP3    H174137   3.616   3.701   2.385 -0.7566 -0.7982  2.2657
17574TIP3    H274138   3.705   3.746   2.499  1.4980  1.7443 -0.4067
17575TIP3   OH274139   1.132   6.319  14.296 -0.3051 -0.3123 -0.0852
17575TIP3    H174140   1.041   6.296  14.278 -0.2450 -0.9449  0.4072
17575TIP3    H274141   1.176   6.235  14.305  0.5075 -0.0221 -1.1890
17576TIP3   OH274142   2.891   0.882   1.469  0.1308  0.2909  0.4886
17576TIP3    H174143   2.965   0.845   1.421 -0.4555  0.4800 -0.5834
17576TIP3    H274144   2.859   0.810   1.524  0.5047 -0.0687  0.2396
17577TIP3   OH274145   5.693   2.587   2.949 -0.6286 -0.1881 -0.0511
17577TIP3    H174146   5.663   2.572   3.039 -1.4281  0.9889 -0.0948
17577TIP3    H274147   5.627   2.545   2.895 -0.4490 -0.4145 -0.0926
17578TIP3   OH274148   5.167   4.696  13.638  0.5218 -0.0195  0.1135
17578TIP3    H174149   5.187   4.789  13.647  2.2536 -0.3257 -0.4080
17578TIP3    H274150   5.148   4.666  13.727  1.1834  0.5588  0.4469
17579TIP3   OH274151   0.681   0.909   2.646 -0.3651  0.4265  0.3531
17579TIP3    H174152   0.636   0.896   2.562 -1.9451 -0.2658  1.2800
17579TIP3    H274153   0.746   0.839   2.650 -0.3394  0.4130 -0.2540
17580TIP3   OH274154   5.448   0.327   1.469  0.5262  0.2879  0.1036
17580TIP3    H174155   5.399   0.368   1.397  1.0244 -0.1875 -0.5158
17580TIP3    H274156   5.538   0.358   1.456  0.6754 -0.0483  0.3345
17581TIP3   OH274157   4.542   0.506  12.692 -0.4173 -0.2205 -0.5639
17581TIP3    H174158   4.453   0.533  12.671 -0.6939 -0.6144  0.0766
17581TIP3    H274159   4.532   0.419  12.730  0.2131 -0.1535 -0.2354
17582TIP3   OH274160   4.640   4.025   1.141 -0.9524  0.1609 -0.0085
17582TIP3    H174161   4.549   4.038   1.116 -0.8723 -1.2604 -1.1167
17582TIP3    H274162   4.678   3.974   1.069  0.9435  1.4872  0.0211
17583TIP3   OH274163   4.794   4.464   4.912  0.0959 -0.1319  0.1184
17583TIP3    H174164   4.718   4.420   4.875 -0.5507  0.8668  0.2371
17583TIP3    H274165   4.813   4.416   4.993 -0.5210 -0.2551  0.1877
17584TIP3   OH274166   5.268   2.371  10.869  0.1517  0.6589 -0.0254
17584TIP3    H174167   5.317   2.303  10.823 -0.6948  0.5679 -0.8146
17584TIP3    H274168   5.179   2.337  10.874 -0.1598  1.4733  0.0650
17585TIP3   OH274169   3.948   2.697  15.336  0.2754 -0.0581  0.3611
17585TIP3    H174170   3.926   2.699  15.429  0.8511  0.5143  0.4946
17585TIP3    H274171   3.866   2.676  15.291 -0.2257  0.7046  0.9235
17586TIP3   OH274172   4.841   4.250   1.819  0.8685  0.0716 -0.2819
17586TIP3    H174173   4.767   4.286   1.770 -0.2567 -0.6746  0.8263
17586TIP3    H274174   4.855   4.163   1.781  1.6335  0.4764 -0.9466
17587TIP3   OH274175   6.126   5.700   0.711 -0.5212 -0.1995  0.0380
17587TIP3    H174176   6.221   5.713   0.713 -0.4834 -0.6218  1.1755
17587TIP3    H274177   6.101   5.685   0.802 -1.4908 -1.4285 -0.4075
17588TIP3   OH274178   2.499   5.734   3.286 -0.3598 -0.2763  0.4216
17588TIP3    H174179   2.593   5.752   3.278 -0.1425 -1.9326 -0.9745
17588TIP3    H274180   2.482   5.735   3.380  0.7518  1.4660  0.6330
17589TIP3   OH274181   4.520   2.086   3.415 -0.4234 -0.5559 -0.4329
17589TIP3    H174182   4.538   1.992   3.416  2.4762 -0.0543  0.2627
17589TIP3    H274183   4.507   2.110   3.507 -2.0578 -0.4243 -0.6907
17590TIP3   OH274184   2.763   6.106   6.055 -0.0835 -0.4157 -0.0899
17590TIP3    H174185   2.720   6.040   6.110 -0.3102 -0.0430  0.1843
17590TIP3    H274186   2.807   6.164   6.117 -0.9854  0.4540 -0.2536
17591TIP3   OH274187   4.539   4.571   0.583 -0.4809  0.7546  0.2001
17591TIP3    H174188   4.543   4.635   0.513  3.2679 -1.8718 -2.1999
17591TIP3    H274189   4.487   4.499   0.547 -1.3731  0.7892  1.3945
17592TIP3   OH274190   3.566   0.040   0.726 -0.2078 -0.0736 -0.0134
17592TIP3    H174191   3.500   0.107   0.742 -1.3380 -1.1816  0.0624
17592TIP3    H274192   3.568   0.031   0.630 -0.0049  0.1093 -0.0276
17593TIP3   OH274193   6.347   6.235   3.457 -0.0728 -0.3570 -0.0726
17593TIP3    H174194   6.325   6.327   3.439 -0.2244 -0.3049  0.3622
17593TIP3    H274195   6.436   6.239   3.492  0.8140 -0.6141 -2.2515
17594TIP3   OH274196   2.530   4.966  14.704  0.2270  0.4738  0.6274
17594TIP3    H174197   2.582   5.021  14.645  0.9198 -0.3824  0.4409
17594TIP3    H274198   2.508   4.888  14.653 -0.0648  0.2006  1.1602
17595TIP3   OH274199   1.098   0.284  12.826  0.1392 -0.1980 -0.1232
17595TIP3    H174200   1.116   0.269  12.733  2.5144  3.4470 -0.3162
17595TIP3    H274201   1.048   0.366  12.828  3.1304  1.6572  1.9845
17596TIP3   OH274202   1.596   1.440   3.627 -0.2182 -0.5547  0.6321
17596TIP3    H174203   1.638   1.435   3.542 -0.5756 -1.2147  0.4958
17596TIP3    H274204   1.555   1.355   3.639 -0.4783 -0.3382  1.3033
17597TIP3   OH274205   6.756   0.715   3.540 -0.2972 -0.2952 -0.1691
17597TIP3    H174206   6.795   0.802   3.528 -2.2658  0.4974 -1.1872
17597TIP3    H274207   6.799   0.661   3.474  0.7999 -0.0656  0.3367
17598TIP3   OH274208   6.601   3.135  12.234  0.0258  0.1737 -0.0177
17598TIP3    H174209   6.524   3.088  12.265 -0.7814 -0.3673 -2.7162
17598TIP3    H274210   6.632   3.183  12.311  0.1832 -3.7656  2.5858
17599TIP3   OH274211   5.925   5.828   5.262  0.1974  0.3130  0.2318
17599TIP3    H174212   5.985   5.786   5.323  0.2237 -0.9382 -0.6376
17599TIP3    H274213   5.917   5.918   5.294  1.3950  0.0898  1.1872
17600TIP3   OH274214   3.824   2.801   1.667 -0.1603 -0.1447 -0.3008
17600TIP3    H174215   3.860   2.744   1.735  0.4658 -0.2788 -0.7452
17600TIP3    H274216   3.764   2.859   1.714  1.3769  0.7491  0.6112
17601TIP3   OH274217   4.549   2.718   5.659  0.3678  0.3948  0.0670
17601TIP3    H174218   4.508   2.803   5.676 -1.0325 -0.1105 -0.6630
17601TIP3    H274219   4.610   2.706   5.732 -0.1645  1.5646  0.7255
17602TIP3   OH274220   3.794   5.755   0.116 -0.5714 -0.2548  0.3094
17602TIP3    H174221   3.862   5.821   0.131 -1.2863  0.8621 -1.2393
17602TIP3    H274222   3.838   5.671   0.132  1.0675  0.4709 -0.2996
17603TIP3   OH274223   5.833   5.047  14.550 -0.4230 -0.2206  0.3511
17603TIP3    H174224   5.899   5.075  14.487 -0.5498 -2.3814 -0.7953
17603TIP3    H274225   5.756   5.101  14.530  0.1517  0.4488 -0.0581
17604TIP3   OH274226   3.519   2.735   1.274 -0.2582  0.5724  0.1490
17604TIP3    H174227   3.540   2.795   1.345 -0.2919  1.7132 -0.7999
17604TIP3    H274228   3.517   2.789   1.195 -0.6966 -0.5887 -0.6636
17605TIP3   OH274229   3.199   5.536   1.383  0.6414  0.1955 -0.1003
17605TIP3    H174230   3.277   5.487   1.354  2.1645  0.9521  2.5187
17605TIP3    H274231   3.160   5.480   1.450  0.1889  0.8461  0.1769
17606TIP3   OH274232   2.012   0.207  15.795  0.0521  0.2607  0.6052
17606TIP3    H174233   1.964   0.159  15.862 -0.3943 -2.2837 -1.4521
17606TIP3    H274234   2.101   0.214  15.829 -0.4914  0.2333  2.0554
17607TIP3   OH274235   4.834   3.298   5.790 -0.1383 -0.1087  0.4050
17607TIP3    H174236   4.851   3.372   5.848 -0.1709  1.6850 -1.7904
17607TIP3    H274237   4.922   3.266   5.766 -0.1301 -1.1757  1.8138
17608TIP3   OH274238   1.576   6.497  13.308 -0.5382  0.3513 -0.0143
17608TIP3    H174239   1.609   6.407  13.301  3.5958  1.6281  1.6024
17608TIP3    H274240   1.625   6.545  13.241 -0.1540  2.0600  1.4716
17609TIP3   OH274241   1.679   1.525  13.295 -0.0126 -0.4182  0.1535
17609TIP3    H174242   1.691   1.539  13.201 -0.5010  0.0243  0.1581
17609TIP3    H274243   1.701   1.609  13.335 -0.9589 -0.2485  0.3386
17610TIP3   OH274244   2.629   1.908  12.676  0.4916 -0.4531 -0.6452
17610TIP3    H174245   2.624   1.967  12.751  1.0029 -0.8520 -0.2967
17610TIP3    H274246   2.543   1.866  12.673  0.4457 -0.3873 -0.3193
17611TIP3   OH274247   6.606   3.732  16.192  0.1827 -0.4645 -0.0824
17611TIP3    H174248   6.555   3.729  16.111  0.6024 -2.5729 -0.3085
17611TIP3    H274249   6.688   3.776  16.167 -0.4396  0.5588 -0.3450
17612TIP3   OH274250   4.558   2.360  14.366  0.1018  0.3514  0.5637
17612TIP3    H174251   4.533   2.303  14.439  0.5161  0.1737  0.5712
17612TIP3    H274252   4.484   2.419  14.355 -0.5488 -0.5265  0.2241
17613TIP3   OH274253   1.367   5.415   2.558 -0.0111  0.3329  0.6592
17613TIP3    H174254   1.310   5.339   2.560  0.4960 -0.0228  1.8331
17613TIP3    H274255   1.318   5.484   2.602  0.0513  0.3249  0.7404
17614TIP3   OH274256   2.338   1.090  13.740  0.4940 -0.4101  0.5412
17614TIP3    H174257   2.320   1.144  13.663 -1.1263 -1.8874 -0.1489
17614TIP3    H274258   2.429   1.108  13.762  0.5578  1.0563 -0.9046
17615TIP3   OH274259   4.065   5.599  12.748  0.2749  0.1626 -0.1969
17615TIP3    H174260   4.032   5.683  12.780 -1.7381 -0.6940  0.0330
17615TIP3    H274261   4.050   5.538  12.820  0.9857 -0.5520 -0.6568
17616TIP3   OH274262   4.609   3.706   2.333  0.2584  0.2501 -0.3479
17616TIP3    H174263   4.599   3.613   2.313 -1.5918  0.5142 -0.7357
17616TIP3    H274264   4.629   3.747   2.249 -1.7168  0.5624 -0.6934
17617TIP3   OH274265   0.824   0.039  12.655 -0.0218 -0.0930 -0.1744
17617TIP3    H174266   0.909   0.002  12.680  0.3597  0.8588 -0.0603
17617TIP3    H274267   0.820   0.122  12.701  1.5803  2.6989 -4.7426
17618TIP3   OH274268   4.550   4.386  13.790  0.3757  0.1166  0.0284
17618TIP3    H174269   4.513   4.366  13.704  0.0903  1.2054 -0.1093
17618TIP3    H274270   4.591   4.304  13.818 -1.3292 -0.8337 -0.2120
17619TIP3   OH274271   6.110   2.436  16.437 -0.1730  0.1496  0.7054
17619TIP3    H174272   6.170   2.403  16.504  0.7138 -1.0006 -0.6138
17619TIP3    H274273   6.157   2.507  16.395 -0.4263  0.3800  0.8142
17620TIP3   OH274274   0.800   6.088  14.936 -1.1179  0.3268  0.3454
17620TIP3    H174275   0.776   5.998  14.958 -1.0813  0.2660  0.1343
17620TIP3    H274276   0.788   6.094  14.841  0.3073  0.1079  0.1321
17621TIP3   OH274277   1.376   4.623  15.512 -0.2591  0.1219 -0.1277
17621TIP3    H174278   1.421   4.683  15.453  0.0160 -0.1471 -0.1961
17621TIP3    H274279   1.422   4.632  15.596  2.6696 -3.1694 -1.2361
17622TIP3   OH274280   6.586   3.313  15.692  0.3735 -0.0140 -0.4641
17622TIP3    H174281   6.666   3.364  15.700 -0.3978  1.5943 -2.5009
17622TIP3    H274282   6.530   3.364  15.632 -1.4830 -1.9237 -0.4488
17623TIP3   OH274283   0.173   4.468   1.698 -0.0315 -0.3410  0.3608
17623TIP3    H174284   0.170   4.487   1.792 -0.2537  1.5269 -0.0046
17623TIP3    H274285   0.121   4.387   1.688 -2.0697  0.7710  1.5344
17624TIP3   OH274286   6.178   2.257   1.374  0.0833 -0.8177  0.3331
17624TIP3    H174287   6.110   2.317   1.405  0.2059 -0.3448 -0.3005
17624TIP3    H274288   6.140   2.170   1.386 -0.1852 -0.6091  1.0470
17625TIP3   OH274289   1.780   4.047  14.732 -0.0347  0.3690  0.1616
17625TIP3    H174290   1.724   3.979  14.771 -1.3877  1.8458  0.8570
17625TIP3    H274291   1.739   4.067  14.648  0.3182  0.3836 -0.0073
17626TIP3   OH274292   3.803   5.076   4.314  0.1622  0.0927 -0.1703
17626TIP3    H174293   3.818   5.097   4.406 -1.4590  1.9525 -0.2867
17626TIP3    H274294   3.789   5.161   4.272 -0.9233 -0.8484 -1.7860
17627TIP3   OH274295   5.321   2.633  13.195 -0.1273 -0.1604  0.2908
17627TIP3    H174296   5.404   2.681  13.189 -0.4467  0.1247 -3.2316
17627TIP3    H274297   5.343   2.543  13.172 -0.2428 -0.8400  2.7637
17628TIP3   OH274298   6.756   4.772   2.844  0.0670 -0.0505  0.5225
17628TIP3    H174299   6.817   4.810   2.907  0.3546 -0.6967  0.6402
17628TIP3    H274300   6.799   4.691   2.815 -0.3186 -0.0469 -0.0786
17629TIP3   OH274301   1.448   6.301  12.206 -0.4972 -1.2467 -0.4093
17629TIP3    H174302   1.476   6.382  12.164 -0.8985 -0.7911  0.2106
17629TIP3    H274303   1.363   6.321  12.245  0.5145 -1.2644  1.8491
17630TIP3   OH274304   5.182   0.746  13.292 -0.2061 -0.3798 -0.1599
17630TIP3    H174305   5.199   0.840  13.289  1.9645 -0.7397 -0.4089
17630TIP3    H274306   5.231   0.711  13.217 -0.7360 -1.7309  0.1156
17631TIP3   OH274307   3.147   1.629  15.037  0.4064 -0.5137  0.1028
17631TIP3    H174308   3.128   1.591  14.951 -0.0946 -1.0024  0.4224
17631TIP3    H274309   3.197   1.561  15.082 -0.0383 -0.5890  0.4869
17632TIP3   OH274310   3.407   4.850  11.888 -0.8154 -0.1621  0.7156
17632TIP3    H174311   3.356   4.899  11.823 -0.9512 -0.6992  0.4050
17632TIP3    H274312   3.448   4.916  11.943  0.8469  0.3483 -1.0868
17633TIP3   OH274313   3.285   2.786  12.916  0.1288  0.1326 -0.3800
17633TIP3    H174314   3.193   2.795  12.891  0.0679 -1.4385 -0.7321
17633TIP3    H274315   3.291   2.834  12.999 -0.2349  3.1397 -2.0089
17634TIP3   OH274316   3.444   5.301   1.418  0.2444  0.3270 -0.1835
17634TIP3    H174317   3.516   5.352   1.455 -0.9353  0.9446  1.3105
17634TIP3    H274318   3.436   5.225   1.476  1.7938 -1.4610 -2.2211
17635TIP3   OH274319   4.531   1.514   1.482 -0.6588 -0.4080 -0.6507
17635TIP3    H174320   4.528   1.434   1.533  0.4583  0.4119  0.7525
17635TIP3    H274321   4.557   1.486   1.394 -1.2982 -1.6780 -0.4474
17636TIP3   OH274322   1.411   1.140   2.891  0.7830  0.4776  0.0505
17636TIP3    H174323   1.471   1.066   2.882  0.0339 -0.0223 -0.8693
17636TIP3    H274324   1.444   1.187   2.968  0.5245 -1.5146  1.4425
17637TIP3   OH274325   2.706   5.845  12.411 -0.0760  0.1731 -0.0189
17637TIP3    H174326   2.763   5.787  12.361  0.7716  1.2544 -0.3367
17637TIP3    H274327   2.622   5.843  12.365  0.4298  0.4524 -0.9626
17638TIP3   OH274328   3.110   6.251   0.154 -0.3072  0.1563 -0.3764
17638TIP3    H174329   3.137   6.214   0.239 -0.0917 -0.2467 -0.6156
17638TIP3    H274330   3.015   6.253   0.158 -0.2744  0.6867  0.1068
17639TIP3   OH274331   5.549   3.859   0.839 -0.4895  0.4370 -0.4553
17639TIP3    H174332   5.637   3.869   0.803 -1.4251 -0.3485 -3.0820
17639TIP3    H274333   5.543   3.767   0.864 -1.1417  0.0074 -2.0563
17640TIP3   OH274334   3.920   3.603  15.296 -0.0031 -0.2152  0.1907
17640TIP3    H174335   3.894   3.520  15.255  0.3243 -0.6109  0.7794
17640TIP3    H274336   3.960   3.653  15.225 -0.5129 -0.4266 -0.2449
17641TIP3   OH274337   6.040   0.360  17.030 -0.9520 -0.3282  0.3838
17641TIP3    H174338   5.974   0.310  16.982 -1.7349  0.5127  0.5565
17641TIP3    H274339   5.996   0.387  17.111 -0.5000  0.4690  0.3781
17642TIP3   OH274340   4.464   6.369  15.574  0.1321  0.3182 -0.2412
17642TIP3    H174341   4.404   6.306  15.614  0.1721  0.5557  0.1960
17642TIP3    H274342   4.432   6.454  15.604  0.0267  0.5131 -0.8948
17643TIP3   OH274343   3.106   4.159  11.858 -1.0228  0.0425  0.1957
17643TIP3    H174344   3.081   4.246  11.889 -0.0922  0.9726 -1.5901
17643TIP3    H274345   3.182   4.174  11.802  0.0441 -2.1003  0.9983
17644TIP3   OH274346   4.589   0.829   5.917  0.3408 -0.4613 -0.0816
17644TIP3    H174347   4.597   0.908   5.971  0.0328 -1.1813  1.0348
17644TIP3    H274348   4.499   0.801   5.930  0.0599 -0.2495 -1.5402
17645TIP3   OH274349   3.670   0.983   2.975  0.0159 -0.0591 -0.4321
17645TIP3    H174350   3.649   0.900   2.933 -0.5747  0.4635 -1.1936
17645TIP3    H274351   3.588   1.010   3.018  0.3749 -0.1664  0.3236
17646TIP3   OH274352   3.149   5.917   1.686  0.2547 -0.0456 -0.3046
17646TIP3    H174353   3.080   5.913   1.620 -0.5231  0.2669  0.4748
17646TIP3    H274354   3.102   5.923   1.769  1.1589 -3.4235  0.5198
17647TIP3   OH274355   3.304   1.508  13.347 -0.4022 -0.3169 -0.9115
17647TIP3    H174356   3.378   1.531  13.292 -1.5510  2.7838 -1.2981
17647TIP3    H274357   3.339   1.510  13.436 -0.0513  1.5004 -1.0624
17648TIP3   OH274358   2.390   2.743  10.925  0.7213  1.2562 -0.4357
17648TIP3    H174359   2.423   2.794  10.852  1.3654  2.0801  0.4153
17648TIP3    H274360   2.325   2.801  10.967 -2.5433 -0.6699 -2.6288
17649TIP3   OH274361   1.781   6.169  12.703  0.3599  0.6045  0.1238
17649TIP3    H174362   1.764   6.139  12.614 -2.8547  1.0145  0.5412
17649TIP3    H274363   1.783   6.089  12.756 -1.8466  0.6142  0.2683
17650TIP3   OH274364   3.510   3.533   4.953  0.2943 -0.4543  0.2945
17650TIP3    H174365   3.524   3.449   4.909 -3.2156 -0.1412 -1.6581
17650TIP3    H274366   3.434   3.518   5.010 -0.1127  1.2417  0.2418
17651TIP3   OH274367   5.786   0.238   5.237 -0.3062  0.1155 -0.1314
17651TIP3    H174368   5.794   0.282   5.152  0.1266 -0.5258 -0.4295
17651TIP3    H274369   5.876   0.219   5.263 -0.4603 -0.0952  0.2585
17652TIP3   OH274370   3.664   4.990  13.099  0.1666  0.1821  0.4843
17652TIP3    H174371   3.656   5.050  13.173 -0.0680 -0.4312  0.9642
17652TIP3    H274372   3.637   4.905  13.134 -0.8724  0.0672 -0.5627
17653TIP3   OH274373   2.927   3.537   0.838 -0.0634  0.1625 -0.5895
17653TIP3    H174374   2.860   3.544   0.906 -0.8878  0.3637 -1.4097
17653TIP3    H274375   2.983   3.613   0.851  0.0124 -0.0128  0.1088
17654TIP3   OH274376   1.224   1.232   5.383  0.1471 -0.2095 -0.5609
17654TIP3    H174377   1.287   1.165   5.357  1.6351  1.0178 -0.1549
17654TIP3    H274378   1.274   1.295   5.435 -1.7129  0.0543  0.9803
17655TIP3   OH274379   0.545   6.498   4.397 -0.0170 -0.1223 -0.3322
17655TIP3    H174380   0.466   6.489   4.343 -1.0806  0.3725  1.1058
17655TIP3    H274381   0.608   6.437   4.358 -1.2198 -0.7607 -1.3063
17656TIP3   OH274382   0.439   4.612  16.063  0.7491 -0.0123  0.2256
17656TIP3    H174383   0.439   4.706  16.083  2.9614  0.0618  0.0120
17656TIP3    H274384   0.531   4.591  16.045  0.4829 -2.5092  1.5636
17657TIP3   OH274385   2.641   2.605  14.360 -0.3426  0.3158 -0.4905
17657TIP3    H174386   2.559   2.602  14.311 -1.8771  2.8654  1.7704
17657TIP3    H274387   2.676   2.692  14.341  0.7978  0.0124  0.1985
17658TIP3   OH274388   4.553   4.593   5.289  0.6447  0.6698 -0.2056
17658TIP3    H174389   4.474   4.584   5.235  0.9666  0.2653 -0.6054
17658TIP3    H274390   4.618   4.631   5.230  0.7654  0.9600  0.1137
17659TIP3   OH274391   6.357   4.703  11.923  0.1579  0.5379  0.2210
17659TIP3    H174392   6.313   4.752  11.854 -1.0234  0.1008  0.6499
17659TIP3    H274393   6.349   4.611  11.897 -1.2338  0.2889  1.4546
17660TIP3   OH274394   4.408   4.068   5.167 -0.3243  0.3251 -0.1983
17660TIP3    H174395   4.314   4.072   5.151 -0.3405 -1.2085 -0.5370
17660TIP3    H274396   4.447   4.117   5.095 -0.8838  1.6796  0.3908
17661TIP3   OH274397   5.544   2.380   0.621  0.4023 -0.4003 -0.2408
17661TIP3    H174398   5.585   2.367   0.535  1.5291  1.2931  0.0333
17661TIP3    H274399   5.491   2.459   0.610  1.0817  0.2065  0.8152
17662TIP3   OH274400   5.069   4.748   4.332 -0.3311  0.6862  0.3927
17662TIP3    H174401   5.010   4.822   4.349 -0.2259  0.8508  0.0456
17662TIP3    H274402   5.064   4.734   4.238  0.8771  1.2854  0.2282
17663TIP3   OH274403   5.584   3.140   5.054 -0.3033  0.4669  0.2518
17663TIP3    H174404   5.662   3.158   5.106 -0.7718  0.6540  0.9087
17663TIP3    H274405   5.609   3.069   4.996  1.0619  2.0710 -1.1791
17664TIP3   OH274406   4.615   4.229   3.524 -0.3886  0.2833  0.0215
17664TIP3    H174407   4.622   4.148   3.575 -1.0642  0.4585  0.3977
17664TIP3    H274408   4.632   4.299   3.587  3.0954  0.3329 -0.9015
17665TIP3   OH274409   6.222   1.209   1.169 -0.1851  0.0642 -0.2861
17665TIP3    H174410   6.276   1.288   1.168 -0.9949  0.6268 -0.8730
17665TIP3    H274411   6.216   1.183   1.077 -0.4811 -0.2864 -0.1670
17666TIP3   OH274412   2.399   2.816  13.480 -1.1916 -0.3095  0.2272
17666TIP3    H174413   2.375   2.880  13.413 -0.5567 -0.7457 -0.4328
17666TIP3    H274414   2.400   2.865  13.562 -0.4402  0.5907 -0.3086
17667TIP3   OH274415   1.979   5.080  13.161 -0.3215 -0.3785  0.7973
17667TIP3    H174416   2.047   5.147  13.168 -1.1073  0.7863 -2.0216
17667TIP3    H274417   1.961   5.055  13.251  2.9887  0.1525  1.6637
17668TIP3   OH274418   2.889   3.451   2.599 -0.4392 -0.0204 -0.1497
17668TIP3    H174419   2.967   3.447   2.656 -1.1893 -2.3157  0.7863
17668TIP3    H274420   2.922   3.429   2.512  0.4634  1.9828 -0.3242
17669TIP3   OH274421   4.581   4.001   3.730  0.0410  0.0567 -0.6849
17669TIP3    H174422   4.614   3.973   3.815 -0.7179  2.3668  0.4145
17669TIP3    H274423   4.530   3.927   3.698 -1.4088 -0.0969  1.8535
17670TIP3   OH274424   4.565   3.948  12.840  0.9757  0.1811  0.3298
17670TIP3    H174425   4.593   3.961  12.750 -1.2333  0.8066 -0.3028
17670TIP3    H274426   4.621   4.007  12.891  1.7829  0.3238 -0.6946
17671TIP3   OH274427   5.845   1.443  11.049  0.0271 -0.2127 -0.0380
17671TIP3    H174428   5.814   1.530  11.023  0.6977 -0.1322 -0.5835
17671TIP3    H274429   5.906   1.418  10.980  1.8482  0.0009  1.4533
17672TIP3   OH274430   0.590   4.563   1.711  0.2850 -0.6920  0.4039
17672TIP3    H174431   0.625   4.475   1.725 -3.8273 -2.3487  1.0169
17672TIP3    H274432   0.556   4.561   1.621  2.6593  1.2429 -0.5951
17673TIP3   OH274433   2.726   2.915  16.831  0.2350 -0.1396  0.5867
17673TIP3    H174434   2.757   2.825  16.831  0.9611  0.1020  1.0932
17673TIP3    H274435   2.801   2.966  16.863  0.2419  0.7773 -0.8371
17674TIP3   OH274436   1.847   6.108   4.215 -0.0950  0.2419 -0.1401
17674TIP3    H174437   1.817   6.174   4.278  0.0999 -1.0863  1.3651
17674TIP3    H274438   1.796   6.030   4.235  1.7490 -0.9589  0.0571
17675TIP3   OH274439   5.328   2.811   0.344 -0.1575 -0.0543  0.0554
17675TIP3    H174440   5.283   2.855   0.416 -0.8503  0.6585 -0.7987
17675TIP3    H274441   5.407   2.863   0.330  0.0022 -0.2218  0.3256
17676TIP3   OH274442   0.189   0.411   1.029 -0.4944 -0.0083 -0.5452
17676TIP3    H174443   0.120   0.387   1.092 -0.0290 -0.7948 -0.3321
17676TIP3    H274444   0.166   0.500   1.002 -0.0350  0.8231  1.6596
17677TIP3   OH274445   1.863   2.882  17.167  0.5034  0.8305 -0.2184
17677TIP3    H174446   1.776   2.914  17.190  0.6515  1.5654 -0.6538
17677TIP3    H274447   1.866   2.885  17.072 -0.4247 -3.0783 -0.4643
17678TIP3   OH274448   5.741   5.830   1.450  0.1876 -0.1286  0.2272
17678TIP3    H174449   5.652   5.862   1.431  0.4366  0.9149  0.8052
17678TIP3    H274450   5.753   5.847   1.544  1.5011  0.9634 -0.1283
17679TIP3   OH274451   1.576   2.285   0.199  0.3977  0.4401 -0.0840
17679TIP3    H174452   1.620   2.364   0.167 -0.8579  1.3906  0.4998
17679TIP3    H274453   1.497   2.278   0.146 -0.6735  0.9021  1.4112
17680TIP3   OH274454   1.569   1.665  16.918  0.8192 -0.0492 -0.2373
17680TIP3    H174455   1.500   1.701  16.862  1.2720 -0.7974 -1.2911
17680TIP3    H274456   1.650   1.687  16.873  1.1105 -2.1074 -0.7584
17681TIP3   OH274457   0.635   0.136  14.992  0.0170  0.1569 -0.4071
17681TIP3    H174458   0.597   0.059  14.949 -0.7169 -0.2723  0.9897
17681TIP3    H274459   0.624   0.206  14.928 -0.9076 -0.5076 -0.9979
17682TIP3   OH274460   2.764   0.986   4.133 -0.0109  0.1189 -0.2129
17682TIP3    H174461   2.778   0.952   4.221  0.9324 -0.0926 -0.4426
17682TIP3    H274462   2.760   1.081   4.143  1.9500  0.2206 -0.1790
17683TIP3   OH274463   4.672   0.835  15.651  0.3885 -0.2048 -0.0161
17683TIP3    H174464   4.737   0.765  15.640  0.5901 -0.3089  1.7292
17683TIP3    H274465   4.722   0.908  15.687  0.0392  0.6168 -1.1692
17684TIP3   OH274466   6.222   1.558  13.067  0.4807 -0.2753  0.3387
17684TIP3    H174467   6.152   1.621  13.050  0.9840 -0.0755 -0.9956
17684TIP3    H274468   6.231   1.558  13.163  0.1524  1.3080  0.3764
17685TIP3   OH274469   5.076   3.542  16.152  0.4199 -0.1631 -0.5968
17685TIP3    H174470   5.036   3.579  16.073  1.5146  0.4160 -0.8849
17685TIP3    H274471   5.119   3.617  16.195 -0.5069 -0.3946  0.7569
17686TIP3   OH274472   0.571   2.526  15.294  0.2069 -0.3619 -0.2393
17686TIP3    H174473   0.537   2.548  15.207  0.7305 -3.0579 -1.1621
17686TIP3    H274474   0.519   2.450  15.321 -0.6988  1.0855  2.3159
17687TIP3   OH274475   2.618   6.051   2.897 -0.2436  0.1772  0.4399
17687TIP3    H174476   2.688   6.090   2.948  0.5132  0.3002 -0.6831
17687TIP3    H274477   2.661   6.014   2.819 -1.3807  0.0716 -0.1619
17688TIP3   OH274478   6.196   6.243  13.278 -0.7830 -0.4510 -0.0463
17688TIP3    H174479   6.174   6.186  13.351 -0.9629 -0.1148  0.1649
17688TIP3    H274480   6.116   6.294  13.263 -0.0496  0.9957  0.9132
17689TIP3   OH274481   2.959   6.423  10.842 -0.4352 -0.1429  0.3721
17689TIP3    H174482   3.053   6.428  10.824 -0.6406  1.2341 -0.4164
17689TIP3    H274483   2.953   6.422  10.938  0.3233  1.7987  0.4650
17690TIP3   OH274484   6.580   1.430  16.285  0.0735 -0.1988 -0.3745
17690TIP3    H174485   6.492   1.453  16.314  0.7419  0.8938  0.8355
17690TIP3    H274486   6.614   1.511  16.247  0.5150 -0.6503 -0.9494
17691TIP3   OH274487   1.954   4.921   3.306  0.6986 -0.6901  0.4423
17691TIP3    H174488   1.895   4.856   3.343 -0.5712  0.3572  0.3088
17691TIP3    H274489   1.913   5.005   3.326  2.1626  0.0699  0.3587
17692TIP3   OH274490   2.406   0.097   1.591 -0.0357  0.2718  0.1088
17692TIP3    H174491   2.343   0.138   1.650 -2.4361  0.2881 -2.3452
17692TIP3    H274492   2.442   0.170   1.541  0.5585  0.0693  0.2469
17693TIP3   OH274493   1.738   5.664  13.941 -0.9167  0.4790  0.6116
17693TIP3    H174494   1.792   5.607  13.886 -0.6752  0.0075  1.3312
17693TIP3    H274495   1.678   5.708  13.880  0.1203  0.8276 -0.1609
17694TIP3   OH274496   5.362   3.740  16.519  0.0108  0.4259  0.7376
17694TIP3    H174497   5.355   3.777  16.607  0.1666  0.4830  0.7270
17694TIP3    H274498   5.442   3.778  16.483 -0.0443  0.3923  0.5760
17695TIP3   OH274499   1.386   3.173  15.403  0.6360  0.9030  0.3673
17695TIP3    H174500   1.478   3.158  15.383  0.6982  0.3825  1.0109
17695TIP3    H274501   1.356   3.234  15.337  0.5526 -1.5651 -1.9754
17696TIP3   OH274502   2.956   5.149   2.291 -0.2630  0.4343 -0.1011
17696TIP3    H174503   2.867   5.150   2.326 -0.3273  2.2528 -0.2329
17696TIP3    H274504   2.946   5.175   2.199  0.2982 -0.4530 -0.4222
17697TIP3   OH274505   5.880   0.305  15.803 -0.4664 -0.2362 -0.2289
17697TIP3    H174506   5.945   0.243  15.771  0.2223  0.9450 -1.1363
17697TIP3    H274507   5.802   0.286  15.751  0.1967  0.6658 -1.5673
17698TIP3   OH274508   1.128   0.663  14.317 -0.8084  0.1609  0.2934
17698TIP3    H174509   1.148   0.738  14.261 -0.8812  0.6544  0.9160
17698TIP3    H274510   1.056   0.694  14.372 -2.0627 -0.9731 -0.6816
17699TIP3   OH274511   3.191   5.142  13.205 -0.3556 -0.0717  0.0440
17699TIP3    H174512   3.205   5.053  13.238  2.2256  0.8299  1.5457
17699TIP3    H274513   3.143   5.130  13.123 -0.0508 -2.8350  0.2152
17700TIP3   OH274514   3.458   0.528  10.690  0.7303  0.4325 -0.7022
17700TIP3    H174515   3.485   0.503  10.778 -0.1341 -0.8060 -0.7672
17700TIP3    H274516   3.488   0.456  10.634 -1.7300 -0.4740 -0.9090
17701TIP3   OH274517   4.598   1.440   6.195 -0.1406  0.0133 -0.2773
17701TIP3    H174518   4.675   1.483   6.232  0.3942 -1.4574  0.3811
17701TIP3    H274519   4.548   1.511   6.155  2.2761  0.8337 -2.0203
17702TIP3   OH274520   4.888   5.580  10.614 -0.8144 -0.3098  0.6101
17702TIP3    H174521   4.878   5.602  10.521 -1.3737 -1.2028  0.4585
17702TIP3    H274522   4.967   5.527  10.617 -0.0659  0.7930  0.8339
17703TIP3   OH274523   3.679   4.945   1.213  0.1571 -0.9035  0.7622
17703TIP3    H174524   3.628   5.022   1.188  0.3176 -0.8702  0.5404
17703TIP3    H274525   3.740   4.977   1.280  0.8709 -0.6322 -0.0122
17704TIP3   OH274526   5.429   0.732  13.498 -0.1718 -0.2140  0.0463
17704TIP3    H174527   5.511   0.759  13.458 -0.5874 -0.2900 -0.8709
17704TIP3    H274528   5.384   0.681  13.431 -0.2644 -1.5533  1.0926
17705TIP3   OH274529   4.536   0.449   4.748 -0.0069 -0.0957 -0.2246
17705TIP3    H174530   4.596   0.500   4.803  0.0380 -0.8103  0.4056
17705TIP3    H274531   4.545   0.360   4.781 -2.3660 -0.0058  0.7501
17706TIP3   OH274532   2.487   6.052  14.943 -0.3736  0.2156  0.0330
17706TIP3    H174533   2.494   6.037  15.038 -1.1684  0.6528  0.1634
17706TIP3    H274534   2.531   6.135  14.929 -1.2007  0.6915  0.1858
17707TIP3   OH274535   0.998   1.006  15.198 -0.1172 -0.0708  0.4360
17707TIP3    H174536   0.987   1.087  15.247 -0.0512  0.8271 -0.9952
17707TIP3    H274537   1.036   1.033  15.114  1.2448 -1.7419  0.4761
17708TIP3   OH274538   2.721   4.081  13.057 -0.1021 -0.0057  0.4164
17708TIP3    H174539   2.756   3.992  13.056  0.8527  0.3712 -1.0976
17708TIP3    H274540   2.637   4.075  13.012 -0.9291 -0.4817  2.0032
17709TIP3   OH274541   4.408   0.568   0.683 -0.3974  0.5618 -0.4544
17709TIP3    H174542   4.487   0.515   0.693 -0.4626  0.7113  1.0164
17709TIP3    H274543   4.375   0.546   0.596  2.2549  1.8559 -1.8550
17710TIP3   OH274544   6.749   1.507   0.618  0.8892  0.3382  0.3537
17710TIP3    H174545   6.691   1.436   0.592  0.6466 -0.0949  2.0541
17710TIP3    H274546   6.719   1.583   0.567  0.5719 -0.5466 -0.7807
17711TIP3   OH274547   2.001   3.798  11.412 -0.4762 -0.0462 -0.3184
17711TIP3    H174548   2.051   3.796  11.493  1.3803 -1.0412 -1.4616
17711TIP3    H274549   2.048   3.740  11.353 -3.3493 -1.5357 -1.2484
17712TIP3   OH274550   4.604   3.276   1.701  0.0199 -0.2244  0.2767
17712TIP3    H174551   4.518   3.238   1.682  0.9976 -3.1877  1.4423
17712TIP3    H274552   4.661   3.239   1.633  1.0147 -0.9587  1.4910
17713TIP3   OH274553   5.927   3.430  12.504 -0.2360  0.0863 -0.2522
17713TIP3    H174554   5.880   3.458  12.583  0.9766  0.5688  0.3299
17713TIP3    H274555   6.017   3.417  12.534  0.5377  1.5587 -1.8165
17714TIP3   OH274556   1.709   5.955   2.345 -0.3265  0.6720 -0.0881
17714TIP3    H174557   1.672   6.041   2.324 -1.9299 -0.5184 -2.2878
17714TIP3    H274558   1.739   5.920   2.261 -0.5803 -1.3289  0.6341
17715TIP3   OH274559   1.576   5.926   0.384  0.2201 -0.3517  0.0723
17715TIP3    H174560   1.616   5.953   0.301 -1.0232 -0.4837 -0.5848
17715TIP3    H274561   1.538   5.840   0.365  0.4593 -0.6608  0.9639
17716TIP3   OH274562   2.759   2.868   4.142  0.0831  0.0316 -0.1349
17716TIP3    H174563   2.691   2.827   4.196 -1.7553 -0.0454 -2.4117
17716TIP3    H274564   2.738   2.961   4.144  1.7808  0.4043  1.6477
17717TIP3   OH274565   6.166   1.640   5.861 -0.2276  0.4599 -0.2045
17717TIP3    H174566   6.166   1.599   5.947 -2.7223 -0.4837 -0.6036
17717TIP3    H274567   6.246   1.693   5.859  0.3889 -0.3221  2.2723
17718TIP3   OH274568   5.111   6.765   1.302 -0.1212  0.2278 -0.1324
17718TIP3    H174569   5.200   6.789   1.326 -0.5368  1.3839  0.2829
17718TIP3    H274570   5.086   6.828   1.235 -0.7293  0.0937 -0.0348
17719TIP3   OH274571   6.069   5.943  13.145  0.2637  0.3586 -0.4328
17719TIP3    H174572   6.123   5.949  13.224 -0.3825 -0.9263  0.1193
17719TIP3    H274573   6.118   5.883  13.087 -0.3931 -0.5455 -0.0638
17720TIP3   OH274574   3.903   5.678  13.892 -0.3588 -0.5986  0.1331
17720TIP3    H174575   3.819   5.632  13.888 -1.3996  1.1448  1.2183
17720TIP3    H274576   3.886   5.753  13.949  2.1495 -0.6194  0.9460
17721TIP3   OH274577   5.171   4.266  15.069 -0.0463  0.1248 -0.0689
17721TIP3    H174578   5.228   4.341  15.056 -0.2778  0.2101 -0.5914
17721TIP3    H274579   5.154   4.265  15.164  1.8301 -0.6621  0.2809
17722TIP3   OH274580   1.248   3.571  16.819 -0.3038  0.4464 -0.0307
17722TIP3    H174581   1.185   3.591  16.888 -0.2025 -2.2414  0.8735
17722TIP3    H274582   1.195   3.546  16.744 -0.3829 -2.5390  0.9531
17723TIP3   OH274583   2.346   5.314   0.383 -0.1442  0.9199 -0.8667
17723TIP3    H174584   2.377   5.299   0.472  2.2243  0.8402 -1.6829
17723TIP3    H274585   2.338   5.409   0.377  0.2328  0.9625 -0.7389
17724TIP3   OH274586   4.989   4.868   6.319  0.0096 -0.4427 -0.1572
17724TIP3    H174587   4.933   4.832   6.388 -0.8891 -0.3822 -0.8401
17724TIP3    H274588   5.019   4.952   6.354 -0.2832 -0.5048  0.2452
17725TIP3   OH274589   1.781   4.524   3.848  0.0262 -0.4333  0.5452
17725TIP3    H174590   1.755   4.444   3.894 -1.0409 -1.7828 -2.2442
17725TIP3    H274591   1.876   4.522   3.846 -0.0081 -2.6017 -0.9956
17726TIP3   OH274592   3.591   1.745   2.633 -0.3271 -0.4542 -0.3342
17726TIP3    H174593   3.517   1.753   2.573 -1.1479  0.5028  0.7802
17726TIP3    H274594   3.606   1.835   2.664  1.4891 -0.5893 -0.7786
17727TIP3   OH274595   2.136   2.141  12.626  0.1610 -0.0671  0.0909
17727TIP3    H174596   2.183   2.216  12.662  0.5362  0.1896 -0.9397
17727TIP3    H274597   2.054   2.177  12.594 -0.7450 -0.5026  1.8213
17728TIP3   OH274598   4.114   3.971  15.757  0.3672 -0.1273 -0.3826
17728TIP3    H174599   4.081   3.955  15.669  1.0243 -0.1211 -0.6323
17728TIP3    H274600   4.172   3.897  15.775  1.1658  0.4881 -0.4191
17729TIP3   OH274601   3.360   2.635  14.707 -0.5832  0.3714 -0.6126
17729TIP3    H174602   3.304   2.560  14.685  0.0380 -0.1077 -0.5621
17729TIP3    H274603   3.329   2.705  14.649 -0.2700 -0.3140 -1.6129
17730TIP3   OH274604   4.505   0.185  12.450 -0.4938 -0.4424  0.8965
17730TIP3    H174605   4.559   0.111  12.424 -0.1493  0.0103  0.3218
17730TIP3    H274606   4.437   0.147  12.506 -0.0259 -1.1153  1.0039
17731TIP3   OH274607   3.457   0.914  11.715  0.3588  0.3775  0.1282
17731TIP3    H174608   3.505   0.837  11.685  0.5432  1.0222 -1.2781
17731TIP3    H274609   3.382   0.879  11.763  0.5146 -0.6780 -0.3873
17732TIP3   OH274610   3.811   5.256   5.736  0.5412 -0.5454  0.6356
17732TIP3    H174611   3.893   5.290   5.773  1.0400  0.6009 -1.4592
17732TIP3    H274612   3.830   5.163   5.721  1.5776 -0.2297 -0.0996
17733TIP3   OH274613   5.337   1.463   4.702 -0.3348  0.2022  0.0366
17733TIP3    H174614   5.277   1.538   4.700 -0.4805  0.0797 -1.4414
17733TIP3    H274615   5.291   1.398   4.755 -1.9543 -0.2064 -1.7918
17734TIP3   OH274616   6.018   2.041   1.530  0.2333 -0.5891 -0.4104
17734TIP3    H174617   6.033   2.008   1.618 -0.1003 -1.7583 -0.7804
17734TIP3    H274618   5.923   2.042   1.520  0.2312  0.7571 -0.3075
17735TIP3   OH274619   2.989   0.493   5.444  0.1655  0.0428 -0.5585
17735TIP3    H174620   3.038   0.456   5.371  1.3911  2.4507 -0.9809
17735TIP3    H274621   2.923   0.426   5.464  1.1041 -1.5297 -2.5192
17736TIP3   OH274622   6.750   0.084   3.148 -0.5669 -0.1190  0.2796
17736TIP3    H174623   6.789   0.108   3.232 -1.7515 -0.0838  0.8291
17736TIP3    H274624   6.825   0.076   3.088  0.4269 -1.4926  1.6588
17737TIP3   OH274625   0.426   3.223   2.028  0.0854 -0.5392  0.5512
17737TIP3    H174626   0.395   3.230   1.938 -2.1715 -0.4580  1.2853
17737TIP3    H274627   0.365   3.278   2.078  0.4637 -1.6646  2.2926
17738TIP3   OH274628   6.077   0.002  16.543 -0.3087  0.7113 -0.2565
17738TIP3    H174629   5.994   0.014  16.588  0.4172 -0.7686  1.5474
17738TIP3    H274630   6.078  -0.090  16.516 -0.1861  1.2621 -2.2114
17739TIP3   OH274631   3.351   3.576   4.663 -0.0333  0.4485 -0.5186
17739TIP3    H174632   3.426   3.533   4.703 -0.2992 -1.2020 -1.7346
17739TIP3    H274633   3.383   3.605   4.577 -0.4137  0.9718 -0.4903
17740TIP3   OH274634   6.652   0.268   0.137  0.0075 -0.5342  0.3998
17740TIP3    H174635   6.558   0.267   0.158  0.2915 -2.2314  1.6250
17740TIP3    H274636   6.661   0.213   0.060  0.0175 -0.4715  0.3559
17741TIP3   OH274637   4.601   2.921   5.870  0.1785 -0.2317 -0.1331
17741TIP3    H174638   4.693   2.916   5.898  0.1362  0.6987  0.1710
17741TIP3    H274639   4.553   2.951   5.947 -0.0139  1.7553 -0.9853
17742TIP3   OH274640   1.489   4.283  12.844  0.4639  0.1970 -0.2435
17742TIP3    H174641   1.566   4.271  12.899 -0.9585 -1.1443  1.5519
17742TIP3    H274642   1.418   4.240  12.893 -1.3916  1.3029 -1.8826
17743TIP3   OH274643   2.469   4.310   0.390 -0.2707 -0.2211  0.5520
17743TIP3    H174644   2.519   4.245   0.441 -2.9005 -0.9794  2.2423
17743TIP3    H274645   2.464   4.387   0.447 -0.3429  0.1459  0.0533
17744TIP3   OH274646   4.067   0.774   2.033 -0.1122  0.6913  0.6963
17744TIP3    H174647   4.053   0.767   1.939  1.2572 -0.7798  0.5899
17744TIP3    H274648   4.025   0.696   2.070 -2.8377  2.4958  1.5856
17745TIP3   OH274649   4.271   4.886  13.804 -0.6351  0.0325  0.4316
17745TIP3    H174650   4.253   4.817  13.741  0.5528 -1.6433  1.8639
17745TIP3    H274651   4.351   4.928  13.772 -0.8469  0.1357  0.0436
17746TIP3   OH274652   0.541   2.752  12.716 -0.4166  0.2960  0.0111
17746TIP3    H174653   0.581   2.784  12.797 -0.2487  2.0313 -0.7317
17746TIP3    H274654   0.541   2.657  12.725 -0.5183  0.4655  2.1046
17747TIP3   OH274655   0.731   0.262   2.713 -0.9817  0.2218 -0.4205
17747TIP3    H174656   0.662   0.283   2.775 -2.6820 -0.6604 -1.9421
17747TIP3    H274657   0.709   0.312   2.634  0.1017 -0.0818 -0.9273
17748TIP3   OH274658   1.930   6.034  14.171 -0.1131  0.1189 -0.4167
17748TIP3    H174659   1.875   6.081  14.109 -1.0403  1.5270  1.4062
17748TIP3    H274660   2.020   6.057  14.146 -0.5141  1.5034 -0.6115
17749TIP3   OH274661   1.137   2.330   1.939  0.0755  0.1803  0.0458
17749TIP3    H174662   1.167   2.397   2.000 -0.7010  0.9396 -0.3769
17749TIP3    H274663   1.052   2.303   1.974  1.0537 -1.6648  1.0288
17750TIP3   OH274664   4.571   0.832  11.522  0.3712  0.1664  0.0608
17750TIP3    H174665   4.656   0.819  11.481  0.1681 -1.8051  0.2146
17750TIP3    H274666   4.508   0.796  11.460 -0.2812  0.7839  0.3474
17751TIP3   OH274667   3.899   1.561  14.710 -1.0908  0.3812  0.4632
17751TIP3    H174668   3.864   1.479  14.676  0.7981 -0.9703  1.6899
17751TIP3    H274669   3.834   1.591  14.774 -2.0521  0.1623 -0.4013
17752TIP3   OH274670   1.585   5.178   0.588 -0.2572 -0.3594  0.1976
17752TIP3    H174671   1.637   5.104   0.619  1.6292  1.1146  0.6593
17752TIP3    H274672   1.529   5.142   0.519  1.5155 -1.9348 -0.4418
17753TIP3   OH274673   1.984   4.052  14.059  0.2132 -0.2287 -0.0071
17753TIP3    H174674   1.964   4.028  13.968  2.3333  1.0261 -0.8601
17753TIP3    H274675   2.075   4.023  14.071  1.5435  3.7871  0.1580
17754TIP3   OH274676   1.887   4.180  14.401 -0.1957  0.2105 -0.2041
17754TIP3    H174677   1.833   4.102  14.408 -1.7323  1.2512 -0.1558
17754TIP3    H274678   1.832   4.243  14.355 -0.4083  2.4710  2.9245
17755TIP3   OH274679   1.919   4.559   2.677 -0.2024  0.8168 -0.2765
17755TIP3    H174680   1.874   4.523   2.601 -1.0085 -1.2407  1.1261
17755TIP3    H274681   1.854   4.617   2.717 -0.2212  0.9107 -0.4419
17756TIP3   OH274682   1.714   2.405   3.084  0.2304 -0.4273  0.0257
17756TIP3    H174683   1.808   2.396   3.070  0.0946  0.4350 -1.6276
17756TIP3    H274684   1.678   2.421   2.997 -1.4636 -0.8008  0.6218
17757TIP3   OH274685   5.729   1.769  12.392 -0.0097 -0.7291 -0.3609
17757TIP3    H174686   5.725   1.702  12.324 -0.6813 -0.4528 -0.5966
17757TIP3    H274687   5.810   1.817  12.374  0.7375 -1.7982  0.1143
17758TIP3   OH274688   3.202   3.195  12.948  0.3558 -0.0775 -0.6005
17758TIP3    H174689   3.236   3.194  12.858  1.9607 -0.4561 -0.0032
17758TIP3    H274690   3.252   3.264  12.992 -1.2615  0.9257 -0.3006
17759TIP3   OH274691   4.630   0.753   1.224 -0.1553  0.2829  0.1269
17759TIP3    H174692   4.628   0.659   1.206 -0.4839  0.1344  0.9487
17759TIP3    H274693   4.554   0.788   1.178 -0.9717 -0.0912  1.2041
17760TIP3   OH274694   5.480   3.013  16.840  0.7362  0.7133  0.3265
17760TIP3    H174695   5.519   3.067  16.909 -1.7512  2.4155  0.4780
17760TIP3    H274696   5.411   2.963  16.885  2.3258 -1.8387 -0.0273
17761TIP3   OH274697   0.632   5.325  16.327  0.8583  0.1081 -0.6802
17761TIP3    H174698   0.610   5.380  16.402  0.7851  0.4239 -0.9322
17761TIP3    H274699   0.548   5.302  16.288  0.8525 -0.8394 -0.1049
17762TIP3   OH274700   5.382   2.117   1.661 -0.4554  0.2165  0.6513
17762TIP3    H174701   5.360   2.139   1.571  1.0043 -1.0876 -0.0517
17762TIP3    H274702   5.341   2.186   1.714 -0.0572  1.8253 -1.0964
17763TIP3   OH274703   0.488   5.317   0.744 -0.2989 -0.3871  0.4031
17763TIP3    H174704   0.568   5.304   0.693 -0.0444  1.2206  0.3629
17763TIP3    H274705   0.417   5.291   0.685  0.0696  0.2105 -0.3158
17764TIP3   OH274706   5.986   5.472  11.894 -0.0561 -0.3184 -0.4405
17764TIP3    H174707   5.891   5.477  11.884 -0.2004 -0.8486  0.6107
17764TIP3    H274708   6.002   5.386  11.933  0.6553  0.7339  1.6693
17765TIP3   OH274709   6.616   5.773  14.674 -0.6756  0.8742  0.2249
17765TIP3    H174710   6.651   5.779  14.585 -0.7279 -2.2583 -0.0410
17765TIP3    H274711   6.531   5.818  14.669 -0.5136  1.0414 -1.2026
17766TIP3   OH274712   1.245   6.064  11.237 -0.1585  0.0965  0.0023
17766TIP3    H174713   1.286   6.075  11.323  0.7103 -0.0320 -0.3915
17766TIP3    H274714   1.153   6.084  11.252 -0.1935 -0.9070  1.1718
17767TIP3   OH274715   2.161   4.727  14.385  0.4064 -0.1879  0.0203
17767TIP3    H174716   2.215   4.652  14.408  0.8611 -0.2113 -1.0698
17767TIP3    H274717   2.223   4.796  14.364 -0.0064  0.2944  0.3711
17768TIP3   OH274718   2.741   5.792   4.397 -0.1899 -0.4488 -0.2423
17768TIP3    H174719   2.692   5.719   4.359  0.4448 -1.7190  1.3363
17768TIP3    H274720   2.747   5.771   4.490  0.6630  1.2421  0.1038
17769TIP3   OH274721   3.454   0.802   0.793  0.2131  0.6346 -0.5845
17769TIP3    H174722   3.473   0.859   0.867  0.8126 -0.5652  0.1879
17769TIP3    H274723   3.359   0.788   0.797  0.6780 -2.1354  1.9500
17770TIP3   OH274724   5.844   0.906  11.278  0.2583  0.4994  0.1012
17770TIP3    H174725   5.765   0.957  11.264 -0.5281 -0.9098 -0.7875
17770TIP3    H274726   5.821   0.818  11.248  1.2625 -0.6106  2.4970
17771TIP3   OH274727   3.695   1.322   5.877  0.7806  0.2369 -0.3496
17771TIP3    H174728   3.701   1.414   5.901 -0.6671  0.3586 -0.3902
17771TIP3    H274729   3.763   1.279   5.929 -0.0560  1.0064  1.4195
17772TIP3   OH274730   1.651   0.124   4.795 -0.0262  0.1481 -0.5207
17772TIP3    H174731   1.578   0.102   4.854  0.6797 -0.4924  0.1218
17772TIP3    H274732   1.620   0.096   4.708 -0.7786  0.4213 -0.3488
17773TIP3   OH274733   3.044   3.089  14.319 -0.0688  0.3981 -0.1314
17773TIP3    H174734   2.974   3.094  14.385  0.3307 -0.1869  0.3459
17773TIP3    H274735   3.050   2.996  14.297 -0.7902  0.7056 -1.6530
17774TIP3   OH274736   6.139   4.143  14.352 -0.2496 -0.2745  0.2161
17774TIP3    H174737   6.226   4.134  14.391 -1.1849  0.0230  2.4826
17774TIP3    H274738   6.149   4.211  14.286  1.9085 -2.3769 -1.7411
17775TIP3   OH274739   5.842   6.168   6.474 -0.0456  0.5880  0.0421
17775TIP3    H174740   5.820   6.261   6.478  0.2359  0.6198  1.2086
17775TIP3    H274741   5.836   6.145   6.382  0.3451  1.8773 -0.3072
17776TIP3   OH274742   3.230   5.432   3.289 -0.1097  0.0812  0.5063
17776TIP3    H174743   3.314   5.447   3.332 -0.0677  1.3041  0.0154
17776TIP3    H274744   3.223   5.337   3.282  1.8642 -0.0072 -0.6632
17777TIP3   OH274745   6.339   1.671  13.755  0.4554  0.6565  0.1118
17777TIP3    H174746   6.329   1.583  13.791 -0.6096  0.8254  0.2437
17777TIP3    H274747   6.389   1.659  13.674  1.8910  0.1490  1.0658
17778TIP3   OH274748   0.185   0.684   6.340 -0.3192 -0.3860  0.0078
17778TIP3    H174749   0.224   0.607   6.383  0.1510  0.1715  0.5875
17778TIP3    H274750   0.111   0.649   6.292  0.1719 -1.2856 -0.1100
17779TIP3   OH274751   1.042   1.840   5.307  0.0585  0.2353 -0.1509
17779TIP3    H174752   1.120   1.844   5.362 -0.3013  1.4236  0.2993
17779TIP3    H274753   0.969   1.842   5.369 -0.3423  0.4566 -0.6258
17780TIP3   OH274754   6.690   2.022  16.601  0.1488 -0.4693 -0.3022
17780TIP3    H174755   6.731   2.097  16.644  0.5154 -1.8285  1.7613
17780TIP3    H274756   6.755   1.992  16.537  1.0222 -0.5614  0.6261
17781TIP3   OH274757   5.227   0.635  11.937 -0.6484  0.1598  0.4264
17781TIP3    H174758   5.166   0.658  12.007 -0.0167 -0.5671  1.2178
17781TIP3    H274759   5.172   0.629  11.858 -1.2770  1.4693  0.7576
17782TIP3   OH274760   6.783   1.865  15.042 -0.3968 -0.3765 -0.8696
17782TIP3    H174761   6.696   1.827  15.026 -0.9544 -0.3098  1.7968
17782TIP3    H274762   6.839   1.790  15.062 -1.2743 -0.0405  3.4097
17783TIP3   OH274763   6.323   0.980   4.293  0.0393 -0.1039  0.1654
17783TIP3    H174764   6.353   1.070   4.278  0.1050 -0.4254 -1.8468
17783TIP3    H274765   6.402   0.927   4.283 -0.5481 -0.6481 -1.7529
17784TIP3   OH274766   1.406   3.354  17.126  0.5461  0.1944  0.3104
17784TIP3    H174767   1.437   3.281  17.180 -0.0699  0.6462  1.2741
17784TIP3    H274768   1.312   3.339  17.117  0.8814 -0.7561 -1.9806
17785TIP3   OH274769   3.917   3.846   5.267  0.8315  0.0985 -0.4857
17785TIP3    H174770   3.881   3.926   5.307  1.2204  0.0120  0.0404
17785TIP3    H274771   3.862   3.776   5.301  0.7553  0.0973 -0.6123
17786TIP3   OH274772   4.431   5.650   5.461  0.4362 -0.6908 -0.1169
17786TIP3    H174773   4.394   5.713   5.400  0.9613  0.0572  0.3293
17786TIP3    H274774   4.494   5.601   5.409 -0.1094 -0.9828 -0.5101
17787TIP3   OH274775   3.712   3.066   0.652  0.0272 -0.0173  0.2757
17787TIP3    H174776   3.692   3.129   0.583  0.4024 -0.0822  0.1096
17787TIP3    H274777   3.705   2.981   0.610 -2.4017 -0.1872  0.9677
17788TIP3   OH274778   1.802   5.586   2.848 -0.5436 -0.7552  0.0028
17788TIP3    H174779   1.850   5.518   2.801 -0.6136 -0.7816 -0.0313
17788TIP3    H274780   1.759   5.637   2.780 -0.7954 -0.9061  0.0468
17789TIP3   OH274781   3.043   6.506   1.506 -0.1282  0.0032  0.0925
17789TIP3    H174782   3.098   6.570   1.551  0.2887  0.2694 -0.7816
17789TIP3    H274783   3.100   6.430   1.494 -0.1522  0.0379 -0.2373
17790TIP3   OH274784   4.830   4.396   2.048  0.2102  0.1081  0.3767
17790TIP3    H174785   4.735   4.387   2.057 -0.0868  1.5436 -1.0905
17790TIP3    H274786   4.849   4.362   1.961  0.6949  1.9616 -0.2809
17791TIP3   OH274787   2.186   3.739   6.159  0.2381 -0.1582 -0.3906
17791TIP3    H174788   2.278   3.726   6.135  0.3496  0.7544 -0.4576
17791TIP3    H274789   2.188   3.782   6.244 -0.1295 -0.2196 -0.3476
17792TIP3   OH274790   0.006   4.016  11.098 -0.0544  0.0229 -0.3693
17792TIP3    H174791   0.023   4.072  11.174 -0.2098 -0.3791 -0.0350
17792TIP3    H274792   0.053   3.935  11.117 -2.9438 -1.4286  0.9558
17793TIP3   OH274793   5.971   6.360   2.425 -0.4677  0.2821  0.5514
17793TIP3    H174794   6.005   6.450   2.426  0.4151 -0.0389 -0.2570
17793TIP3    H274795   6.044   6.306   2.456  0.1640 -0.5339 -2.2271
17794TIP3   OH274796   1.160   3.386  17.229 -0.1118  0.4118  0.9149
17794TIP3    H174797   1.138   3.320  17.294  0.6275  1.1165  1.9081
17794TIP3    H274798   1.168   3.467  17.279  2.4132  0.5995  0.2782
17795TIP3   OH274799   0.304   1.565   5.325 -0.2096 -0.5213 -0.2148
17795TIP3    H174800   0.323   1.509   5.399 -0.0179 -1.5152 -1.0098
17795TIP3    H274801   0.367   1.540   5.258 -1.1894 -0.5058 -1.1615
17796TIP3   OH274802   2.481   3.262  12.187  0.0209 -0.4269  0.3140
17796TIP3    H174803   2.566   3.244  12.147  0.2430 -1.3548  1.2003
17796TIP3    H274804   2.437   3.177  12.189 -1.7947  0.4116 -2.1293
17797TIP3   OH274805   6.655   2.896  16.525  0.2421 -0.3892 -0.1319
17797TIP3    H174806   6.646   2.803  16.505  0.2044 -0.3719 -0.1947
17797TIP3    H274807   6.740   2.903  16.570  0.6375 -0.3350 -0.8772
17798TIP3   OH274808   1.704   6.319  12.011 -0.0103 -0.5456  0.3725
17798TIP3    H174809   1.714   6.291  12.102  2.5451 -0.5656  0.1336
17798TIP3    H274810   1.783   6.370  11.993 -1.1781  0.7205 -1.3971
17799TIP3   OH274811   1.588   2.379   2.849  0.5822 -0.4426  0.3432
17799TIP3    H174812   1.528   2.316   2.888 -0.9739 -0.5152 -2.0751
17799TIP3    H274813   1.533   2.455   2.829  1.5506 -0.0116 -0.7346
17800TIP3   OH274814   0.380   5.295  16.205  0.5967 -0.1294  0.3252
17800TIP3    H174815   0.364   5.350  16.128  0.2266  1.0318  1.2105
17800TIP3    H274816   0.338   5.211  16.185  0.0217  0.3554 -0.5085
17801TIP3   OH274817   6.666   6.348   0.684  0.3043  0.6147  0.0094
17801TIP3    H174818   6.631   6.264   0.656 -0.4925  0.2820  1.9267
17801TIP3    H274819   6.589   6.402   0.701  0.7146  0.5964  2.1266
17802TIP3   OH274820   6.389   0.414   4.791  0.6663  0.1431  0.6014
17802TIP3    H174821   6.481   0.412   4.764  0.4257 -0.9935 -0.1366
17802TIP3    H274822   6.366   0.323   4.807 -0.6700  0.3028 -0.3431
17803TIP3   OH274823   1.399   6.734   2.402  0.1821 -0.2401 -0.2565
17803TIP3    H174824   1.427   6.753   2.492 -0.6207  2.2708 -0.4897
17803TIP3    H274825   1.304   6.725   2.408  0.3473 -2.3148 -0.5079
17804TIP3   OH274826   3.059   2.951  15.932  0.0793  0.1105 -0.6443
17804TIP3    H174827   3.072   2.857  15.937  0.3201  0.2365  1.7365
17804TIP3    H274828   3.147   2.988  15.942 -0.1458  0.5974 -0.4512
17805TIP3   OH274829   4.780   0.334   6.283 -0.0842  0.3162  0.0067
17805TIP3    H174830   4.817   0.263   6.231  1.4815  0.9146  0.2873
17805TIP3    H274831   4.792   0.305   6.374 -1.5891 -0.1203  0.0757
17806TIP3   OH274832   0.130   3.941   6.177  0.1260  0.3396  0.3218
17806TIP3    H174833   0.152   3.856   6.213 -1.0941 -1.3355 -2.6667
17806TIP3    H274834   0.160   3.937   6.086 -1.1059  2.5965 -0.2381
17807TIP3   OH274835   5.545   6.001  14.115 -0.1305  0.3136 -0.1714
17807TIP3    H174836   5.483   6.004  14.188 -1.5871  2.2089 -1.4522
17807TIP3    H274837   5.503   5.943  14.051  0.8776 -0.8674  0.2030
17808TIP3   OH274838   1.309   5.179   4.870  0.2211  0.0010 -0.2398
17808TIP3    H174839   1.318   5.219   4.956  1.6739  1.4523 -1.0450
17808TIP3    H274840   1.279   5.250   4.813  0.4436 -0.6424 -1.1809
17809TIP3   OH274841   0.202   6.395  17.156  0.5485  0.6391 -0.0422
17809TIP3    H174842   0.255   6.458  17.106  0.4290 -0.3026 -1.3887
17809TIP3    H274843   0.240   6.310  17.134 -0.1795  0.1301  0.6609
17810TIP3   OH274844   0.300   6.375   6.462 -0.0244  0.0644  0.0758
17810TIP3    H174845   0.348   6.351   6.541  3.6916  0.0374 -2.0603
17810TIP3    H274846   0.250   6.297   6.438  1.2981 -0.9613  0.6572
17811TIP3   OH274847   2.511   0.676  14.737  0.1750 -0.2209  0.1041
17811TIP3    H174848   2.584   0.614  14.733 -2.5711 -3.5807 -0.0988
17811TIP3    H274849   2.487   0.689  14.645 -2.4509 -2.9048  0.3406
17812TIP3   OH274850   5.533   4.557   5.959 -0.2850  0.1078  0.1384
17812TIP3    H174851   5.460   4.556   6.021 -0.5370  1.5394 -0.1115
17812TIP3    H274852   5.548   4.650   5.942  1.3693 -0.1923 -0.0840
17813TIP3   OH274853   4.605   0.305  13.672 -0.1540  0.3096  0.1869
17813TIP3    H174854   4.668   0.250  13.626  1.4055  1.9753  0.2992
17813TIP3    H274855   4.590   0.259  13.755 -0.4285 -0.9860 -0.5780
17814TIP3   OH274856   6.627   1.648  16.121 -0.1819  0.0205  0.4251
17814TIP3    H174857   6.715   1.669  16.089  0.1209  0.0919  1.2892
17814TIP3    H274858   6.579   1.730  16.114 -0.0497  0.0947  0.3759
17815TIP3   OH274859   5.407   3.995   2.323 -0.0350  0.4048  0.6557
17815TIP3    H174860   5.375   4.079   2.356 -2.9566 -1.0802  1.7712
17815TIP3    H274861   5.330   3.952   2.286  1.6627 -1.2677 -1.1155
17816TIP3   OH274862   4.764   1.937  11.549  0.8088  0.0021  0.4336
17816TIP3    H174863   4.852   1.904  11.569  0.8464  0.2647  0.7025
17816TIP3    H274864   4.775   1.985  11.467  1.2285  1.3201  1.2399
17817TIP3   OH274865   4.073   0.018   1.050  0.4995  0.1864  0.2597
17817TIP3    H174866   4.091   0.112   1.062  1.9843 -0.3071  2.2332
17817TIP3    H274867   4.110  -0.002   0.964  0.8490  1.2630  0.1464
17818TIP3   OH274868   6.324   1.083   2.192  0.3745 -0.8714  0.3042
17818TIP3    H174869   6.243   1.033   2.187  0.2004 -0.5351 -0.2531
17818TIP3    H274870   6.330   1.109   2.284 -1.2953  0.9875 -0.0867
17819TIP3   OH274871   5.538   1.648  13.882  0.1264 -0.1159 -0.3195
17819TIP3    H174872   5.625   1.688  13.880  0.8302 -1.4915  1.5253
17819TIP3    H274873   5.486   1.707  13.937  0.6800 -0.7845  0.9356
17820TIP3   OH274874   0.981   5.474   4.535 -0.2579  0.2308  0.1038
17820TIP3    H174875   0.918   5.426   4.589 -1.4834  0.5407 -1.0412
17820TIP3    H274876   0.994   5.556   4.581  1.2224 -0.8247  1.6429
17821TIP3   OH274877   4.758   4.147  12.943 -0.0007 -0.6860  0.8378
17821TIP3    H174878   4.799   4.233  12.940 -1.3737 -0.0326  0.6772
17821TIP3    H274879   4.820   4.089  12.897 -0.7779  0.9128 -2.3675
17822TIP3   OH274880   2.744   0.320  15.937 -0.7013 -0.3332 -0.4288
17822TIP3    H174881   2.749   0.240  15.884  0.7318 -0.1503 -0.6042
17822TIP3    H274882   2.832   0.328  15.976 -1.1981  0.5022  0.5497
17823TIP3   OH274883   4.669   3.553  14.007 -0.1644 -0.0795  0.3670
17823TIP3    H174884   4.764   3.549  14.018 -0.1832 -2.3865 -0.0581
17823TIP3    H274885   4.654   3.633  13.957  1.5690  0.2357  0.3161
17824TIP3   OH274886   6.179   1.846   5.512 -0.3530 -0.3201  0.0650
17824TIP3    H174887   6.087   1.839   5.487 -0.7418 -0.2251  1.3987
17824TIP3    H274888   6.214   1.757   5.503 -1.4784 -1.0891  2.8392
17825TIP3   OH274889   5.622   5.393  12.567  1.0938  0.2716 -0.0135
17825TIP3    H174890   5.642   5.447  12.643  2.2712  1.2607 -1.0153
17825TIP3    H274891   5.705   5.385  12.520  0.4088 -0.4564 -1.1252
17826TIP3   OH274892   3.326   5.332  13.023 -0.3269 -0.3629 -0.0155
17826TIP3    H174893   3.268   5.295  12.957  0.1045 -1.8420  0.4102
17826TIP3    H274894   3.298   5.291  13.105 -0.3732  0.8898  0.6060
17827TIP3   OH274895   6.352   2.592   2.837 -0.1460 -0.1980  0.2873
17827TIP3    H174896   6.328   2.672   2.791  0.2363 -0.2053  0.0814
17827TIP3    H274897   6.364   2.619   2.928 -1.0842 -0.2174  0.4303
17828TIP3   OH274898   4.052   5.553   5.705  0.1764 -0.2789 -0.8005
17828TIP3    H174899   4.147   5.553   5.713  0.0806  0.3403  0.4249
17828TIP3    H274900   4.035   5.584   5.617  1.1021 -0.1503 -0.9340
17829TIP3   OH274901   3.953   0.377  13.434  0.6053  0.1514  1.1871
17829TIP3    H174902   3.891   0.450  13.443 -0.4303 -0.7687  1.6877
17829TIP3    H274903   3.898   0.303  13.405  1.2063 -1.0598  3.0667
17830TIP3   OH274904   3.867   1.764   3.954  0.0540 -0.4271 -0.0373
17830TIP3    H174905   3.811   1.790   3.881 -0.7273  0.6506  0.9322
17830TIP3    H274906   3.807   1.726   4.019  0.5455 -0.0286  0.6635
17831TIP3   OH274907   6.646   2.435  11.794 -0.3362  0.5220  0.2894
17831TIP3    H174908   6.630   2.342  11.807  0.7843  0.4098  0.9521
17831TIP3    H274909   6.598   2.479  11.864 -0.5233  0.4086  0.2293
17832TIP3   OH274910   3.927   1.631  16.920  0.7164 -1.1598  0.5404
17832TIP3    H174911   3.888   1.655  17.004  0.4534  0.7133 -0.1085
17832TIP3    H274912   4.019   1.612  16.942  0.3085 -2.1766  1.4748
17833TIP3   OH274913   0.551   3.949   0.687 -0.6902  0.4205 -0.0215
17833TIP3    H174914   0.542   3.890   0.762  1.9806 -0.0539 -0.0253
17833TIP3    H274915   0.500   3.907   0.618  1.8140 -2.3992 -0.2759
17834TIP3   OH274916   0.824   1.548  11.232 -0.1206  0.0339  0.2186
17834TIP3    H174917   0.914   1.516  11.237  0.0931  0.8002  1.7367
17834TIP3    H274918   0.829   1.627  11.178  0.0932 -0.0327  0.1452
17835TIP3   OH274919   1.124   0.970   0.223  0.2937  0.4712 -0.1402
17835TIP3    H174920   1.180   0.953   0.299  0.2641  1.2102  0.0535
17835TIP3    H274921   1.181   0.958   0.147  0.6132  0.8304  0.0440
17836TIP3   OH274922   3.619   4.247  14.243 -0.1103 -0.1426  0.0918
17836TIP3    H174923   3.631   4.342  14.239 -0.0518 -0.1683 -0.3494
17836TIP3    H274924   3.708   4.212  14.236 -0.2739 -0.2805 -1.4060
17837TIP3   OH274925   6.026   2.937   1.116  0.2617  0.3296  0.5518
17837TIP3    H174926   6.008   2.967   1.027  1.4534 -1.3590 -0.2842
17837TIP3    H274927   5.942   2.942   1.161 -1.1039 -1.9366 -1.6336
17838TIP3   OH274928   4.869   1.937  16.012 -0.5780  0.2680  0.2277
17838TIP3    H174929   4.964   1.944  16.009 -0.5577 -0.2189 -0.3854
17838TIP3    H274930   4.843   1.992  16.086  0.1410  0.7694  0.1118
17839TIP3   OH274931   5.783   0.891  14.766 -0.1998  0.1755 -0.1376
17839TIP3    H174932   5.804   0.817  14.823  1.6549 -1.1715 -2.4293
17839TIP3    H274933   5.689   0.883  14.750  0.0970 -2.1197 -0.8788
17840TIP3   OH274934   2.380   0.728   3.156  0.1652 -0.4275  0.1803
17840TIP3    H174935   2.315   0.710   3.223 -0.1667 -0.5093 -0.1643
17840TIP3    H274936   2.359   0.668   3.085  1.0311 -0.9258  0.3374
17841TIP3   OH274937   6.748   6.317   5.631  0.6275  0.4836 -0.3398
17841TIP3    H174938   6.730   6.411   5.626 -0.1936  0.3328 -0.3139
17841TIP3    H274939   6.675   6.276   5.584  1.2938 -0.1093 -0.8594
17842TIP3   OH274940   6.040   5.913   2.835  0.2898  0.3941  0.2695
17842TIP3    H174941   6.015   5.899   2.926 -1.0051 -1.1833 -0.3195
17842TIP3    H274942   6.134   5.931   2.839  0.2898  0.0905  1.8946
17843TIP3   OH274943   4.135   3.236  15.001 -0.1809 -0.4482 -0.0589
17843TIP3    H174944   4.066   3.177  15.031 -1.5048  1.0755 -0.0450
17843TIP3    H274945   4.171   3.274  15.081  0.1787 -0.6953 -0.1033
17844TIP3   OH274946   4.709   3.665  14.743  0.0138  0.5705  0.4773
17844TIP3    H174947   4.687   3.660  14.650 -0.4953  0.2709  0.6120
17844TIP3    H274948   4.760   3.745  14.751  0.2055  0.5116 -0.0914
17845TIP3   OH274949   3.916   4.368  12.928  0.3661  0.3930 -0.7543
17845TIP3    H174950   3.884   4.329  13.009  0.1883 -3.0054 -2.3726
17845TIP3    H274951   4.003   4.330  12.916  0.8659  1.7658 -1.5587
17846TIP3   OH274952   4.995   1.872  12.281  0.0499  0.0644 -0.5506
17846TIP3    H174953   4.975   1.952  12.232 -0.9919 -0.0196 -0.2787
17846TIP3    H274954   4.912   1.850  12.325  1.2653  0.8358  2.2493
17847TIP3   OH274955   1.812   5.213   5.725 -0.2020  0.1845 -0.3418
17847TIP3    H174956   1.826   5.286   5.665  1.3448  0.9369  0.8855
17847TIP3    H274957   1.893   5.208   5.775 -0.7633 -1.6070  0.4187
17848TIP3   OH274958   3.390   0.819  16.392 -0.4396 -0.0403  0.1435
17848TIP3    H174959   3.471   0.827  16.341 -1.9996  0.2155 -2.4025
17848TIP3    H274960   3.391   0.729  16.424  1.2433  0.2093  0.8447
17849TIP3   OH274961   4.718   2.375   5.009 -0.1870 -0.4936 -0.1489
17849TIP3    H174962   4.692   2.284   5.001 -1.8423 -0.2531  2.1018
17849TIP3    H274963   4.636   2.423   5.021  0.7383  1.1741 -0.2346
17850TIP3   OH274964   5.315   5.313   4.022 -0.1530  0.3024 -0.1917
17850TIP3    H174965   5.311   5.367   3.943  0.5704  0.7907  0.0977
17850TIP3    H274966   5.291   5.373   4.093  2.2917  0.7301  0.3481
17851TIP3   OH274967   1.498   0.119  16.200  0.1982 -0.0385  0.5815
17851TIP3    H174968   1.513   0.185  16.268  0.4436 -2.1138  2.6040
17851TIP3    H274969   1.426   0.066  16.233 -1.5738  0.5831 -2.1085
17852TIP3   OH274970   4.496   2.175   3.679  0.2224  0.1352  0.7633
17852TIP3    H174971   4.446   2.115   3.734 -0.9632  1.1793  0.8225
17852TIP3    H274972   4.551   2.223   3.741 -0.1376  0.3698  0.9024
17853TIP3   OH274973   3.683   2.035   6.339  0.1111 -0.4331  0.2657
17853TIP3    H174974   3.753   2.075   6.288  0.3099 -0.8538  0.2104
17853TIP3    H274975   3.673   1.947   6.302 -1.0032 -0.1005 -0.2748
17854TIP3   OH274976   4.677   2.587   3.111 -0.3458  0.4383  0.3749
17854TIP3    H174977   4.724   2.550   3.186  0.5043  0.8525  0.0562
17854TIP3    H274978   4.674   2.681   3.130 -0.3274  0.5132 -0.0010
17855TIP3   OH274979   1.742   5.153  14.067  0.1608  0.1421  0.3738
17855TIP3    H174980   1.759   5.094  13.994 -2.1895  0.0286 -0.1183
17855TIP3    H274981   1.691   5.101  14.130 -0.8939  1.2502  0.4715
17856TIP3   OH274982   0.885   0.499   1.809  0.4823 -0.6816 -0.6220
17856TIP3    H174983   0.883   0.405   1.828 -0.0407 -0.2386  1.6837
17856TIP3    H274984   0.795   0.520   1.785  0.3737 -0.5557 -0.0924
17857TIP3   OH274985   4.723   2.401   3.471 -0.2544  0.8512 -0.0746
17857TIP3    H174986   4.695   2.340   3.403 -0.3720  0.6696  0.1399
17857TIP3    H274987   4.649   2.462   3.480 -1.2105 -0.5248  1.5693
17858TIP3   OH274988   1.901   2.845   2.442  0.6812  0.1863 -0.2524
17858TIP3    H174989   1.895   2.755   2.473 -0.4831  0.2340 -0.3211
17858TIP3    H274990   1.985   2.848   2.395  0.0590 -1.2673 -1.5238
17859TIP3   OH274991   3.246   2.762   0.038  0.1513 -0.2104  0.1624
17859TIP3    H174992   3.311   2.817   0.081  0.4160  1.0430 -1.7872
17859TIP3    H274993   3.185   2.738   0.107  1.5393  0.2955  1.5855
17860TIP3   OH274994   3.832   4.763   4.839  0.1878 -0.3859 -0.0190
17860TIP3    H174995   3.915   4.728   4.871  1.5518  1.2240 -1.7076
17860TIP3    H274996   3.834   4.856   4.860 -1.5064 -0.4422  0.5300
17861TIP3   OH274997   3.069   1.659   0.711 -0.2404 -0.5660 -0.6472
17861TIP3    H174998   2.992   1.662   0.768 -1.2885 -1.2107 -2.0160
17861TIP3    H274999   3.034   1.667   0.623  1.1930 -1.7161 -1.3385
17862TIP3   OH275000   5.754   3.582  16.389  0.1046  0.4657  0.4778
17862TIP3    H175001   5.678   3.580  16.331 -0.4217 -0.7720  1.1909
17862TIP3    H275002   5.804   3.504  16.368  1.7787  1.8374 -0.7392
17863TIP3   OH275003   0.197   2.272  12.429 -0.4039 -0.3194 -0.0763
17863TIP3    H175004   0.146   2.230  12.360  0.7631 -2.2590  0.1935
17863TIP3    H275005   0.261   2.205  12.455 -0.0291  0.8217  2.0203
17864TIP3   OH275006   3.544   0.757  12.060  0.4214 -0.1074  0.4824
17864TIP3    H175007   3.549   0.684  12.121 -1.1070 -0.3059  0.3865
17864TIP3    H275008   3.451   0.776  12.054  0.7679  1.4989  0.0881
17865TIP3   OH275009   3.747   3.894  15.113 -0.4907  0.0002 -0.5996
17865TIP3    H175010   3.777   3.882  15.204 -0.7586 -1.1953 -0.6624
17865TIP3    H275011   3.805   3.838  15.062 -1.2781 -0.4451 -1.0016
17866TIP3   OH275012   3.969   5.997  12.220 -0.0514  0.0845 -0.1002
17866TIP3    H175013   3.876   6.001  12.240 -0.2102  0.1811 -0.8322
17866TIP3    H275014   3.995   5.908  12.243 -0.2929  0.1025  0.2422
17867TIP3   OH275015   5.787   6.415   4.261  0.4503  0.7547 -0.5944
17867TIP3    H175016   5.756   6.343   4.206  0.7739  1.3496 -1.5658
17867TIP3    H275017   5.745   6.401   4.346  0.7504 -0.7442 -0.6917
17868TIP3   OH275018   2.167   0.772   3.958  0.7177  0.2073 -0.2519
17868TIP3    H175019   2.203   0.695   3.913  0.3599 -0.4228  0.5190
17868TIP3    H275020   2.093   0.798   3.903  1.0924  0.2538 -0.7394
17869TIP3   OH275021   1.750   2.295   3.643 -0.2871  0.7418  0.4766
17869TIP3    H175022   1.760   2.268   3.734  1.0364  0.7662  0.3462
17869TIP3    H275023   1.734   2.214   3.595  2.0891  0.3392  0.3075
17870TIP3   OH275024   4.801   6.142   0.251 -0.5216  0.5950  0.5040
17870TIP3    H175025   4.839   6.173   0.334 -0.1513  0.5428  0.3552
17870TIP3    H275026   4.840   6.056   0.239  0.2040  1.0244 -0.2405
17871TIP3   OH275027   6.551   5.429  13.380 -0.1531 -0.2305  0.4231
17871TIP3    H175028   6.615   5.481  13.332  0.1552  0.0006  1.0713
17871TIP3    H275029   6.574   5.442  13.472 -0.4915 -0.9748  0.6177
17872TIP3   OH275030   0.303   4.642  14.364  0.4655  0.1066  0.1232
17872TIP3    H175031   0.393   4.674  14.372 -0.6249  2.9407  1.2443
17872TIP3    H275032   0.304   4.557  14.408  2.3109  0.6739  1.2283
17873TIP3   OH275033   0.140   4.053  12.877 -0.1948  0.5156 -0.3694
17873TIP3    H175034   0.115   4.133  12.831  0.0813  0.8089 -0.0117
17873TIP3    H275035   0.113   3.982  12.818  1.4110  0.9138 -1.6318
17874TIP3   OH275036   5.049   4.222  15.311  0.2096  0.4487  0.0903
17874TIP3    H175037   5.033   4.307  15.353 -2.8186 -1.3412  2.8082
17874TIP3    H275038   5.057   4.160  15.384  1.4562 -1.7655 -1.8478
17875TIP3   OH275039   5.708   2.195  11.593 -0.0805  0.7191 -0.3744
17875TIP3    H175040   5.755   2.234  11.519  1.6499 -0.7775 -0.1009
17875TIP3    H275041   5.716   2.101  11.580 -0.2594  0.4407  1.4146
17876TIP3   OH275042   5.808   6.250   0.066 -0.5110 -0.0634  0.3724
17876TIP3    H175043   5.837   6.181   0.126  0.9429  1.3481  1.3300
17876TIP3    H275044   5.724   6.279   0.102 -0.5454 -0.5069  0.6573
17877TIP3   OH275045   1.961   0.847  16.256 -0.2430 -0.7531  0.1918
17877TIP3    H175046   2.001   0.853  16.342 -1.8587 -2.8800  1.1422
17877TIP3    H275047   1.895   0.778  16.265 -2.5416  1.0803 -1.9194
17878TIP3   OH275048   1.761   3.933  10.808 -0.2320  0.4112  1.0404
17878TIP3    H175049   1.777   4.027  10.803  0.1450  0.4640  2.8135
17878TIP3    H275050   1.789   3.899  10.723 -0.3412  1.8861  0.3976
17879TIP3   OH275051   3.249   5.374   4.524  0.0727 -0.2511 -0.1532
17879TIP3    H175052   3.225   5.352   4.434  2.3035  0.5155 -0.9927
17879TIP3    H275053   3.338   5.339   4.533  0.1177  0.2859  1.5251
17880TIP3   OH275054   4.044   6.135   0.808  0.6161  0.0359  0.1781
17880TIP3    H175055   4.137   6.133   0.829  0.8539  1.1329 -0.6949
17880TIP3    H275056   4.000   6.112   0.890  1.5788  2.2631  1.3651
17881TIP3   OH275057   2.295   1.502  17.164  0.1224  0.1879  0.6274
17881TIP3    H175058   2.275   1.592  17.140  2.0068  0.5345  0.2450
17881TIP3    H275059   2.245   1.486  17.244 -0.7603  1.3345  0.3102
17882TIP3   OH275060   2.563   2.509   1.301  0.2650 -0.1961 -0.3695
17882TIP3    H175061   2.558   2.556   1.218  0.3666 -0.5176 -0.5613
17882TIP3    H275062   2.511   2.430   1.287  1.8586 -1.1995 -0.7777
17883TIP3   OH275063   6.209   4.391   6.376  0.2032 -0.0450 -0.0650
17883TIP3    H175064   6.121   4.418   6.404 -0.0496 -0.7126 -0.2012
17883TIP3    H275065   6.268   4.455   6.416 -0.3371  0.3384  0.1218
17884TIP3   OH275066   6.640   4.718  16.996 -0.1309 -0.0317 -0.0623
17884TIP3    H175067   6.596   4.774  16.932  1.6213 -0.7584 -1.9514
17884TIP3    H275068   6.721   4.765  17.017  0.6957 -1.1973 -0.6225
17885TIP3   OH275069   4.559   1.513  15.565  0.3540 -0.2485 -0.4576
17885TIP3    H175070   4.569   1.589  15.622  0.5812 -0.9777  0.4893
17885TIP3    H275071   4.646   1.502  15.526  0.4314 -0.2681 -0.2821
17886TIP3   OH275072   2.167   2.522  11.222  0.3086  0.5760 -0.7675
17886TIP3    H175073   2.169   2.613  11.251 -0.2690  0.3665 -0.0654
17886TIP3    H275074   2.085   2.487  11.256  0.0768  0.0494 -1.8345
17887TIP3   OH275075   5.976   5.294  16.996 -0.0020  0.7175 -0.1900
17887TIP3    H175076   5.931   5.264  17.075  1.0121  0.5989  0.3627
17887TIP3    H275077   5.981   5.217  16.940  2.0916 -0.0527  0.9863
17888TIP3   OH275078   5.726   2.242  11.868  0.6964  0.4165 -0.2597
17888TIP3    H175079   5.705   2.167  11.813  0.1271  0.3556  0.0357
17888TIP3    H275080   5.719   2.318  11.810  2.7043  0.1215 -0.9177
17889TIP3   OH275081   5.979   2.769   3.378 -0.5015  0.3224  0.2700
17889TIP3    H175082   6.013   2.729   3.298 -0.5791 -0.8246  0.7866
17889TIP3    H275083   5.891   2.732   3.388 -1.5210  2.5077 -0.5179
17890TIP3   OH275084   0.392   1.766  16.897 -0.8688 -0.1899 -0.6263
17890TIP3    H175085   0.367   1.674  16.907 -1.1195  0.1513  2.0624
17890TIP3    H275086   0.309   1.811  16.883 -1.1249  0.0459  1.4864
17891TIP3   OH275087   4.107   2.504  12.545 -0.1618 -0.6129 -0.3569
17891TIP3    H175088   4.045   2.566  12.582 -1.4828 -1.5963 -0.8806
17891TIP3    H275089   4.182   2.508  12.603 -1.8433 -1.4883  1.9365
17892TIP3   OH275090   1.848   0.121  12.210 -0.3817  0.5385 -0.2542
17892TIP3    H175091   1.880   0.063  12.279  0.4442 -0.4087 -1.4163
17892TIP3    H275092   1.925   0.139  12.156 -1.0709  1.0564 -1.0772
17893TIP3   OH275093   5.781   0.349   4.236  0.0639 -0.2379  0.0380
17893TIP3    H175094   5.735   0.314   4.160  3.2036 -1.0128 -1.5820
17893TIP3    H275095   5.760   0.289   4.307 -1.0905 -0.7829 -0.7527
17894TIP3   OH275096   1.642   5.585   2.563 -0.1031 -0.4623  0.2700
17894TIP3    H175097   1.565   5.540   2.531  0.5462  0.5667 -2.9094
17894TIP3    H275098   1.611   5.673   2.585 -0.2220 -0.6473  0.8357
17895TIP3   OH275099   5.968   2.567   3.617  0.2531  0.4216 -0.0783
17895TIP3    H175100   5.906   2.601   3.553 -0.5838  0.5595  0.7954
17895TIP3    H275101   5.930   2.590   3.702  0.5098 -1.2410  0.5017
17896TIP3   OH275102   3.185   2.680   2.229  0.3369  0.4348  0.1445
17896TIP3    H175103   3.239   2.718   2.160 -0.6833  2.1978  0.2726
17896TIP3    H275104   3.214   2.725   2.309  0.6281 -0.6651  0.6636
17897TIP3   OH275105   2.904   4.395  13.425  0.1356 -0.2669 -0.0459
17897TIP3    H175106   2.809   4.383  13.428  0.3948 -2.7416 -0.4477
17897TIP3    H275107   2.938   4.338  13.494  1.3007  1.0832  0.5220
17898TIP3   OH275108   6.483   4.030   1.487  0.3850 -0.3278 -0.0318
17898TIP3    H175109   6.489   4.100   1.422  0.5673 -0.8931 -0.6243
17898TIP3    H275110   6.472   4.076   1.571 -1.6947  0.3669 -0.6700
17899TIP3   OH275111   6.587   0.099  10.826  0.0392  0.2108  0.0562
17899TIP3    H175112   6.499   0.083  10.792 -0.0053 -1.5751  0.9538
17899TIP3    H275113   6.622   0.168  10.769 -1.4155 -0.0340 -1.1854
17900TIP3   OH275114   4.467   0.635  13.869 -0.1791 -0.9580  0.3020
17900TIP3    H175115   4.498   0.693  13.938  0.5079  0.6310 -1.2861
17900TIP3    H275116   4.490   0.547  13.899  0.5797 -0.2575  1.8376
17901TIP3   OH275117   1.492   3.735   2.284  0.3260  0.0902 -0.5440
17901TIP3    H175118   1.399   3.760   2.281  0.1776 -0.1614  1.2338
17901TIP3    H275119   1.508   3.692   2.200 -0.9326  0.9304 -1.2361
17902TIP3   OH275120   3.359   2.238   4.426 -0.2924  0.3172 -0.0477
17902TIP3    H175121   3.323   2.210   4.510 -1.4011  1.1284 -0.2428
17902TIP3    H275122   3.290   2.218   4.362  0.9697 -1.3303 -0.9464
17903TIP3   OH275123   5.965   4.189  16.990 -0.5118  0.2692 -0.2444
17903TIP3    H175124   6.049   4.186  17.036 -0.6224 -1.3840 -0.1296
17903TIP3    H275125   5.959   4.105  16.945 -0.8147  1.4910 -2.5764
17904TIP3   OH275126   2.486   2.411   0.757  0.5634  0.1519 -0.4736
17904TIP3    H175127   2.480   2.424   0.852  0.5941 -1.6773 -0.1937
17904TIP3    H275128   2.557   2.347   0.747 -2.1026 -2.7628 -1.4170
17905TIP3   OH275129   2.511   0.150  14.732 -0.0144 -0.2032  0.0665
17905TIP3    H175130   2.527   0.093  14.657 -0.3627 -1.7410  1.1233
17905TIP3    H275131   2.532   0.095  14.808 -2.4038  0.3631  1.1907
17906TIP3   OH275132   3.957   3.575   2.665  0.2654  0.3628  0.1370
17906TIP3    H175133   4.012   3.507   2.706  0.5708  0.7708  0.4041
17906TIP3    H275134   3.868   3.540   2.672  0.5811 -0.7390 -1.1601
17907TIP3   OH275135   1.135   4.126   2.825  0.4364 -0.4241 -0.0442
17907TIP3    H175136   1.084   4.076   2.761 -0.3147 -1.0601  1.0280
17907TIP3    H275137   1.214   4.074   2.838  0.0510 -0.9063  0.4163
17908TIP3   OH275138   0.984   5.107  11.226 -0.4616  0.1772 -0.2778
17908TIP3    H175139   1.049   5.039  11.242  0.4752  0.2987 -3.2596
17908TIP3    H275140   0.925   5.070  11.160 -0.0255  2.1519 -1.8364
17909TIP3   OH275141   0.612   6.732   4.091  0.2482  0.4237 -0.0154
17909TIP3    H175142   0.548   6.761   4.156  1.3746  0.4137  1.1137
17909TIP3    H275143   0.641   6.813   4.049 -1.7275  0.2940 -1.7266
17910TIP3   OH275144   4.920   1.708   4.312  0.4917 -0.1451 -0.1551
17910TIP3    H175145   4.885   1.621   4.329 -0.0174  0.0416 -0.2435
17910TIP3    H275146   4.854   1.768   4.346 -0.3854  0.2402 -2.4185
17911TIP3   OH275147   2.229   6.527   1.390  0.8143  0.5122  0.1906
17911TIP3    H175148   2.172   6.451   1.397 -1.1435  1.7335 -1.6192
17911TIP3    H275149   2.264   6.540   1.478 -0.1212 -1.4827  0.8669
17912TIP3   OH275150   3.478   5.586   0.891  0.4072  0.0020  0.2425
17912TIP3    H175151   3.422   5.546   0.825 -0.0337  0.9889  0.0092
17912TIP3    H275152   3.542   5.519   0.912  1.4025  0.1569 -2.2025
17913TIP3   OH275153   3.129   2.705  15.365 -0.2444 -0.6073  0.0841
17913TIP3    H175154   3.196   2.641  15.339  0.1712 -0.3565  0.5182
17913TIP3    H275155   3.051   2.653  15.384  0.2305 -1.0398  0.8937
17914TIP3   OH275156   5.018   4.776  14.634  0.1601 -0.1474 -0.0283
17914TIP3    H175157   5.007   4.721  14.712 -1.8886  3.1039  2.0726
17914TIP3    H275158   4.974   4.858  14.656  1.3142  1.5993 -3.8738
17915TIP3   OH275159   0.553   6.384   3.007  0.0095  0.9092 -0.1824
17915TIP3    H175160   0.596   6.320   2.951  0.9765  0.9492  0.5031
17915TIP3    H275161   0.563   6.350   3.095 -1.4925  0.8552 -0.0198
17916TIP3   OH275162   6.600   1.293   0.938 -0.4973  0.1860  0.0582
17916TIP3    H175163   6.658   1.233   0.892  0.6909 -0.1069  1.8896
17916TIP3    H275164   6.652   1.373   0.949 -0.9536  0.4386  0.3911
17917TIP3   OH275165   5.127   2.011  16.110  0.0383  0.1032  0.2660
17917TIP3    H175166   5.176   1.958  16.172 -1.5091  1.2777  2.5807
17917TIP3    H275167   5.163   2.099  16.119 -0.3105  0.3186 -0.3771
17918TIP3   OH275168   6.483   0.437  16.260  0.0950 -0.0257 -0.0060
17918TIP3    H175169   6.418   0.474  16.320  0.0118 -1.0969  0.5724
17918TIP3    H275170   6.550   0.505  16.252 -0.7737  0.8212 -0.0921
17919TIP3   OH275171   5.446   0.329  16.757 -0.3310  0.0847  0.3608
17919TIP3    H175172   5.486   0.368  16.835  2.5067 -0.0922 -0.9277
17919TIP3    H275173   5.411   0.404  16.709 -0.2123  0.4159  0.7794
17920TIP3   OH275174   1.946   1.419   4.990 -0.2308  0.2241 -0.4559
17920TIP3    H175175   2.023   1.367   4.966 -0.4194  0.3358 -1.3047
17920TIP3    H275176   1.983   1.495   5.036  0.0194 -0.8138  1.1159
17921TIP3   OH275177   1.632   2.087   3.470 -0.1051 -0.9120 -0.0751
17921TIP3    H175178   1.549   2.092   3.517 -0.2103 -1.0023 -0.2525
17921TIP3    H275179   1.617   2.139   3.390  0.0487 -0.8206 -0.0436
17922TIP3   OH275180   2.280   1.837  14.810  0.4498  0.0114  0.5625
17922TIP3    H175181   2.275   1.909  14.748  0.1191 -0.2166  0.3210
17922TIP3    H275182   2.370   1.840  14.844  0.3416  0.7348  0.8013
17923TIP3   OH275183   3.840   0.622   1.412 -0.3712  0.8208  0.4234
17923TIP3    H175184   3.928   0.592   1.435 -0.2686  0.6949 -0.1244
17923TIP3    H275185   3.782   0.569   1.466 -0.1105  0.8755  0.7560
17924TIP3   OH275186   6.491   0.724  12.809  0.2866 -0.2082 -0.0625
17924TIP3    H175187   6.440   0.687  12.881  1.2728  0.1984  0.8588
17924TIP3    H275188   6.535   0.649  12.770  1.5507 -0.1538  1.2168
17925TIP3   OH275189   2.344   4.510   5.952  0.1339  0.0979 -0.0010
17925TIP3    H175190   2.408   4.555   6.008  1.8786  2.6555 -3.8763
17925TIP3    H275191   2.382   4.424   5.937  1.5069  0.7364 -0.2938
17926TIP3   OH275192   2.531   4.785  13.191  0.2751  0.1428 -0.5162
17926TIP3    H175193   2.435   4.776  13.187  0.0808  1.2159  1.1791
17926TIP3    H275194   2.560   4.712  13.244  0.4803 -0.5973 -1.6360
17927TIP3   OH275195   1.447   3.972   0.264 -0.9421 -0.4018 -0.6050
17927TIP3    H175196   1.379   3.991   0.199 -0.3511 -0.5711 -1.2810
17927TIP3    H275197   1.504   3.909   0.220 -0.3879 -0.3091 -0.0115
17928TIP3   OH275198   5.553   3.752   2.937 -0.1750 -0.7289 -0.2223
17928TIP3    H175199   5.617   3.801   2.884 -0.4768  0.8484  0.8298
17928TIP3    H275200   5.606   3.695   2.992  0.1430 -2.4878 -2.2692
17929TIP3   OH275201   5.950   1.750   2.986  0.0624 -0.2111 -0.4830
17929TIP3    H175202   6.032   1.785   2.950 -0.3241  1.9450  0.7038
17929TIP3    H275203   5.973   1.726   3.076 -0.6005  0.3645 -0.1607
17930TIP3   OH275204   5.864   1.999   4.403 -0.2309  0.1514  0.0980
17930TIP3    H175205   5.796   2.034   4.461  0.1521  0.7108  0.2142
17930TIP3    H275206   5.938   1.980   4.461 -0.5896 -1.2598  0.0976
17931TIP3   OH275207   0.617   3.305  11.937  0.0024  0.3014  0.4122
17931TIP3    H175208   0.631   3.226  11.990 -1.5517 -0.0566  0.3148
17931TIP3    H275209   0.573   3.273  11.859  0.0514  1.1740  0.0302
17932TIP3   OH275210   5.291   2.801   3.622  0.2233 -0.1545  0.6492
17932TIP3    H175211   5.381   2.775   3.645  0.2442 -0.6334  0.0315
17932TIP3    H275212   5.266   2.741   3.552 -0.6420 -0.1301  0.9343
17933TIP3   OH275213   0.278   0.959  16.856 -0.1048 -0.4538 -0.8123
17933TIP3    H175214   0.236   1.037  16.893 -0.2441 -0.8094 -0.2206
17933TIP3    H275215   0.350   0.941  16.915 -1.4145 -2.0968  0.3327
17934TIP3   OH275216   6.195   3.440  17.202 -0.2433  0.3749  0.2047
17934TIP3    H175217   6.148   3.362  17.173  0.0027 -0.4555  1.9848
17934TIP3    H275218   6.216   3.487  17.121 -0.7102 -1.2146 -0.8570
17935TIP3   OH275219   5.421   5.607  11.496 -0.7221  0.4867 -0.1586
17935TIP3    H175220   5.410   5.598  11.401  2.0235  1.3218 -0.6085
17935TIP3    H275221   5.473   5.687  11.506  1.8833 -1.3630  1.8334
17936TIP3   OH275222   2.054   5.912  15.043 -0.4431  0.0497 -0.9861
17936TIP3    H175223   2.112   5.930  15.117 -0.7034  2.3963 -1.3287
17936TIP3    H275224   1.981   5.973  15.053 -1.9851 -1.6219 -1.5756
17937TIP3   OH275225   1.539   2.303   1.710  0.5313  0.4828 -0.0844
17937TIP3    H175226   1.564   2.306   1.802 -1.6201  0.0517  0.5375
17937TIP3    H275227   1.532   2.210   1.689  0.5055  0.5838 -0.5475
17938TIP3   OH275228   1.445   2.632  11.833  0.2953 -0.1073  0.4588
17938TIP3    H175229   1.508   2.567  11.801  2.1153  1.7669  0.0925
17938TIP3    H275230   1.492   2.715  11.827 -2.3774  1.4102 -0.1796
17939TIP3   OH275231   0.732   2.507  15.528 -0.3112 -0.4601  0.4764
17939TIP3    H175232   0.681   2.548  15.458 -0.7445 -0.3493  0.8576
17939TIP3    H275233   0.796   2.573  15.553  0.1781 -0.6884 -0.1683
17940TIP3   OH275234   5.145   2.848  12.956  0.7130 -0.2914 -0.2883
17940TIP3    H175235   5.233   2.883  12.944 -0.2465  1.8513 -1.3178
17940TIP3    H275236   5.122   2.810  12.872  1.2522 -2.3699  0.4583
17941TIP3   OH275237   0.650   0.080   1.012  0.4031 -0.3657  0.3489
17941TIP3    H175238   0.604   0.144   1.067  1.8556 -0.6102  1.8760
17941TIP3    H275239   0.716   0.131   0.966 -2.2691  0.2631 -3.0123
17942TIP3   OH275240   6.750   6.102  10.813 -0.0903  0.5108 -0.0611
17942TIP3    H175241   6.714   6.029  10.762  0.2214  1.1937 -1.2666
17942TIP3    H275242   6.845   6.095  10.802  0.1562 -0.8145  2.4755
17943TIP3   OH275243   2.823   1.467  10.160  0.6175  0.1427 -0.3092
17943TIP3    H175244   2.913   1.436  10.174  0.1785 -0.3470  1.5194
17943TIP3    H275245   2.821   1.554  10.200  0.3030  0.1842 -0.4150
17944TIP3   OH275246   1.761   0.927   2.391  0.2417  0.3417 -0.0759
17944TIP3    H175247   1.756   1.015   2.430 -0.5646  0.3079 -0.1091
17944TIP3    H275248   1.674   0.889   2.405  1.7731 -2.1095  3.7953
17945TIP3   OH275249   2.893   0.567   4.091  0.1039  0.3228 -0.0092
17945TIP3    H175250   2.809   0.563   4.137 -1.1603 -1.3322 -2.3226
17945TIP3    H275251   2.938   0.486   4.115  0.3844  0.4834  0.0123
17946TIP3   OH275252   0.081   1.475   5.785 -0.3519  0.3968  0.3214
17946TIP3    H175253   0.082   1.560   5.828  2.2537  0.3981  0.3644
17946TIP3    H275254   0.103   1.495   5.694  0.7043 -0.2545  0.4257
17947TIP3   OH275255   4.177   0.942  13.252 -0.0160  0.7073  0.1621
17947TIP3    H175256   4.214   0.975  13.171 -0.6875  2.5307  0.5663
17947TIP3    H275257   4.231   0.866  13.275  0.1466  0.1593 -1.9873
17948TIP3   OH275258   0.529   1.449  13.805 -0.0638  0.4075 -0.5264
17948TIP3    H175259   0.574   1.366  13.786  0.6543  0.1991  1.8878
17948TIP3    H275260   0.563   1.510  13.740  1.2417 -0.6017 -0.8182
17949TIP3   OH275261   1.217   2.000   5.588  0.2217 -0.0016 -0.3323
17949TIP3    H175262   1.250   2.069   5.530 -0.2608 -0.4861 -1.2068
17949TIP3    H275263   1.127   2.025   5.606  0.7578  0.8379  1.3057
17950TIP3   OH275264   5.509   3.802  15.687  0.2362  0.0230  0.8045
17950TIP3    H175265   5.601   3.779  15.703  0.0746 -0.5484  0.9172
17950TIP3    H275266   5.462   3.765  15.762 -0.3246 -1.3005 -0.1827
17951TIP3   OH275267   1.234   4.375   3.300 -0.6455  0.1229 -0.6185
17951TIP3    H175268   1.219   4.283   3.325  1.0173 -0.0083 -0.0399
17951TIP3    H275269   1.169   4.392   3.232 -0.6002 -1.6674 -1.1464
17952TIP3   OH275270   6.152   3.555   3.416  0.3769 -0.9271 -0.4619
17952TIP3    H175271   6.245   3.555   3.394  0.0502 -1.9104 -1.9012
17952TIP3    H275272   6.141   3.483   3.478  0.5717 -0.7526 -0.2209
17953TIP3   OH275273   3.245   1.680  14.511  0.0896  0.4318  0.1882
17953TIP3    H175274   3.260   1.717  14.598 -0.5677 -0.8806  0.8645
17953TIP3    H275275   3.310   1.610  14.503 -1.6405 -1.2554  0.7168
17954TIP3   OH275276   4.366   3.834   5.782 -0.3266 -0.0999  0.1302
17954TIP3    H175277   4.393   3.789   5.863 -0.8754 -0.0757  0.3341
17954TIP3    H275278   4.284   3.791   5.758 -0.1674 -0.0993 -0.4129
17955TIP3   OH275279   0.961   3.956  10.453 -0.5735 -0.0337 -0.4853
17955TIP3    H175280   0.899   3.884  10.439  0.8805 -1.1380 -1.3694
17955TIP3    H275281   0.924   4.030  10.405  0.3301 -1.5634 -3.6865
17956TIP3   OH275282   1.035   6.051  11.558  0.4987 -0.1459 -0.0143
17956TIP3    H175283   1.063   6.048  11.466  0.5792 -0.5870  0.0203
17956TIP3    H275284   0.958   5.995  11.561  0.6163 -0.2985  0.2276
17957TIP3   OH275285   1.980   6.626   5.648 -0.4610 -0.0854  0.7656
17957TIP3    H175286   1.928   6.563   5.697 -0.6068 -1.0030 -0.5739
17957TIP3    H275287   2.071   6.597   5.660 -0.5056 -0.3750  0.3931
17958TIP3   OH275288   6.734   2.263   4.937  0.2704  0.3230 -0.0290
17958TIP3    H175289   6.752   2.171   4.920  4.3823  0.7930  1.3369
17958TIP3    H275290   6.666   2.262   5.005  1.3283 -1.7221  1.0387
17959TIP3   OH275291   3.170   1.926   1.910  0.0283 -0.2170 -0.1399
17959TIP3    H175292   3.253   1.935   1.862  0.1341  0.1288  0.1095
17959TIP3    H275293   3.114   1.877   1.851  1.7214 -4.0397  1.2200
17960TIP3   OH275294   6.727   1.804  13.899  0.1480 -0.3298 -0.0742
17960TIP3    H175295   6.733   1.740  13.828 -0.3216 -0.6556  0.1780
17960TIP3    H275296   6.674   1.761  13.966  1.3917 -0.3970  0.8844
17961TIP3   OH275297   1.406   3.244   5.361  0.7342 -0.1023 -0.0994
17961TIP3    H175298   1.359   3.162   5.372 -0.8331  0.8629  0.5548
17961TIP3    H275299   1.491   3.218   5.324 -0.5598 -1.8102 -2.0197
17962TIP3   OH275300   3.422   3.347  12.449 -0.1450 -0.0342  0.2021
17962TIP3    H175301   3.403   3.430  12.406 -1.2575 -0.1202  0.5017
17962TIP3    H275302   3.465   3.370  12.531 -0.0362  0.2234  0.0716
17963TIP3   OH275303   2.985   5.500  11.412  0.0911 -0.0200  0.3157
17963TIP3    H175304   3.064   5.449  11.433  0.2036  0.1453  0.3002
17963TIP3    H275305   3.001   5.532  11.323  1.5043  2.7710  1.4970
17964TIP3   OH275306   4.797   3.596  13.527  0.4657  0.5022 -0.1238
17964TIP3    H175307   4.708   3.576  13.557  1.5653 -2.9047  1.0991
17964TIP3    H275308   4.822   3.673  13.577 -1.1335  0.3550  0.9448
17965TIP3   OH275309   1.315   2.640   4.100 -0.2130  0.0843 -0.3787
17965TIP3    H175310   1.289   2.674   4.185  0.2170  0.4429 -0.3857
17965TIP3    H275311   1.276   2.553   4.095  1.4119 -0.7354  1.0167
17966TIP3   OH275312   1.585   4.062  10.437 -0.1065 -0.1488  0.1145
17966TIP3    H175313   1.602   3.968  10.423  1.8193  0.2818 -0.7106
17966TIP3    H275314   1.574   4.070  10.531  2.3758 -0.8516  0.5052
17967TIP3   OH275315   5.166   5.137   6.235  0.4924 -0.4928 -0.4556
17967TIP3    H175316   5.196   5.072   6.300 -0.9092 -1.3809 -0.6744
17967TIP3    H275317   5.140   5.212   6.287  1.9910 -0.1361 -0.1841
17968TIP3   OH275318   1.894   6.187   0.953  0.0872 -0.4896  0.4289
17968TIP3    H175319   1.870   6.170   1.045 -0.8961 -0.2424  0.2192
17968TIP3    H275320   1.824   6.243   0.920  1.4372  1.0056  0.0676
17969TIP3   OH275321   4.641   3.349  11.896  0.6489 -0.0807  0.0035
17969TIP3    H175322   4.583   3.338  11.972 -1.1596  1.0806 -1.1696
17969TIP3    H275323   4.650   3.443  11.886  1.9330 -0.2522 -0.4441
17970TIP3   OH275324   1.257   3.052  16.499 -0.1762  0.5375  0.4598
17970TIP3    H175325   1.282   3.036  16.408 -0.2223  0.0791  0.5273
17970TIP3    H275326   1.307   2.989  16.550 -1.5976 -0.5401  0.5743
17971TIP3   OH275327   4.596   1.779  15.311  0.2327 -0.0379  0.6944
17971TIP3    H175328   4.651   1.841  15.359  0.0076 -0.0660  0.9890
17971TIP3    H275329   4.508   1.817  15.313  0.2362 -0.0054  0.2426
17972TIP3   OH275330   0.721   1.171   4.924 -0.0310  0.5055  0.1191
17972TIP3    H175331   0.761   1.157   5.010 -0.2703  0.4200  0.2172
17972TIP3    H275332   0.765   1.248   4.889 -1.3386  1.7467  1.1651
17973TIP3   OH275333   5.515   6.485   6.579  0.0921 -0.1655 -0.4318
17973TIP3    H175334   5.421   6.488   6.595  0.2228  0.7420  0.1625
17973TIP3    H275335   5.523   6.476   6.484 -0.5841  0.0690 -0.5116
17974TIP3   OH275336   0.028   4.029  10.585  0.1811 -0.4621 -0.0558
17974TIP3    H175337  -0.067   4.017  10.587  0.2651 -0.9933  1.2028
17974TIP3    H275338   0.062   3.956  10.636  1.1325  0.9818  1.4283
17975TIP3   OH275339   3.979   5.722  12.218 -0.2494 -0.1113  0.5451
17975TIP3    H175340   4.005   5.701  12.308 -0.0932 -0.9658  0.3046
17975TIP3    H275341   3.899   5.673  12.203 -0.2146 -0.0628  0.1809
17976TIP3   OH275342   2.807   6.219   3.853  0.0389  0.1712  0.3124
17976TIP3    H175343   2.731   6.254   3.900  0.0667  0.4886  0.1206
17976TIP3    H275344   2.815   6.129   3.885  2.1755  1.4310  3.5351
17977TIP3   OH275345   3.153   5.985  14.062  0.3222 -0.1527 -0.2524
17977TIP3    H175346   3.061   5.998  14.041  1.0122 -1.3771 -4.4780
17977TIP3    H275347   3.196   6.067  14.038  0.6383 -0.3279 -0.2931
17978TIP3   OH275348   6.011   6.651  11.798 -0.2546 -0.3127  0.0337
17978TIP3    H175349   5.996   6.704  11.877 -0.0412  0.0321 -0.1568
17978TIP3    H275350   6.084   6.695  11.753  0.5104 -1.2775  0.3250
17979TIP3   OH275351   2.798   3.491   0.562  0.6113 -0.3272  0.2387
17979TIP3    H175352   2.791   3.400   0.532  1.6167 -0.6243  0.8878
17979TIP3    H275353   2.831   3.484   0.652  2.1952  0.7327 -0.2504
17980TIP3   OH275354   5.823   2.655  16.330 -0.8790 -0.4220  0.3169
17980TIP3    H175355   5.794   2.565  16.318  0.9775 -1.2630  2.0166
17980TIP3    H275356   5.894   2.666  16.266 -0.6154 -0.4023  0.6113
17981TIP3   OH275357   5.517   3.654   0.200  0.3039  0.3270  0.0745
17981TIP3    H175358   5.484   3.612   0.279 -1.3866  0.2639 -0.6442
17981TIP3    H275359   5.573   3.589   0.159  0.7108  0.1471  0.9104
17982TIP3   OH275360   2.571   5.034   5.432 -0.1454  0.2183  0.6020
17982TIP3    H175361   2.568   5.072   5.520  2.4788 -1.3509  1.4356
17982TIP3    H275362   2.539   5.103   5.375 -2.4220  1.0980  2.8322
17983TIP3   OH275363   1.858   6.286   2.393  0.4017  0.2210  0.5515
17983TIP3    H175364   1.934   6.259   2.445 -0.2692  0.4162  1.6323
17983TIP3    H275365   1.884   6.268   2.303  1.4917 -0.3139  0.9628
17984TIP3   OH275366   4.041   6.596   2.046 -0.9835  0.3876 -0.2264
17984TIP3    H175367   4.052   6.662   1.977 -0.4586  0.1445 -0.3747
17984TIP3    H275368   4.103   6.623   2.114 -1.8108  0.8816  0.3500
17985TIP3   OH275369   3.934   2.423  15.910 -0.0258  0.2948 -0.0405
17985TIP3    H175370   3.982   2.359  15.857 -2.8225  0.3375 -2.7742
17985TIP3    H275371   3.850   2.380  15.929 -0.3122  1.5541  1.7161
17986TIP3   OH275372   2.159   1.722  10.844  0.4983  0.4310  0.3531
17986TIP3    H175373   2.209   1.674  10.779  1.0085  0.2860  0.8532
17986TIP3    H275374   2.104   1.782  10.793  0.8039  0.2277 -0.2092
17987TIP3   OH275375   4.170   3.630   5.368  0.2910  0.1202  0.1059
17987TIP3    H175376   4.129   3.643   5.453  1.3587  3.4422  0.1555
17987TIP3    H275377   4.100   3.597   5.312 -0.7340 -0.8087  1.9248
17988TIP3   OH275378   6.114   4.852  11.086  0.2175 -0.2047 -0.0266
17988TIP3    H175379   6.174   4.795  11.037 -2.2147 -1.8259 -1.2354
17988TIP3    H275380   6.097   4.925  11.028  0.2253 -0.2646 -0.1036
17989TIP3   OH275381   4.686   0.095  10.868 -0.0984  0.1769  0.0408
17989TIP3    H175382   4.734   0.168  10.906  0.8871 -0.4107 -0.0532
17989TIP3    H275383   4.648   0.130  10.787  0.3405  0.5984  0.0151
17990TIP3   OH275384   1.316   2.660  10.537  0.0619 -0.0679 -0.3230
17990TIP3    H175385   1.317   2.754  10.522 -2.7099 -0.0586 -0.7860
17990TIP3    H275386   1.323   2.650  10.632 -1.3901  0.6981 -0.1270
17991TIP3   OH275387   6.547   5.568  10.948  0.2924 -0.3358  0.6163
17991TIP3    H175388   6.541   5.473  10.941 -0.4998 -0.1882 -0.9402
17991TIP3    H275389   6.489   5.601  10.880 -0.1214  1.2799  1.7219
17992TIP3   OH275390   4.481   3.683   4.676  0.0335 -0.3336  0.3721
17992TIP3    H175391   4.394   3.676   4.715  0.1611 -2.3698  0.3453
17992TIP3    H275392   4.506   3.593   4.656  1.9724  0.2608 -0.0279
17993TIP3   OH275393   1.060   3.439  16.303  0.2529 -0.2803  0.0584
17993TIP3    H175394   1.073   3.381  16.378  2.1142 -0.1522 -0.1555
17993TIP3    H275395   1.035   3.523  16.342  0.8504 -0.3131  0.5147
17994TIP3   OH275396   3.076   4.483  15.961 -0.1860  0.0230 -0.2313
17994TIP3    H175397   3.100   4.521  16.046  2.7667 -0.8122 -0.6276
17994TIP3    H275398   3.121   4.398  15.959 -2.5008 -1.2057 -1.4818
17995TIP3   OH275399   6.747   4.056  11.892 -0.1183  0.2887  0.5709
17995TIP3    H175400   6.777   3.973  11.929 -1.0890 -0.3522 -0.0678
17995TIP3    H275401   6.751   4.043  11.797  1.0641  1.4613  0.4455
17996TIP3   OH275402   1.336   5.803   5.614  0.6398 -0.3488 -0.3172
17996TIP3    H175403   1.363   5.757   5.693  2.9296  1.7155  0.1806
17996TIP3    H275404   1.244   5.778   5.601  0.1773 -0.6644  3.0515
17997TIP3   OH275405   4.823   5.082  16.124 -0.3123 -0.0099 -0.1050
17997TIP3    H175406   4.876   5.043  16.194 -1.1640  4.5221  3.2586
17997TIP3    H275407   4.877   5.151  16.088 -2.0062  1.3696 -0.0517
17998TIP3   OH275408   3.818   0.159  15.356 -0.3659 -0.1380 -0.4876
17998TIP3    H175409   3.885   0.119  15.412 -0.0457 -1.7445 -1.9871
17998TIP3    H275410   3.751   0.091  15.347 -1.2336  0.7334 -0.6484
17999TIP3   OH275411   2.761   5.683  12.931  0.3155 -0.6163 -0.3561
17999TIP3    H175412   2.855   5.669  12.938  0.3135 -1.0924 -1.1383
17999TIP3    H275413   2.746   5.696  12.837  0.0620  2.8613  0.1018
18000TIP3   OH275414   1.253   6.099   4.470 -0.0025  0.0711  0.0556
18000TIP3    H175415   1.332   6.067   4.514  0.4595  1.3040  0.1338
18000TIP3    H275416   1.183   6.090   4.536  0.4009  0.5422  0.5529
18001TIP3   OH275417   5.158   5.120  12.648 -0.0635  0.1487 -0.4556
18001TIP3    H175418   5.178   5.053  12.583  2.1535  0.1326  0.2220
18001TIP3    H275419   5.194   5.201  12.613  0.0176  0.3894  0.1652
18002TIP3   OH275420   3.425   0.593   5.286 -0.1554  0.1578  0.4024
18002TIP3    H175421   3.517   0.575   5.267  0.3268  0.0509  2.6637
18002TIP3    H275422   3.412   0.683   5.256  1.3058  0.9489  2.0070
18003TIP3   OH275423   6.280   1.241  11.104 -0.1185  0.0771 -0.2007
18003TIP3    H175424   6.358   1.287  11.073 -0.7888  1.3981  0.0004
18003TIP3    H275425   6.264   1.174  11.038  2.3377 -1.5509  0.7880
18004TIP3   OH275426   3.968   4.919  15.923  0.4278  0.2177 -0.0910
18004TIP3    H175427   4.013   4.866  15.857  0.2537  0.5068 -0.4492
18004TIP3    H275428   4.004   4.890  16.006 -0.2174 -1.0152 -0.2164
18005TIP3   OH275429   2.584   1.470  11.857  0.1713  0.0259  0.1119
18005TIP3    H175430   2.540   1.441  11.937 -0.8183  0.0446 -0.4295
18005TIP3    H275431   2.601   1.563  11.872 -0.2118  0.0789  0.2055
18006TIP3   OH275432   2.764   0.716  14.347  0.6578  0.0332  0.0725
18006TIP3    H175433   2.766   0.789  14.286  2.1811 -0.1658 -0.1287
18006TIP3    H275434   2.824   0.741  14.417 -0.0728 -0.3141  0.8397
18007TIP3   OH275435   1.405   3.541   3.788  0.2417  0.2151  0.7644
18007TIP3    H175436   1.373   3.459   3.751  0.4980  0.0492  0.9148
18007TIP3    H275437   1.451   3.584   3.716  2.3439 -0.9446  1.3771
18008TIP3   OH275438   5.497   5.491  16.283 -0.4857 -0.1910 -0.2196
18008TIP3    H175439   5.509   5.549  16.357  0.1900 -0.6580  0.0456
18008TIP3    H275440   5.576   5.502  16.230 -1.1564  0.4664 -1.1018
18009TIP3   OH275441   4.957   0.812  14.537  0.3236 -0.2619 -0.6062
18009TIP3    H175442   4.870   0.775  14.524  0.7688 -1.0119 -1.4303
18009TIP3    H275443   4.976   0.797  14.630 -0.9360  1.0096 -0.1271
18010TIP3   OH275444   6.413   2.820  12.056 -0.3850  0.0679 -0.2650
18010TIP3    H175445   6.361   2.835  12.135  0.8461 -0.3191  0.6298
18010TIP3    H275446   6.348   2.795  11.990 -1.7742  3.1960 -0.1717
18011TIP3   OH275447   3.698   5.950   2.562 -0.4163  0.1834 -0.1879
18011TIP3    H175448   3.736   5.938   2.475  1.2063  1.8285  0.2516
18011TIP3    H275449   3.726   5.873   2.611  0.7008  0.3997 -0.4534
18012TIP3   OH275450   1.720   0.911  13.142  0.5358 -0.0684 -0.5886
18012TIP3    H175451   1.757   0.913  13.230  1.4167  0.4550 -0.9672
18012TIP3    H275452   1.779   0.854  13.092 -0.3854 -0.9852 -0.6615
18013TIP3   OH275453   0.567   0.917   1.896  0.4186  0.0777 -0.1167
18013TIP3    H175454   0.655   0.942   1.923 -0.2267  4.0367 -1.3247
18013TIP3    H275455   0.543   0.845   1.955  4.2615 -0.8399  0.4579
18014TIP3   OH275456   6.196   1.598  11.718 -0.3771 -0.3746 -0.0125
18014TIP3    H175457   6.244   1.540  11.777 -0.2959  1.1034  1.4049
18014TIP3    H275458   6.114   1.615  11.763 -0.6326  0.1953 -0.6833
18015TIP3   OH275459   0.894   5.548   1.723 -1.2094  0.1142 -0.4138
18015TIP3    H175460   0.892   5.462   1.681 -3.3078 -0.8793  1.5844
18015TIP3    H275461   0.970   5.544   1.781 -1.7887 -0.7274  0.3033
18016TIP3   OH275462   1.937   0.253  10.598  0.1954 -0.0080  0.3076
18016TIP3    H175463   1.875   0.295  10.540 -1.5132 -0.8640  1.4755
18016TIP3    H275464   1.900   0.167  10.616  0.2191  0.5454  3.3258
18017TIP3   OH275465   2.802   1.768   6.043 -0.0008  0.1636  0.7301
18017TIP3    H175466   2.814   1.749   6.136 -1.0599 -2.0909  0.4471
18017TIP3    H275467   2.888   1.799   6.013  0.7729 -0.6130  2.1003
18018TIP3   OH275468   3.033   6.528   0.919  0.0837  0.5409 -0.1170
18018TIP3    H175469   3.008   6.470   0.990 -2.3957  1.7888  0.1247
18018TIP3    H275470   2.987   6.610   0.939  0.7236  1.4415 -2.2368
18019TIP3   OH275471   1.510   0.872   3.048 -0.3204  0.3946 -0.2269
18019TIP3    H175472   1.589   0.855   2.996  0.2226 -1.4735  1.1529
18019TIP3    H275473   1.540   0.924   3.122 -0.3932 -0.1578  0.1988
18020TIP3   OH275474   1.605   6.112   1.557 -0.0867  0.1328 -0.2840
18020TIP3    H175475   1.679   6.126   1.499  0.9368  0.6470  1.1317
18020TIP3    H275476   1.548   6.051   1.508  1.0459  0.0596 -1.5451
18021TIP3   OH275477   6.682   2.777  14.080  0.5933 -0.0628 -0.0832
18021TIP3    H175478   6.715   2.858  14.120  1.1544 -0.3654  0.0743
18021TIP3    H275479   6.589   2.775  14.105  0.5370  0.6118 -0.2237
18022TIP3   OH275480   3.498   6.518  16.837 -0.1555  0.0396  0.2386
18022TIP3    H175481   3.408   6.543  16.856  0.0550  1.0806 -0.1123
18022TIP3    H275482   3.494   6.423  16.824 -1.4398  0.2574 -1.1101
18023TIP3   OH275483   5.093   5.038   5.583  0.2361  0.2751 -0.3524
18023TIP3    H175484   5.180   5.006   5.561  0.0439 -0.7910  0.4008
18023TIP3    H275485   5.107   5.099   5.655  0.0809 -2.1410  1.7805
18024TIP3   OH275486   2.262   6.455  12.896  0.1824  0.3864 -0.2942
18024TIP3    H175487   2.310   6.443  12.814  1.4876  1.1758  0.3410
18024TIP3    H275488   2.232   6.546  12.893 -0.0425  0.3212 -0.0361
18025TIP3   OH275489   5.024   0.333   4.344  0.0314 -0.3835 -0.1257
18025TIP3    H175490   5.088   0.313   4.412 -2.2004  0.3484  2.2879
18025TIP3    H275491   4.983   0.249   4.324  0.0688 -0.4587  0.1142
18026TIP3   OH275492   4.109   2.156  12.695  0.2429  0.0943  1.0623
18026TIP3    H175493   4.097   2.061  12.699 -0.2431  0.1607  1.2412
18026TIP3    H275494   4.203   2.167  12.678  0.1932 -0.4253  0.3952
18027TIP3   OH275495   3.264   5.562  17.167  0.0423 -0.5473  0.1212
18027TIP3    H175496   3.227   5.650  17.168 -0.4097 -0.7343  0.2830
18027TIP3    H275497   3.279   5.543  17.075  1.7785  0.3646  0.1926
18028TIP3   OH275498   5.005   6.739   4.986  0.1348  0.5836  0.0192
18028TIP3    H175499   5.079   6.739   5.046 -0.7537 -0.1501  1.1295
18028TIP3    H275500   5.021   6.663   4.929 -0.0514  0.0897  0.6214
18029TIP3   OH275501   1.988   1.912   2.602 -0.5849  0.9612 -0.4512
18029TIP3    H175502   2.081   1.903   2.579 -0.4884  1.2063 -0.1734
18029TIP3    H275503   1.966   2.001   2.577 -0.9059  0.7057 -1.0631
18030TIP3   OH275504   0.360   2.917   5.156 -0.1793  0.2047 -0.2889
18030TIP3    H175505   0.380   2.987   5.094 -0.7467  0.0435 -0.6635
18030TIP3    H275506   0.397   2.946   5.239  1.2330  0.0911 -0.8734
18031TIP3   OH275507   5.598   4.586  15.446 -0.1076 -0.3443  0.1425
18031TIP3    H175508   5.676   4.638  15.466 -0.5987  0.2466  0.4956
18031TIP3    H275509   5.607   4.509  15.502 -0.0736 -0.0016  0.6089
18032TIP3   OH275510   1.565   2.100  12.487  0.1260 -0.7929 -0.7144
18032TIP3    H175511   1.655   2.069  12.493  0.5179  0.5133  0.5337
18032TIP3    H275512   1.519   2.054  12.557 -0.2595 -1.7124 -1.5677
18033TIP3   OH275513   3.301   3.008  11.860 -0.1262 -0.3820 -0.2954
18033TIP3    H175514   3.259   3.021  11.945  1.3555  1.0006  0.2607
18033TIP3    H275515   3.230   2.981  11.802 -1.3378 -0.3900  1.1523
18034TIP3   OH275516   0.992   2.599  14.440  0.5690 -0.1597 -0.3070
18034TIP3    H175517   0.898   2.587  14.452  0.3558  1.6129 -0.0549
18034TIP3    H275518   1.004   2.694  14.433  2.5303 -0.2438  1.3877
18035TIP3   OH275519   0.681   1.617   2.268 -0.0886  0.5762 -0.3038
18035TIP3    H175520   0.743   1.546   2.250 -0.1019 -0.0094  1.8660
18035TIP3    H275521   0.629   1.624   2.188  1.5405 -0.1984 -1.4509
18036TIP3   OH275522   0.101   5.716   3.275 -0.1624 -0.6602  0.2094
18036TIP3    H175523   0.024   5.688   3.226 -2.2297  1.0680  2.3172
18036TIP3    H275524   0.122   5.641   3.332 -0.5568 -0.9853 -0.0739
18037TIP3   OH275525   1.003   0.087   1.142  0.7497 -0.6228 -0.1839
18037TIP3    H175526   0.923   0.070   1.191 -0.2525  1.6845 -0.9539
18037TIP3    H275527   1.073   0.080   1.206 -0.3872  0.6850  1.2364
18038TIP3   OH275528   2.754   6.590  14.060 -0.3655 -0.3372  0.2973
18038TIP3    H175529   2.661   6.610  14.058 -0.0830  1.1016  1.1665
18038TIP3    H275530   2.785   6.612  13.972 -0.4086  1.4002  0.7005
18039TIP3   OH275531   4.104   2.666   1.871 -0.0574 -0.1355  0.2900
18039TIP3    H175532   4.013   2.675   1.897 -0.1795  2.1396 -0.7896
18039TIP3    H275533   4.121   2.572   1.874 -2.0233 -0.4665  1.8285
18040TIP3   OH275534   3.610   4.515  16.778 -0.2540 -0.0426 -0.3292
18040TIP3    H175535   3.694   4.477  16.804  0.2958  2.4223  1.6037
18040TIP3    H275536   3.615   4.523  16.683  1.9980  0.7671 -0.1577
18041TIP3   OH275537   5.991   1.120  11.972 -0.2000 -0.0252  0.0733
18041TIP3    H175538   5.935   1.193  11.998 -0.2640  0.5930 -1.7403
18041TIP3    H275539   6.073   1.161  11.945 -0.6473 -0.5046 -2.0847
18042TIP3   OH275540   1.710   1.400   0.316  0.2778  0.4090  0.0166
18042TIP3    H175541   1.778   1.348   0.358  0.2559 -1.3036 -1.9801
18042TIP3    H275542   1.631   1.381   0.366  0.9182  1.0864  1.2971
18043TIP3   OH275543   2.129   0.363  16.466  0.4236 -0.0823 -0.8725
18043TIP3    H175544   2.048   0.409  16.488  0.2662 -0.0755 -1.4685
18043TIP3    H275545   2.196   0.403  16.523 -0.4224 -1.6701  1.3057
18044TIP3   OH275546   3.898   3.277   4.070 -0.2985  0.0918  0.2103
18044TIP3    H175547   3.965   3.210   4.058 -1.5359 -1.1150 -0.1210
18044TIP3    H275548   3.866   3.295   3.981  0.3564  1.4944  0.2394
18045TIP3   OH275549   1.832   1.646  16.546 -0.3986 -0.3752 -0.3694
18045TIP3    H175550   1.864   1.705  16.478 -1.8220 -0.9695 -1.5642
18045TIP3    H275551   1.902   1.581  16.556  0.4448  0.5347 -0.2243
18046TIP3   OH275552   1.509   2.284  16.947 -0.6817  0.3427 -0.1004
18046TIP3    H175553   1.415   2.295  16.933 -0.7061 -1.0250 -1.0636
18046TIP3    H275554   1.550   2.312  16.865 -0.4243 -1.4828 -0.6208
18047TIP3   OH275555   4.111   5.488   1.337 -0.0447  0.9128  0.3844
18047TIP3    H175556   4.199   5.492   1.375  0.9647  4.0630 -2.0446
18047TIP3    H275557   4.054   5.468   1.411  2.5447  0.2228  2.2719
18048TIP3   OH275558   5.380   1.043  14.469  0.1834  0.6934  0.1289
18048TIP3    H175559   5.351   1.024  14.380  3.5507  0.5217 -1.0233
18048TIP3    H275560   5.441   1.116  14.459  1.0799  0.2656  2.2166
18049TIP3   OH275561   3.867   3.693  14.825 -0.3859  0.6424 -0.3934
18049TIP3    H175562   3.779   3.664  14.802 -0.1445  0.0417 -0.5976
18049TIP3    H275563   3.871   3.785  14.799 -1.0707  0.7742 -0.0381
18050TIP3   OH275564   5.492   0.554   2.509  0.3451 -0.1492 -0.0218
18050TIP3    H175565   5.565   0.545   2.447  2.6605  2.6372  2.1272
18050TIP3    H275566   5.454   0.467   2.515  3.2716 -1.6050 -1.5522
18051TIP3   OH275567   1.482   1.170   1.818 -0.3312 -0.4752 -0.5371
18051TIP3    H175568   1.463   1.077   1.835 -0.7553 -0.5595 -1.4337
18051TIP3    H275569   1.473   1.179   1.723  3.0125 -0.2541 -0.8709
18052TIP3   OH275570   5.933   1.916  15.393 -0.2837  0.0582  0.2798
18052TIP3    H175571   5.978   1.879  15.317 -2.0173 -2.0110  0.2300
18052TIP3    H275572   5.886   1.992  15.357 -0.7672 -0.6663 -0.6418
18053TIP3   OH275573   6.064   2.011  15.634 -0.7622 -0.3605 -0.2966
18053TIP3    H175574   6.142   1.960  15.654  0.4370  1.5864  0.1397
18053TIP3    H275575   6.020   1.962  15.565  0.8441 -1.4944 -0.5392
18054TIP3   OH275576   4.914   2.705  15.516 -0.2124  0.1158 -0.5731
18054TIP3    H175577   4.996   2.660  15.495  0.6850  1.5298 -0.1731
18054TIP3    H275578   4.936   2.798  15.510 -1.8558  0.5023 -0.6909
18055TIP3   OH275579   5.800   0.176   4.447  0.3891 -0.8907  0.0726
18055TIP3    H175580   5.879   0.147   4.492  1.2058 -0.0004 -0.7452
18055TIP3    H275581   5.748   0.218   4.514  0.7387 -1.2399  0.5654
18056TIP3   OH275582   0.275   2.431   0.522  0.2301 -0.5155  0.4002
18056TIP3    H175583   0.347   2.492   0.512 -0.1738  0.2019  1.6914
18056TIP3    H275584   0.314   2.345   0.509  1.2855 -0.1230  0.8969
18057TIP3   OH275585   5.051   5.157   3.323  0.2469  0.0191 -0.1568
18057TIP3    H175586   5.143   5.162   3.297 -0.2641 -0.5059 -2.0860
18057TIP3    H275587   5.004   5.208   3.257 -1.1944 -2.4014 -1.0468
18058TIP3   OH275588   4.367   0.437  16.555  0.1641  0.1832 -0.2758
18058TIP3    H175589   4.364   0.423  16.649 -1.4329  0.1903 -0.3198
18058TIP3    H275590   4.414   0.520  16.545  0.3756  0.1596  0.5013
18059TIP3   OH275591   6.015   6.352  10.769  0.6090  0.1452  0.8152
18059TIP3    H175592   6.049   6.366  10.680  0.5192  1.4182  0.9761
18059TIP3    H275593   5.988   6.260  10.769 -0.6209  0.4665 -0.9056
18060TIP3   OH275594   1.387   2.908   4.942  0.3442 -0.3937 -0.2392
18060TIP3    H175595   1.336   2.865   4.874  0.2921 -2.3731  1.0014
18060TIP3    H275596   1.435   2.836   4.984  1.3378  0.9591  0.9791
18061TIP3   OH275597   5.303   3.502   2.006  0.1308 -0.1820  0.4615
18061TIP3    H175598   5.313   3.591   2.039 -0.4122  0.7425 -1.7728
18061TIP3    H275599   5.390   3.463   2.015  0.4415  0.6751  1.1742
18062TIP3   OH275600   2.377   0.490   6.735  0.0194  0.2688  0.4235
18062TIP3    H175601   2.375   0.397   6.711  0.5723  0.9253 -2.2563
18062TIP3    H275602   2.286   0.519   6.728 -0.2054 -0.1279  1.5770
18063TIP3   OH275603   1.399   6.560   1.154 -0.3684 -0.0565  0.0974
18063TIP3    H175604   1.444   6.596   1.078  1.2688  1.3402  1.6696
18063TIP3    H275605   1.331   6.624   1.175 -0.1217  0.0952  0.4418
18064TIP3   OH275606   2.562   6.024  14.477 -0.0024 -0.3048 -0.2547
18064TIP3    H175607   2.480   5.991  14.514  0.1546 -1.3152 -0.8032
18064TIP3    H275608   2.609   5.946  14.450  0.9204  0.3068 -0.4213
18065TIP3   OH275609   0.065   0.703   5.317  0.1706  0.4175  0.1047
18065TIP3    H175610  -0.006   0.640   5.330 -0.2927  1.1888  1.3222
18065TIP3    H275611   0.021   0.788   5.313  0.9276  0.7917 -0.2552
18066TIP3   OH275612   0.563   1.797  16.117  0.0287  0.0787 -0.4051
18066TIP3    H175613   0.479   1.752  16.104 -0.1330  0.2974 -0.1192
18066TIP3    H275614   0.578   1.793  16.211  1.2437 -1.5743 -0.6539
18067TIP3   OH275615   2.151   2.980   4.924 -0.0094  0.4332 -0.3415
18067TIP3    H175616   2.115   2.907   4.873 -0.5699 -0.6071  1.4953
18067TIP3    H275617   2.242   2.955   4.940  0.2668  0.9277 -1.1269
18068TIP3   OH275618   3.195   3.236  14.148  0.6216  0.7891 -0.0547
18068TIP3    H175619   3.263   3.274  14.203  0.0999  0.9774  0.4712
18068TIP3    H275620   3.137   3.190  14.209  1.2604 -0.8806 -0.7002
18069TIP3   OH275621   2.638   6.163   6.499 -0.3165 -0.0057 -0.1984
18069TIP3    H175622   2.689   6.220   6.442 -0.1178  0.1310  0.1155
18069TIP3    H275623   2.630   6.081   6.451 -1.0743  0.4617 -0.8956
18070TIP3   OH275624   0.870   4.869   2.612 -0.0482 -0.4159  0.5860
18070TIP3    H175625   0.930   4.830   2.549 -0.6711  0.0225 -0.2872
18070TIP3    H275626   0.804   4.802   2.627  0.1866 -0.5789  0.8940
18071TIP3   OH275627   2.447   6.353  13.093 -0.1761 -0.4854  0.5673
18071TIP3    H175628   2.391   6.411  13.041  1.4319  1.2208  0.6882
18071TIP3    H275629   2.447   6.391  13.180 -0.7341 -1.8394  1.1654
18072TIP3   OH275630   2.416   2.986  16.572 -0.5338 -0.1167  0.0114
18072TIP3    H175631   2.501   2.963  16.536 -0.4287  0.7635 -0.3276
18072TIP3    H275632   2.435   3.030  16.655 -0.6945 -0.6311  0.3204
18073TIP3   OH275633   2.836   5.087  14.351 -0.1915  0.3807  0.2834
18073TIP3    H175634   2.868   5.000  14.325 -0.4048  1.0100 -2.2336
18073TIP3    H275635   2.894   5.114  14.422  0.0300 -1.7145  0.9195
18074TIP3   OH275636   4.632   5.699  16.240  0.2160  0.1565  0.1135
18074TIP3    H175637   4.593   5.764  16.181  1.1207 -0.0341 -0.7048
18074TIP3    H275638   4.618   5.615  16.195  0.1088 -0.0885  0.5973
18075TIP3   OH275639   1.104   4.541   0.167  0.2457 -0.2655  0.0994
18075TIP3    H175640   1.085   4.602   0.096  1.2479  0.0685  0.1125
18075TIP3    H275641   1.055   4.576   0.242 -1.3459 -0.9905 -0.5807
18076TIP3   OH275642   1.952   0.990   2.878 -0.0544 -0.0665  0.8414
18076TIP3    H175643   1.941   1.020   2.968  1.3370 -0.9737  1.3285
18076TIP3    H275644   2.047   0.980   2.867 -0.2807 -1.0517 -0.3607
18077TIP3   OH275645   0.225   4.949  16.537  0.1295  0.2306 -0.0029
18077TIP3    H175646   0.245   4.907  16.621 -0.6918  0.5281  0.3447
18077TIP3    H275647   0.173   4.884  16.489  0.4122  0.1473 -0.2013
18078TIP3   OH275648   0.083   6.011   3.247 -0.1398 -0.0311  0.1407
18078TIP3    H175649   0.134   5.931   3.262 -2.3832 -1.4014  0.7203
18078TIP3    H275650   0.066   6.045   3.335 -0.0205  0.5447 -0.0614
18079TIP3   OH275651   1.872   6.655  16.082 -0.3182  0.2336  0.0433
18079TIP3    H175652   1.878   6.743  16.120  0.0097  0.0133  0.5118
18079TIP3    H275653   1.826   6.668  15.999  0.0246  0.8953 -0.0512
18080TIP3   OH275654   4.115   2.257  13.441  0.0160 -0.2746 -0.4058
18080TIP3    H175655   4.189   2.197  13.431  0.6552  0.0547  2.0653
18080TIP3    H275656   4.129   2.324  13.374 -0.1103 -2.2362 -2.4770
18081TIP3   OH275657   0.065   1.561  13.970 -0.5842 -0.0322  0.0169
18081TIP3    H175658   0.111   1.499  14.028 -2.1789 -0.3120  1.0094
18081TIP3    H275659   0.003   1.507  13.921 -1.3540  0.6502  0.2315
18082TIP3   OH275660   2.253   2.087  13.891 -0.1671 -0.6591 -0.6865
18082TIP3    H175661   2.157   2.095  13.894 -0.0898 -0.0300  0.8684
18082TIP3    H275662   2.284   2.177  13.900  0.5928 -1.1043  1.3829
18083TIP3   OH275663   5.967   5.505   2.412  0.4926 -0.4834  0.0831
18083TIP3    H175664   6.033   5.484   2.478  0.5213  2.6793  1.1476
18083TIP3    H275665   6.010   5.568   2.354 -0.8737 -0.0631 -0.4925
18084TIP3   OH275666   0.957   3.696   6.308  0.5353  0.3439  0.6296
18084TIP3    H175667   0.883   3.747   6.276  1.6957  2.9062  1.9034
18084TIP3    H275668   0.923   3.649   6.384  0.5416  2.5900  2.0548
18085TIP3   OH275669   3.245   3.639  15.816  0.1686 -0.6088 -0.0759
18085TIP3    H175670   3.155   3.651  15.849  0.7847 -1.0916  1.8714
18085TIP3    H275671   3.282   3.727  15.818  0.3634 -0.7086  1.0601
18086TIP3   OH275672   0.232   3.175  16.570 -1.0026 -0.2562  1.2378
18086TIP3    H175673   0.264   3.088  16.545 -0.4553 -0.3521  2.2429
18086TIP3    H275674   0.227   3.224  16.488 -0.8392 -1.0817  0.7333
18087TIP3   OH275675   3.530   3.045  13.448  0.1566  0.9348 -0.3698
18087TIP3    H175676   3.601   3.059  13.510  2.1849  0.1299 -2.4577
18087TIP3    H275677   3.451   3.072  13.496  1.8050  1.6080  2.0644
18088TIP3   OH275678   0.347   1.924  14.032  0.3552 -0.2143 -0.2993
18088TIP3    H175679   0.371   1.863  13.962 -0.3724 -0.4092 -0.3834
18088TIP3    H275680   0.266   1.888  14.068 -1.4153  1.9848 -1.9492
18089TIP3   OH275681   4.409   0.724   1.444 -0.1427 -0.3728 -0.2325
18089TIP3    H175682   4.496   0.729   1.403  0.4730  0.3696  1.1092
18089TIP3    H275683   4.407   0.638   1.485  0.3187 -0.0465  0.4877
18090TIP3   OH275684   4.250   1.998   1.753  0.1446  0.2624 -0.1441
18090TIP3    H175685   4.167   2.025   1.713  1.0936  1.3619 -1.4147
18090TIP3    H275686   4.285   2.079   1.792  0.6932 -0.1558  0.2320
18091TIP3   OH275687   4.016   2.780  13.192 -0.5618  0.1609  0.3562
18091TIP3    H175688   3.921   2.769  13.200 -0.7419  0.3193 -1.3389
18091TIP3    H275689   4.039   2.732  13.112  1.0806 -1.4196  1.7233
18092TIP3   OH275690   5.982   5.730  11.584 -0.0070  0.1791 -0.5222
18092TIP3    H175691   5.990   5.638  11.557 -0.0243 -0.2370  0.8118
18092TIP3    H275692   6.061   5.746  11.636 -1.8278 -0.3062  2.5748
18093TIP3   OH275693   5.258   3.363   3.058  0.5192 -0.2371  0.0382
18093TIP3    H175694   5.170   3.363   3.095  0.9015 -2.1200  0.9867
18093TIP3    H275695   5.265   3.279   3.012  1.6270  0.1485 -0.5151
18094TIP3   OH275696   2.079   0.872  11.859 -0.0754  0.4408  0.1145
18094TIP3    H175697   2.049   0.955  11.824 -3.0873 -0.8931 -0.6460
18094TIP3    H275698   2.037   0.865  11.945 -0.3211 -0.5451 -0.0716
18095TIP3   OH275699   5.441   0.676  16.783 -0.2507  0.0282  0.1946
18095TIP3    H175700   5.349   0.652  16.772 -0.7562  2.1866 -0.5257
18095TIP3    H275701   5.469   0.629  16.861 -1.7235 -1.3251 -0.0744
18096TIP3   OH275702   4.292   6.129  16.954 -0.2318 -0.1303  0.2173
18096TIP3    H175703   4.367   6.162  17.004 -0.4824  0.0029  0.5143
18096TIP3    H275704   4.309   6.035  16.944  1.8635  0.5200 -3.0358
18097TIP3   OH275705   4.288   4.688  16.025  0.7482 -0.0694  0.7348
18097TIP3    H175706   4.359   4.626  16.044  0.9828 -0.1571 -0.3590
18097TIP3    H275707   4.232   4.641  15.963 -0.6258 -0.2324  2.0748
18098TIP3   OH275708   1.245   2.410  12.186 -0.2133 -0.0903 -0.4392
18098TIP3    H175709   1.301   2.433  12.260  0.0533  0.9473 -0.9402
18098TIP3    H275710   1.305   2.376  12.120  0.0849  2.5054 -1.5769
18099TIP3   OH275711   2.848   4.006   5.150  0.2086 -0.1384 -0.2203
18099TIP3    H175712   2.782   4.066   5.115 -0.9469 -1.7121 -0.8191
18099TIP3    H275713   2.880   4.048   5.229 -3.1061 -0.3457  1.2961
18100TIP3   OH275714   3.524   5.358   0.219 -0.0575  1.0932  0.4655
18100TIP3    H175715   3.435   5.394   0.215 -0.9695 -1.0492  0.8905
18100TIP3    H275716   3.552   5.374   0.309 -0.7709  0.0732  0.8829
18101TIP3   OH275717   6.232   3.992  16.996  0.1831  0.4368  0.2496
18101TIP3    H175718   6.270   4.077  17.017  0.5157  0.3353  0.0642
18101TIP3    H275719   6.276   3.931  17.056  2.0611 -0.0526 -1.5833
18102TIP3   OH275720   6.522   4.510  12.508  0.3417  0.2999 -0.0961
18102TIP3    H175721   6.616   4.521  12.517  0.4536  0.0284 -0.9125
18102TIP3    H275722   6.500   4.440  12.571  0.6392  0.5375  0.2744
18103TIP3   OH275723   6.520   5.981  15.128  0.0082 -0.6043  0.2851
18103TIP3    H175724   6.482   5.993  15.216 -0.2469  0.5560  0.0324
18103TIP3    H275725   6.548   6.069  15.103 -2.1873 -0.4534 -1.8277
18104TIP3   OH275726   0.195   1.423  16.316 -0.1279  0.2858 -0.4323
18104TIP3    H175727   0.113   1.384  16.344 -0.7869  1.9005 -0.0743
18104TIP3    H275728   0.251   1.420  16.394 -1.0133  2.2604  0.2901
18105TIP3   OH275729   5.782   4.240   0.360 -0.0025  0.3342  0.0737
18105TIP3    H175730   5.716   4.295   0.319 -0.9743 -1.0690 -0.2766
18105TIP3    H275731   5.854   4.239   0.297 -0.5497  0.0842 -0.5580
18106TIP3   OH275732   6.648   5.230  13.628  0.2193 -0.4073  0.6001
18106TIP3    H175733   6.719   5.283  13.665  0.9365 -0.8016 -0.1921
18106TIP3    H275734   6.682   5.201  13.543 -1.9379  1.6103 -0.9794
18107TIP3   OH275735   1.395   0.195   4.937  0.7260 -0.3435 -0.3523
18107TIP3    H175736   1.428   0.204   5.027  2.1672 -0.9863 -0.7957
18107TIP3    H275737   1.365   0.105   4.931 -0.0844 -0.0816 -0.2950
18108TIP3   OH275738   6.170   5.427  11.350  0.2881  0.3488  0.2981
18108TIP3    H175739   6.096   5.387  11.396  0.8914 -1.7704 -0.5635
18108TIP3    H275740   6.151   5.413  11.257  0.9563  1.3011  0.0074
18109TIP3   OH275741   6.268   5.673  15.599  0.3827 -0.0748  0.1334
18109TIP3    H175742   6.355   5.635  15.614  0.5305 -0.8403 -2.3651
18109TIP3    H275743   6.272   5.707  15.509 -1.7374  0.3084  0.1589
18110TIP3   OH275744   3.604   0.502  15.995 -0.0719 -0.0795  0.0110
18110TIP3    H175745   3.586   0.557  16.071 -1.9364  0.6952 -0.9595
18110TIP3    H275746   3.653   0.559  15.936 -2.5660  0.8298 -1.2742
18111TIP3   OH275747   3.965   3.299   2.418 -0.5655  0.3037 -0.0463
18111TIP3    H175748   3.937   3.217   2.376  2.2474  1.2867 -4.0196
18111TIP3    H275749   3.930   3.368   2.362  2.4656  1.6770 -0.3420
18112TIP3   OH275750   3.351   3.400  11.655 -0.6355 -0.0106 -0.0510
18112TIP3    H175751   3.439   3.408  11.690 -0.2994  1.3679 -1.1778
18112TIP3    H275752   3.326   3.489  11.632 -1.9123 -0.5342 -0.7500
18113TIP3   OH275753   5.844   0.241  16.253 -0.3252 -0.4341 -0.2906
18113TIP3    H175754   5.860   0.334  16.240 -1.6348 -0.0294  0.9266
18113TIP3    H275755   5.917   0.211  16.307  0.7033 -0.3702 -1.6233
18114TIP3   OH275756   4.027   0.949  16.985  0.1509  0.3337  0.7327
18114TIP3    H175757   3.959   0.891  16.950  1.1015 -0.7048  0.6071
18114TIP3    H275758   4.069   0.987  16.908  1.2546 -0.8130  0.7551
18115TIP3   OH275759   3.347   6.535   3.741  0.2229  0.0644 -0.5178
18115TIP3    H175760   3.281   6.605   3.745  1.2935  1.2345 -2.6385
18115TIP3    H275761   3.386   6.544   3.655  1.4036 -2.2624 -0.2588
18116TIP3   OH275762   5.960   2.461  13.980  0.0032  0.3737 -0.3996
18116TIP3    H175763   5.955   2.377  13.935  0.6594  1.5514 -2.7449
18116TIP3    H275764   5.875   2.470  14.024 -0.0100 -1.5710  0.0251
18117TIP3   OH275765   1.143   2.616   3.477 -0.6288  0.2433  0.1105
18117TIP3    H175766   1.195   2.559   3.420 -0.7369 -1.1489  1.3483
18117TIP3    H275767   1.168   2.589   3.565 -0.9520  1.9074  0.7222
18118TIP3   OH275768   4.886   4.321   5.134  0.0272  0.1071  0.5375
18118TIP3    H175769   4.830   4.251   5.167 -1.3988  1.4775  1.1258
18118TIP3    H275770   4.947   4.339   5.205  0.4230 -0.5689  0.3670
18119TIP3   OH275771   0.467   4.095   3.338  0.8680  0.0714 -0.2833
18119TIP3    H175772   0.402   4.076   3.270 -1.0739 -1.9439  2.0447
18119TIP3    H275773   0.497   4.010   3.368  2.4172  0.9512  0.7376
18120TIP3   OH275774   1.884   0.668   5.557 -0.1914  0.2520  0.0406
18120TIP3    H175775   1.880   0.573   5.574 -2.2865  0.1746 -0.6907
18120TIP3    H275776   1.901   0.675   5.463 -2.4121  0.5440 -0.3776
18121TIP3   OH275777   1.929   0.480  16.825  0.0617  0.1179  0.2137
18121TIP3    H175778   1.891   0.507  16.742 -0.5347  0.5050  0.6144
18121TIP3    H275779   1.872   0.518  16.891 -0.0354 -1.0278  0.7979
18122TIP3   OH275780   2.059   1.904  12.731  0.5610  0.5623  0.2696
18122TIP3    H175781   2.111   1.976  12.696  0.5585  0.7349  0.6144
18122TIP3    H275782   2.078   1.905  12.825  1.5557 -0.6972  0.0910
18123TIP3   OH275783   3.579   0.088   5.834  0.1364 -0.2811 -0.0670
18123TIP3    H175784   3.500   0.140   5.849  0.2144  0.0771 -0.8639
18123TIP3    H275785   3.591   0.039   5.915 -0.6135  0.0490  0.2507
18124TIP3   OH275786   0.891   6.313  17.006 -0.4938 -0.3151 -0.5075
18124TIP3    H175787   0.841   6.386  17.043 -0.2642  1.1060 -2.8793
18124TIP3    H275788   0.976   6.318  17.050 -1.0421 -0.1921  0.5547
18125TIP3   OH275789   0.528   6.028   5.372 -0.5210 -0.3082 -0.4943
18125TIP3    H175790   0.482   6.078   5.440 -0.8356  0.5026 -1.2914
18125TIP3    H275791   0.471   5.953   5.354 -1.1013  0.2150 -0.8402
18126TIP3   OH275792   1.738   0.175   5.052  1.2804  0.2193 -0.0183
18126TIP3    H175793   1.749   0.160   4.958 -1.4879  0.8809 -0.4809
18126TIP3    H275794   1.743   0.270   5.063  0.2353  0.2516  0.2844
18127TIP3   OH275795   5.975   5.821   2.593 -0.1168  0.2738 -0.3306
18127TIP3    H175796   6.030   5.750   2.561 -0.4290 -0.2482  0.2598
18127TIP3    H275797   6.006   5.836   2.683 -1.0652 -0.1759  0.0860
18128TIP3   OH275798   4.082   1.774  17.176 -0.5809  0.4148 -0.6729
18128TIP3    H175799   4.097   1.862  17.142  0.7477 -0.0623 -1.3372
18128TIP3    H275800   3.987   1.763  17.173 -1.0032  2.8273  1.9516
18129TIP3   OH275801   4.121   3.716   5.809  0.2151 -0.1585 -0.8683
18129TIP3    H175802   4.057   3.669   5.756 -0.1546  2.4688 -2.8265
18129TIP3    H275803   4.069   3.762   5.875  0.4215 -1.0449 -0.0814
18130TIP3   OH275804   2.969   6.540  17.153  0.0702  0.1722 -0.1774
18130TIP3    H175805   3.064   6.537  17.141  0.2402 -1.2956  1.2774
18130TIP3    H275806   2.948   6.633  17.162  1.0448  0.6745 -2.7660
18131TIP3   OH275807   2.671   2.674   3.076  0.0299  0.0484 -0.2987
18131TIP3    H175808   2.637   2.682   3.165 -0.8019  0.8171 -0.6803
18131TIP3    H275809   2.756   2.631   3.087 -0.2487 -0.2385  0.8242
18132TIP3   OH275810   1.164   2.940   5.101 -0.4004  0.4781 -0.1168
18132TIP3    H175811   1.150   2.965   5.192  1.6232  0.2594  0.2882
18132TIP3    H275812   1.259   2.935   5.092 -0.4972  2.4466 -2.7943
18133TIP3   OH275813   3.865   2.255  11.160 -0.1578 -0.1738  0.3099
18133TIP3    H175814   3.844   2.181  11.217 -0.6151 -0.1222  0.2039
18133TIP3    H275815   3.781   2.294  11.138 -0.0492 -0.6600 -1.0251
18134TIP3   OH275816   2.870   1.268   5.514  0.2818 -0.2593 -0.0024
18134TIP3    H175817   2.794   1.243   5.566 -1.9981  2.0403 -2.0704
18134TIP3    H275818   2.928   1.192   5.518 -3.4715 -3.3174 -0.8138
18135TIP3   OH275819   3.139   5.083   2.906  0.5268  0.2628  0.3387
18135TIP3    H175820   3.106   5.047   2.824 -0.2457 -0.4083  0.9405
18135TIP3    H275821   3.229   5.111   2.885 -0.2988  1.8458 -1.2237
18136TIP3   OH275822   5.843   3.180  12.830  0.2621  0.1041  0.0781
18136TIP3    H175823   5.873   3.115  12.893  0.3682  0.5928  0.5386
18136TIP3    H275824   5.747   3.180  12.841  0.2035 -0.4764 -0.4208
18137TIP3   OH275825   6.360   4.735   1.714 -0.1104 -0.0716 -0.5125
18137TIP3    H175826   6.338   4.814   1.664  0.6816  0.0779 -0.6208
18137TIP3    H275827   6.365   4.764   1.805  2.0575  0.3977 -0.7601
18138TIP3   OH275828   5.500   5.064  13.461 -0.0902 -0.4126  0.6621
18138TIP3    H175829   5.427   5.121  13.439  0.8549 -0.1438 -1.9561
18138TIP3    H275830   5.467   4.975  13.445 -1.4970 -0.6952  4.5525
18139TIP3   OH275831   2.489   3.177   0.453 -0.9845  0.3544 -0.2596
18139TIP3    H175832   2.501   3.242   0.384  2.6231  0.3922  0.2770
18139TIP3    H275833   2.435   3.109   0.413 -1.2476  1.6646 -2.2044
18140TIP3   OH275834   2.587   5.090   5.059  0.6089 -0.0888 -0.4493
18140TIP3    H175835   2.532   5.116   5.133 -0.1346 -0.7641 -0.7553
18140TIP3    H275836   2.645   5.165   5.044  1.8083 -0.5418  1.7972
18141TIP3   OH275837   3.396   5.641  12.588 -0.0115  0.3972 -0.0816
18141TIP3    H175838   3.308   5.638  12.551 -0.8571 -0.7799  1.9647
18141TIP3    H275839   3.392   5.707  12.657  0.5306 -0.1383  0.4736
18142TIP3   OH275840   5.688   5.087  12.769 -0.1822 -0.5929 -0.1066
18142TIP3    H175841   5.618   5.144  12.736  1.3314  0.6988 -1.1483
18142TIP3    H275842   5.699   5.020  12.701  1.1204  0.5260 -1.0227
18143TIP3   OH275843   6.781   2.018  15.996  1.2244 -0.3172  0.4188
18143TIP3    H175844   6.710   1.954  15.984  0.9929 -0.1965  1.1155
18143TIP3    H275845   6.854   1.966  16.030  2.0992 -0.7780 -2.1019
18144TIP3   OH275846   3.464   3.041  14.787 -0.2078  0.0413  0.6568
18144TIP3    H175847   3.441   3.051  14.694  0.3081 -0.8550  0.4253
18144TIP3    H275848   3.472   3.131  14.819 -0.2681  0.3621 -0.2065
18145TIP3   OH275849   1.246   0.318  15.963  0.1715 -0.2463 -0.2185
18145TIP3    H175850   1.219   0.227  15.958  0.2544 -0.3773  1.3905
18145TIP3    H275851   1.260   0.334  16.057  0.8644  1.2055 -0.5488
18146TIP3   OH275852   3.489   2.476   3.184 -0.2506 -0.1064 -0.2823
18146TIP3    H175853   3.548   2.438   3.118  0.5662  1.5404 -0.5134
18146TIP3    H275854   3.542   2.543   3.227 -1.6488  0.6891  0.2051
18147TIP3   OH275855   6.030   3.770   3.564  0.2237  0.6337 -0.6994
18147TIP3    H175856   6.107   3.827   3.566  0.2304  0.5879  0.7195
18147TIP3    H275857   6.033   3.728   3.478  1.8590  0.5147 -0.5929
18148TIP3   OH275858   1.991   5.254  16.157  0.3788 -0.0053 -0.9006
18148TIP3    H175859   2.087   5.251  16.159  0.4017  0.5835 -0.8824
18148TIP3    H275860   1.971   5.313  16.083  0.0717  1.4350  0.3072
18149TIP3   OH275861   0.853   6.102  16.563 -0.2427  0.6468  0.2786
18149TIP3    H175862   0.944   6.101  16.593 -0.4305  1.3159  0.8783
18149TIP3    H275863   0.819   6.016  16.588 -0.0170  0.7134  0.8177
18150TIP3   OH275864   2.312   2.343  13.983 -0.1344 -0.2263  0.6730
18150TIP3    H175865   2.367   2.344  14.062  2.2267  0.8960 -0.9246
18150TIP3    H275866   2.286   2.435  13.971 -2.3133 -0.7228  1.3307
18151TIP3   OH275867   3.208   5.939  16.682 -0.0030 -0.9766  0.4145
18151TIP3    H175868   3.216   5.871  16.615 -0.9269  0.2060 -0.9301
18151TIP3    H275869   3.298   5.955  16.711  0.4699 -1.1643 -0.9169
18152TIP3   OH275870   2.981   5.147   1.337 -0.0905  0.2484 -0.6387
18152TIP3    H175871   3.061   5.108   1.371 -0.3705 -0.9965 -1.3542
18152TIP3    H275872   2.919   5.143   1.410  0.7960  2.1582  0.2360
18153TIP3   OH275873   1.911   1.688  12.851  0.5420  0.5108  0.4316
18153TIP3    H175874   1.959   1.730  12.779 -1.4562 -0.0737 -1.2876
18153TIP3    H275875   1.863   1.616  12.810 -0.6081  0.1341  2.3569
18154TIP3   OH275876   5.353   5.020   5.199  0.1708 -0.3031 -0.1692
18154TIP3    H175877   5.394   5.019   5.113  1.0491  1.4092  0.2076
18154TIP3    H275878   5.402   5.086   5.248 -0.3928 -1.1767  1.6057
18155TIP3   OH275879   4.117   6.240  12.880  0.4857  0.0750  0.7492
18155TIP3    H175880   4.065   6.273  12.953  0.6162 -0.6470  1.1717
18155TIP3    H275881   4.144   6.152  12.907  1.9269  0.4315  0.5430
18156TIP3   OH275882   0.227   5.508   2.474  0.0519  0.3448  0.0761
18156TIP3    H175883   0.317   5.510   2.507  0.0791  0.3197  0.0036
18156TIP3    H275884   0.206   5.415   2.470 -0.5054  0.4029  1.5304
18157TIP3   OH275885   3.278   3.501   0.801  0.1384 -0.2857  0.3648
18157TIP3    H175886   3.228   3.575   0.834 -1.0244 -0.6055 -0.6248
18157TIP3    H275887   3.369   3.532   0.797 -0.2336  0.8333  0.6496
18158TIP3   OH275888   0.339   0.494   3.936 -1.0628  1.1579  0.1455
18158TIP3    H175889   0.376   0.422   3.987 -2.9697 -0.0292 -0.1245
18158TIP3    H275890   0.345   0.570   3.994  0.6531  0.7328  0.5531
18159TIP3   OH275891   1.352   2.296  14.362 -0.6617  0.3424  0.0754
18159TIP3    H175892   1.278   2.346  14.396 -0.1110  1.3245 -0.1400
18159TIP3    H275893   1.370   2.335  14.276 -1.3863 -1.4424 -0.9139
18160TIP3   OH275894   1.159   2.459   6.469 -0.6057 -0.3641  0.1045
18160TIP3    H175895   1.240   2.508   6.454 -1.0418  0.2119 -0.4064
18160TIP3    H275896   1.090   2.525   6.467 -1.0066 -0.7364  1.3988
18161TIP3   OH275897   2.743   4.659   0.886 -0.0493  0.5009 -0.7362
18161TIP3    H175898   2.716   4.569   0.901 -1.7184  0.9981 -0.6353
18161TIP3    H275899   2.771   4.662   0.794  0.0154 -0.1103 -0.7337
18162TIP3   OH275900   0.979   5.381  16.248 -0.1776  0.1172 -0.0725
18162TIP3    H175901   0.966   5.365  16.342  3.4553  1.6659  0.7802
18162TIP3    H275902   0.919   5.454  16.228 -0.2873  0.4220  1.2782
18163TIP3   OH275903   0.047   1.841  14.484 -0.5798 -0.4824  0.0654
18163TIP3    H175904   0.039   1.925  14.528  1.7485  0.0834 -0.5296
18163TIP3    H275905   0.120   1.797  14.528 -0.5430 -1.3935 -0.8685
18164TIP3   OH275906   1.033   2.567  13.741  0.4559  0.3276 -0.0560
18164TIP3    H175907   0.995   2.590  13.825 -0.6823 -0.6823 -0.2901
18164TIP3    H275908   1.060   2.476  13.750 -1.2684 -0.3360 -1.3228
18165TIP3   OH275909   4.420   0.694  15.229  0.2320 -0.4611  0.2117
18165TIP3    H175910   4.481   0.723  15.297  0.0605 -0.2752  0.2874
18165TIP3    H275911   4.342   0.666  15.278 -0.4761  1.1108 -0.0067
18166TIP3   OH275912   1.569   3.010  11.071 -0.1393 -0.0201 -0.1106
18166TIP3    H175913   1.572   3.094  11.025 -2.3962 -0.4503 -1.0792
18166TIP3    H275914   1.588   2.946  11.003 -0.8661 -0.4740  0.1142
18167TIP3   OH275915   1.216   0.958  15.502  0.0928 -0.0431 -0.9312
18167TIP3    H175916   1.198   0.865  15.498  0.9474 -0.2133 -1.0626
18167TIP3    H275917   1.131   0.999  15.518 -0.0915 -0.9292  0.4405
18168TIP3   OH275918   3.166   6.348  11.245 -0.3327 -0.0562 -1.1197
18168TIP3    H175919   3.192   6.304  11.164  1.6830  0.0304 -0.5453
18168TIP3    H275920   3.162   6.278  11.310  3.8534  0.6048  0.0310
18169TIP3   OH275921   5.149   5.374   6.000 -0.0186 -0.2509 -0.3122
18169TIP3    H175922   5.108   5.435   5.938  2.0814  1.0107 -0.5229
18169TIP3    H275923   5.116   5.401   6.085 -0.8559 -0.2653 -0.6325
18170TIP3   OH275924   3.669   5.924  12.183 -0.7158  0.1723 -0.0569
18170TIP3    H175925   3.655   5.955  12.273 -1.2584  0.7039 -0.3239
18170TIP3    H275926   3.676   6.004  12.131  1.0033 -0.1044 -0.2830
18171TIP3   OH275927   5.552   6.591  11.488 -0.3331 -0.1272  0.4919
18171TIP3    H175928   5.463   6.589  11.524 -0.6622  0.7012 -0.2575
18171TIP3    H275929   5.562   6.681  11.456  1.1280  0.0610  1.4619
18172TIP3   OH275930   1.289   0.672   2.170 -0.1813 -0.1689  0.1822
18172TIP3    H175931   1.364   0.620   2.143  0.0188 -0.1999  0.8001
18172TIP3    H275932   1.228   0.667   2.096  0.3122 -0.3563 -0.2075
18173TIP3   OH275933   5.627   1.383   4.397  0.3007 -0.2595 -0.5924
18173TIP3    H175934   5.664   1.310   4.447 -3.6034 -2.7112 -1.0078
18173TIP3    H275935   5.628   1.457   4.458  3.2790 -0.9188  0.2307
18174TIP3   OH275936   6.271   1.443  16.310 -0.2885 -0.8691 -0.2503
18174TIP3    H175937   6.274   1.351  16.284 -0.7330 -0.5121 -1.5997
18174TIP3    H275938   6.195   1.449  16.368  0.6227 -1.6373  1.0654
18175TIP3   OH275939   4.502   1.046  14.708 -0.1071 -0.1963 -0.1557
18175TIP3    H175940   4.458   1.083  14.785  1.7023 -1.9826  1.7690
18175TIP3    H275941   4.478   1.106  14.636 -2.2597  1.1909  1.6528
18176TIP3   OH275942   2.854   5.323  13.778 -0.4328  0.5494  0.2257
18176TIP3    H175943   2.807   5.384  13.835  2.9597  0.7723  2.9237
18176TIP3    H275944   2.945   5.353  13.778  0.5621 -2.1416 -1.6606
18177TIP3   OH275945   3.947   1.246   3.199  0.5624 -0.2884 -0.0362
18177TIP3    H175946   3.914   1.205   3.119 -0.0076 -0.6247  0.3696
18177TIP3    H275947   3.960   1.174   3.260  2.5457 -0.2249 -0.3460
18178TIP3   OH275948   2.984   0.366   0.487 -0.0763  0.0086 -0.4607
18178TIP3    H175949   2.893   0.336   0.480 -0.3537  0.5022  0.7388
18178TIP3    H275950   3.016   0.327   0.569  0.2220  1.2385  0.0317
18179TIP3   OH275951   1.882   3.904  16.817  0.4984  0.3602  0.1145
18179TIP3    H175952   1.914   3.816  16.838 -1.7107 -0.6480 -0.5825
18179TIP3    H275953   1.836   3.932  16.896  1.8885  1.2432  0.6284
18180TIP3   OH275954   5.052   2.240  14.436 -0.2608  0.5971 -0.4857
18180TIP3    H175955   5.129   2.217  14.383 -0.8997 -0.1703 -1.0852
18180TIP3    H275956   5.080   2.317  14.486  1.3641 -0.5051  0.3369
18181TIP3   OH275957   1.149   6.509   6.305  0.7782 -0.3918 -0.0713
18181TIP3    H175958   1.233   6.473   6.275 -0.3480 -1.9751 -1.4295
18181TIP3    H275959   1.128   6.459   6.383  0.5955 -0.7088 -0.3237
18182TIP3   OH275960   3.328   0.071  13.833  0.4818 -0.1208  0.0382
18182TIP3    H175961   3.310   0.162  13.857  4.1555  0.6120  0.3073
18182TIP3    H275962   3.350   0.028  13.915  1.6850 -0.4830 -0.4541
18183TIP3   OH275963   5.939   2.129   4.155  0.6369  0.1254 -0.4223
18183TIP3    H175964   5.872   2.089   4.100  0.2736  1.2104 -0.7874
18183TIP3    H275965   5.939   2.076   4.235  1.1561 -1.4390 -1.4396
18184TIP3   OH275966   4.388   5.278  13.213 -0.0438  0.4133 -0.1423
18184TIP3    H175967   4.368   5.217  13.142 -0.0844  1.4538 -1.0428
18184TIP3    H275968   4.352   5.236  13.291 -0.1165 -0.6889 -0.7559
18185TIP3   OH275969   1.827   4.646   4.823 -0.4491 -0.1122 -0.4831
18185TIP3    H175970   1.828   4.688   4.736 -1.4443 -0.0692 -0.4804
18185TIP3    H275971   1.760   4.694   4.871  0.1656 -0.0812  0.3487
18186TIP3   OH275972   5.590   3.436   1.325  0.2263  0.0855  0.4044
18186TIP3    H175973   5.509   3.433   1.377 -0.1391 -0.2951 -0.1862
18186TIP3    H275974   5.659   3.449   1.390 -0.2420 -0.2404  0.9759
18187TIP3   OH275975   6.104   1.221  11.300 -0.1735 -0.3048  0.1609
18187TIP3    H175976   6.155   1.197  11.223  1.0201  1.6937  0.2967
18187TIP3    H275977   6.170   1.246  11.365 -1.2970  1.7796  0.5268
18188TIP3   OH275978   5.268   4.729   0.286 -0.2143  0.4048  0.3199
18188TIP3    H175979   5.230   4.815   0.271  0.5456  0.7727  0.4939
18188TIP3    H275980   5.299   4.701   0.199  1.7545  1.3726  0.6930
18189TIP3   OH275981   2.650   4.870   4.316 -0.5789 -0.2668 -0.3144
18189TIP3    H175982   2.627   4.924   4.241 -0.4476  3.8113  2.3884
18189TIP3    H275983   2.741   4.893   4.336 -0.7480 -0.9130  1.3096
18190TIP3   OH275984   4.642   0.800  12.023  0.2391  0.4077 -0.0030
18190TIP3    H175985   4.685   0.810  11.938  0.3141 -0.4504 -0.0683
18190TIP3    H275986   4.656   0.709  12.046  0.3241  0.6674  0.9920
18191TIP3   OH275987   1.960   3.345   0.270 -0.3957  0.4466  0.2738
18191TIP3    H175988   2.002   3.379   0.349  1.6843  1.4070 -1.1784
18191TIP3    H275989   1.940   3.423   0.218 -0.1650 -0.2541 -0.8973
18192TIP3   OH275990   0.649   6.502   6.125 -0.1560  0.0794  0.1629
18192TIP3    H175991   0.630   6.523   6.216  0.3555  0.7407  0.1179
18192TIP3    H275992   0.570   6.529   6.077  1.1258  3.5229 -0.1234
18193TIP3   OH275993   4.466   4.024  13.884 -0.4546  0.1757  0.4564
18193TIP3    H175994   4.471   4.064  13.971 -0.5648 -0.2075  0.6426
18193TIP3    H275995   4.546   4.053  13.839 -0.1948  0.0488  0.8307
18194TIP3   OH275996   3.576   1.242   0.725  0.0251 -0.2116  0.7892
18194TIP3    H175997   3.508   1.243   0.792 -0.3520  0.3668  0.4106
18194TIP3    H275998   3.527   1.243   0.642  0.4788 -1.0921  0.5075
18195TIP3   OH275999   4.323   6.340   2.602  0.0904  0.1040 -0.3782
18195TIP3    H176000   4.384   6.396   2.555  0.9033  2.0589  2.8545
18195TIP3    H276001   4.238   6.358   2.562  0.8708  0.9802 -1.6855
18196TIP3   OH276002   4.796   0.231  17.041 -0.3715  0.2561  0.1518
18196TIP3    H176003   4.831   0.143  17.029 -1.3756 -0.2304  0.7631
18196TIP3    H276004   4.806   0.248  17.135 -1.3994  0.2660  0.2661
18197TIP3   OH276005   3.534   5.572  16.460 -0.1451 -0.1029  0.3266
18197TIP3    H176006   3.462   5.561  16.398 -0.3103  1.3644  0.2379
18197TIP3    H276007   3.609   5.595  16.405  0.9214 -3.6214  0.2113
18198TIP3   OH276008   2.584   0.598   4.522 -0.3784 -0.6188 -0.1171
18198TIP3    H176009   2.654   0.651   4.484  0.1750 -1.8681 -0.8394
18198TIP3    H276010   2.507   0.656   4.521  0.6871  0.8395  0.9040
18199TIP3   OH276011   6.288   1.962  16.832 -0.0765  0.1941  0.0008
18199TIP3    H176012   6.378   1.931  16.841 -0.1842 -0.6446 -1.7013
18199TIP3    H276013   6.276   2.021  16.907  2.5507  1.9391 -0.8800
18200TIP3   OH276014   6.546   4.767  12.144 -0.1044 -0.0855 -0.1956
18200TIP3    H176015   6.497   4.737  12.068 -0.0291  0.4524 -0.4593
18200TIP3    H276016   6.513   4.714  12.216 -1.4572  0.6192 -0.2733
18201TIP3   OH276017   2.436   2.364  16.625 -1.1350 -0.4321  0.0114
18201TIP3    H176018   2.482   2.329  16.548 -1.9009 -0.2863 -0.5181
18201TIP3    H276019   2.343   2.356  16.603 -1.3220  1.6003  0.0393
18202TIP3   OH276020   1.403   6.326  15.086 -0.0981  0.0206 -0.2762
18202TIP3    H176021   1.382   6.412  15.050 -1.8295  0.1159  0.9091
18202TIP3    H276022   1.459   6.343  15.161 -2.4619  0.3146  1.4739
18203TIP3   OH276023   2.107   4.341   1.473  0.2206 -0.1172  0.0728
18203TIP3    H176024   2.043   4.292   1.525  0.2901  0.5900  0.8296
18203TIP3    H276025   2.150   4.274   1.420 -0.0778 -0.8041  0.6780
18204TIP3   OH276026   2.160   6.413   6.124  0.1187  0.1831 -0.3681
18204TIP3    H176027   2.147   6.491   6.177 -0.9197 -0.3324  0.1570
18204TIP3    H276028   2.218   6.441   6.053 -0.2701  1.4249 -0.2040
18205TIP3   OH276029   4.799   2.706  11.861 -0.0408 -0.0458 -0.0760
18205TIP3    H176030   4.882   2.713  11.815  0.6050 -0.9099  0.9365
18205TIP3    H276031   4.773   2.796  11.878  0.2243  0.2502 -1.2195
18206TIP3   OH276032   6.637   4.228   0.855 -0.6632  0.5078 -0.3589
18206TIP3    H176033   6.608   4.319   0.844  0.5236  0.8313 -0.8405
18206TIP3    H276034   6.669   4.202   0.769 -1.6318 -0.6156 -0.4063
18207TIP3   OH276035   2.800   5.170   1.567  0.4108 -0.2517 -0.3097
18207TIP3    H176036   2.710   5.148   1.593 -0.0967  1.3312 -0.6496
18207TIP3    H276037   2.850   5.167   1.649 -0.2126  0.0707  0.0897
18208TIP3   OH276038   3.007   1.488  13.531 -0.3050  0.2120  0.8255
18208TIP3    H176039   3.066   1.547  13.483 -0.1069 -0.7828 -0.1816
18208TIP3    H276040   3.013   1.517  13.622  2.3571 -0.3610  0.8705
18209TIP3   OH276041   4.637   5.079   5.789  0.3941 -0.0853 -0.3436
18209TIP3    H176042   4.627   5.029   5.869  2.9643 -0.5597 -0.2755
18209TIP3    H276043   4.628   5.171   5.816 -1.7853 -0.3672 -0.0512
18210TIP3   OH276044   3.634   3.835  12.739  0.3440  0.1278  0.4287
18210TIP3    H176045   3.597   3.788  12.814  0.5967 -0.1506  0.3795
18210TIP3    H276046   3.712   3.785  12.716 -0.6569 -0.7697 -1.0899
18211TIP3   OH276047   6.293   3.502  12.875  0.3812 -0.6869  0.3659
18211TIP3    H176048   6.353   3.573  12.850  1.0848 -1.0379  1.0249
18211TIP3    H276049   6.220   3.546  12.918 -0.2248 -0.1900 -1.1720
18212TIP3   OH276050   0.939   3.480   5.241 -0.0386  0.2051  0.3109
18212TIP3    H176051   0.997   3.544   5.282  0.1212  1.8352 -2.3419
18212TIP3    H276052   0.995   3.403   5.228  0.8125  0.8346  0.1598
18213TIP3   OH276053   3.691   5.360  16.314  0.2478 -0.2665 -0.5296
18213TIP3    H176054   3.633   5.424  16.273 -0.0788 -0.8059 -0.9137
18213TIP3    H276055   3.636   5.312  16.375  0.7301  0.5150  0.5361
18214TIP3   OH276056   3.201   5.454   6.707  0.4666 -0.2249 -0.8241
18214TIP3    H176057   3.119   5.475   6.662 -0.3796 -0.1012  0.7055
18214TIP3    H276058   3.175   5.392   6.776  1.7676 -0.6877 -0.7484
18215TIP3   OH276059   3.546   2.709  13.535 -0.3385 -0.6507  0.1940
18215TIP3    H176060   3.528   2.743  13.447 -2.5382 -0.5195  0.6760
18215TIP3    H276061   3.548   2.614  13.524  1.7614 -0.5789 -0.3984
18216TIP3   OH276062   3.208   5.000   2.275 -0.3043 -0.3371  0.2005
18216TIP3    H176063   3.122   5.037   2.298 -1.0840 -0.9028 -1.7141
18216TIP3    H276064   3.191   4.906   2.265 -0.2017 -0.0325 -3.3871
18217TIP3   OH276065   1.778   0.455  11.646  0.5289 -0.0729 -0.1983
18217TIP3    H176066   1.686   0.475  11.664  0.1905 -1.3097 -0.5315
18217TIP3    H276067   1.826   0.523  11.693 -0.4340 -1.2556  2.6441
18218TIP3   OH276068   4.326   3.826   1.802 -0.4696 -0.5158 -0.5516
18218TIP3    H176069   4.404   3.797   1.849 -0.6427  0.1081  0.1157
18218TIP3    H276070   4.340   3.919   1.787 -2.0821  0.0804  1.5312
18219TIP3   OH276071   2.754   2.785  17.104 -0.1234  0.3970  0.1226
18219TIP3    H176072   2.722   2.874  17.115 -0.6336 -0.1639  3.4382
18219TIP3    H276073   2.845   2.788  17.134  0.7722  0.3670 -2.4247
18220TIP3   OH276074   5.599   2.898   0.597  0.7022 -0.2754 -0.1049
18220TIP3    H176075   5.597   2.870   0.506  0.5212 -0.4498 -0.0481
18220TIP3    H276076   5.681   2.862   0.631  0.6947 -0.3423 -0.1570
18221TIP3   OH276077   4.896   5.626   3.311 -0.3279 -0.1524  0.1333
18221TIP3    H176078   4.883   5.720   3.311  2.2737  0.2413 -0.0715
18221TIP3    H276079   4.991   5.614   3.309 -0.6005 -2.7557 -2.0258
18222TIP3   OH276080   0.095   4.574   0.269  0.5456 -0.1122 -0.8015
18222TIP3    H176081   0.132   4.646   0.217 -0.0849 -0.4714 -1.7657
18222TIP3    H276082   0.031   4.616   0.326  0.0844  0.0687 -1.4562
18223TIP3   OH276083   0.718   3.513   1.234  0.0647 -0.8859  1.0647
18223TIP3    H176084   0.805   3.496   1.269  0.7949  0.5735 -0.0368
18223TIP3    H276085   0.712   3.455   1.157  0.5161 -0.1144  0.4465
18224TIP3   OH276086   6.193   6.368  10.982 -0.4976  0.2710 -0.5875
18224TIP3    H176087   6.163   6.364  10.891 -1.7137 -0.8156 -0.1594
18224TIP3    H276088   6.117   6.338  11.033  1.1715 -2.0819  0.5694
18225TIP3   OH276089   2.623   3.701  13.495 -0.4253 -0.3819  0.0472
18225TIP3    H176090   2.595   3.643  13.424 -1.3652 -0.3424  0.3849
18225TIP3    H276091   2.658   3.778  13.450 -0.3232 -0.6696 -0.3804
18226TIP3   OH276092   0.210   0.088  14.885  0.0953 -0.4373  0.8371
18226TIP3    H176093   0.192   0.081  14.979 -1.2282 -0.1567  0.6240
18226TIP3    H276094   0.284   0.148  14.878 -0.3651  0.2305  1.6541
18227TIP3   OH276095   4.338   0.559   2.662 -0.0161 -0.7532  0.2247
18227TIP3    H176096   4.323   0.586   2.752  0.0913  0.1575 -0.0256
18227TIP3    H276097   4.433   0.552   2.654 -0.0730 -2.0457  0.5220
18228TIP3   OH276098   0.749   4.833  16.210  0.0835 -0.3858  0.0773
18228TIP3    H176099   0.825   4.843  16.267 -0.0229 -2.2248  0.5631
18228TIP3    H276100   0.702   4.917  16.219  1.2481  0.1935  0.9358
18229TIP3   OH276101   5.391   1.324   6.096 -0.0336  0.3254 -0.2694
18229TIP3    H176102   5.311   1.312   6.147  1.3170  0.7770  2.0242
18229TIP3    H276103   5.373   1.399   6.039 -0.9751  0.9099  0.7844
18230TIP3   OH276104   0.282   1.865   4.048 -0.5874 -0.4826  0.2632
18230TIP3    H176105   0.271   1.819   4.131 -1.3100 -2.1618 -0.7507
18230TIP3    H276106   0.194   1.891   4.022 -0.1152  2.4922  1.3301
18231TIP3   OH276107   0.946   3.290  14.401  0.4917 -0.2365  1.0118
18231TIP3    H176108   1.020   3.331  14.357  1.7197 -1.5334  1.8066
18231TIP3    H276109   0.929   3.210  14.350  0.8371 -0.8805  1.8877
18232TIP3   OH276110   6.029   0.437  14.661 -0.1047  0.3013 -0.1770
18232TIP3    H176111   6.090   0.382  14.612  0.0327  1.1052 -0.9347
18232TIP3    H276112   6.074   0.521  14.669 -0.7680  0.6462 -0.0195
18233TIP3   OH276113   4.475   0.617   4.489  0.1440  0.3940 -0.4494
18233TIP3    H176114   4.429   0.631   4.571  1.1057  0.1862  0.1315
18233TIP3    H276115   4.516   0.531   4.499 -0.2383  0.0977 -1.3839
18234TIP3   OH276116   5.927   5.254  12.778  0.5711  0.0897 -0.3534
18234TIP3    H176117   5.919   5.348  12.766  1.6198 -0.0003 -2.0011
18234TIP3    H276118   5.843   5.218  12.751  0.0757  0.5682  0.5456
18235TIP3   OH276119   4.237   0.976  15.223 -0.1229 -0.1792  0.1656
18235TIP3    H176120   4.261   0.934  15.140 -0.9116  0.4048 -0.3671
18235TIP3    H276121   4.279   1.061  15.220 -1.9099  0.7057 -0.6114
18236TIP3   OH276122   1.738   5.521  11.573 -0.6203 -0.5020 -0.1005
18236TIP3    H176123   1.802   5.556  11.635 -1.1951 -0.3548  0.4166
18236TIP3    H276124   1.696   5.599  11.535 -1.6104 -0.6106  0.7441
18237TIP3   OH276125   1.204   3.815   1.622  0.0007 -0.5418 -0.0233
18237TIP3    H176126   1.133   3.838   1.681 -0.2126 -0.6480 -0.2344
18237TIP3    H276127   1.279   3.797   1.679 -0.7813 -2.7822  0.3508
18238TIP3   OH276128   1.556   0.735  12.655 -0.2014 -0.0739  0.1572
18238TIP3    H176129   1.538   0.745  12.562  0.1497  0.7272  0.1724
18238TIP3    H276130   1.470   0.748  12.698 -0.8968 -3.1693 -0.2234
18239TIP3   OH276131   0.417   2.776   6.165  0.5294 -0.0612  0.1029
18239TIP3    H176132   0.497   2.825   6.185  0.4286 -0.8599  2.6725
18239TIP3    H276133   0.412   2.709   6.234 -1.3103 -1.2899 -1.1691
18240TIP3   OH276134   2.714   5.495  12.634  0.9443 -0.0630  0.2466
18240TIP3    H176135   2.653   5.569  12.631  0.4056 -0.4650  1.2012
18240TIP3    H276136   2.722   5.466  12.543 -0.1442  0.1055  0.0989
18241TIP3   OH276137   6.272   5.889  12.598 -0.5420 -0.1199  0.2851
18241TIP3    H176138   6.322   5.897  12.517  0.2021  0.4783  0.7946
18241TIP3    H276139   6.181   5.903  12.571  0.0031  3.3470  0.0385
18242TIP3   OH276140   1.636   3.599   6.276 -0.0922  0.2454 -0.3107
18242TIP3    H176141   1.655   3.620   6.368 -0.7502 -2.1126  0.4130
18242TIP3    H276142   1.710   3.545   6.248 -1.6322 -2.1071  0.0050
18243TIP3   OH276143   5.306   3.161   6.372 -0.3994  0.5259 -0.1533
18243TIP3    H176144   5.266   3.084   6.412 -0.6016  1.6035  1.7864
18243TIP3    H276145   5.400   3.143   6.375 -0.4619  0.2219  0.0468
18244TIP3   OH276146   6.625   5.081   5.866 -0.3023 -0.1711  0.1442
18244TIP3    H176147   6.674   5.002   5.842 -1.3455 -0.7049 -0.2490
18244TIP3    H276148   6.631   5.084   5.962  0.6660 -0.1207  0.0853
18245TIP3   OH276149   0.372   4.030  15.800 -0.4935  0.5577 -0.5634
18245TIP3    H176150   0.383   4.033  15.895 -1.2363  2.7141 -0.5108
18245TIP3    H276151   0.411   4.111  15.768 -0.8789  0.1931 -2.0213
18246TIP3   OH276152   1.016   6.758  16.734 -0.5250 -0.1848 -0.2300
18246TIP3    H176153   1.082   6.730  16.671 -0.4987 -1.6760  0.4346
18246TIP3    H276154   0.979   6.838  16.697  1.2879  0.3735 -0.8603
18247TIP3   OH276155   6.217   2.216   5.064 -0.1732 -0.0886  0.4538
18247TIP3    H176156   6.237   2.272   5.139 -0.4290 -0.6706  0.9678
18247TIP3    H276157   6.301   2.204   5.020 -0.2047  1.0704  0.0753
18248TIP3   OH276158   5.709   4.654  11.868 -0.4319  0.4034  0.0388
18248TIP3    H176159   5.796   4.683  11.840 -0.4189  1.5373  1.2015
18248TIP3    H276160   5.708   4.670  11.963 -1.0018 -1.9710  0.4784
18249TIP3   OH276161   1.077   3.132   2.597 -0.1056  0.6870 -0.0554
18249TIP3    H176162   1.080   3.201   2.531 -0.5101 -0.0381 -0.8461
18249TIP3    H276163   1.094   3.052   2.548  1.0555  0.2896  0.9650
18250TIP3   OH276164   2.293   2.394  16.185 -0.4991  0.2259 -0.2532
18250TIP3    H176165   2.349   2.471  16.193 -0.1966 -0.0428  0.2500
18250TIP3    H276166   2.219   2.423  16.132  0.4748  0.3781 -1.5572
18251TIP3   OH276167   4.559   6.128   2.091 -0.0856  0.3497  0.0787
18251TIP3    H176168   4.513   6.197   2.044  0.0488 -0.2411 -0.9325
18251TIP3    H276169   4.634   6.106   2.036 -0.8739 -1.5338 -0.3087
18252TIP3   OH276170   2.480   5.863  16.115 -0.3758  0.1870  0.3890
18252TIP3    H176171   2.533   5.885  16.191 -0.6732 -0.3587  0.7631
18252TIP3    H276172   2.406   5.924  16.119  0.2097  0.9374 -0.1256
18253TIP3   OH276173   3.239   0.362  11.312 -0.4477  0.0055 -0.3776
18253TIP3    H176174   3.247   0.311  11.231 -0.3939  0.3510 -0.5888
18253TIP3    H276175   3.283   0.308  11.378  0.9842  0.4989 -0.9200
18254TIP3   OH276176   5.023   3.562   6.211 -0.7396  1.2022 -0.4513
18254TIP3    H176177   5.035   3.485   6.266 -1.4435  1.5769  0.2521
18254TIP3    H276178   5.103   3.613   6.222 -0.5846  0.9334 -0.3348
18255TIP3   OH276179   1.021   2.118   3.679  0.2554 -0.3165 -0.3985
18255TIP3    H176180   1.115   2.112   3.696 -0.0526 -1.6819  0.9687
18255TIP3    H276181   1.001   2.211   3.688  1.4024 -0.0627 -0.3489
18256TIP3   OH276182   6.762   0.746  10.313  0.1381 -0.4334  0.0510
18256TIP3    H176183   6.668   0.745  10.299  0.2968  1.3169 -1.3695
18256TIP3    H276184   6.773   0.734  10.408 -1.4439 -1.8205  0.0675
18257TIP3   OH276185   5.213   4.464  16.468 -0.2230  0.9525  0.2786
18257TIP3    H176186   5.168   4.548  16.478 -0.3039  1.0816 -1.1779
18257TIP3    H276187   5.305   4.484  16.487 -0.6282  0.8300  2.5358
18258TIP3   OH276188   2.420   1.735   5.380 -0.1167 -0.4057  0.0184
18258TIP3    H176189   2.369   1.791   5.438  1.1672  1.1400 -0.2993
18258TIP3    H276190   2.365   1.658   5.364 -2.1188  1.0073  0.0537
18259TIP3   OH276191   6.625   1.341  11.244 -0.1153 -0.2461  0.3472
18259TIP3    H176192   6.549   1.398  11.256  0.5832  1.1796 -1.5891
18259TIP3    H276193   6.631   1.330  11.149  2.6430  0.4718  0.3868
18260TIP3   OH276194   3.920   1.062   0.235  0.1736  0.0522  0.0468
18260TIP3    H176195   3.848   1.111   0.195  0.1386 -1.0919 -1.3509
18260TIP3    H276196   3.882   1.023   0.313 -0.8884 -0.9848 -0.9766
18261TIP3   OH276197   0.113   1.457  11.072  0.3213 -0.3760 -0.0307
18261TIP3    H176198   0.036   1.416  11.032  0.4416 -0.3443 -0.2982
18261TIP3    H276199   0.157   1.500  10.998  0.2788  0.0995  0.2217
18262TIP3   OH276200   6.282   0.038  16.715 -0.0270  0.1411  0.0900
18262TIP3    H176201   6.235   0.007  16.793 -0.3964 -1.8948 -0.9338
18262TIP3    H276202   6.236  -0.002  16.641  2.4400 -0.7549 -1.0097
18263TIP3   OH276203   2.328   4.567  10.778  0.5276 -0.2173 -0.5219
18263TIP3    H176204   2.344   4.519  10.859 -0.6894 -0.5777 -0.4892
18263TIP3    H276205   2.415   4.582  10.741  1.1122  0.2262  1.0092
18264TIP3   OH276206   2.741   0.316   1.197  0.6957 -0.4387  0.8109
18264TIP3    H176207   2.798   0.380   1.239  1.5363 -0.9937  0.5276
18264TIP3    H276208   2.799   0.243   1.174 -0.1898 -1.1576  0.8308
18265TIP3   OH276209   1.591   3.179   4.047  0.0904 -1.0247 -0.5588
18265TIP3    H176210   1.504   3.178   4.086  0.7817  0.8025  1.1346
18265TIP3    H276211   1.576   3.191   3.954 -1.4656 -0.8692 -0.2897
18266TIP3   OH276212   1.315   5.181  12.891  0.2533 -0.2684  0.4871
18266TIP3    H176213   1.227   5.217  12.899 -0.1794 -1.3385  0.6702
18266TIP3    H276214   1.347   5.174  12.982  0.4521 -0.0745  0.4339
18267TIP3   OH276215   0.408   3.877  11.328  0.5957  0.0908  0.1095
18267TIP3    H176216   0.397   3.912  11.239 -0.4655  2.4555  1.1328
18267TIP3    H276217   0.432   3.785  11.315  1.0114  0.5487 -2.6310
18268TIP3   OH276218   0.598   0.184  15.987  0.0167  0.2297 -0.7880
18268TIP3    H176219   0.517   0.234  15.994 -0.1500 -0.2655  0.9385
18268TIP3    H276220   0.667   0.251  15.981 -0.3462  0.6522 -0.2484
18269TIP3   OH276221   5.051   3.982   1.797 -0.5125 -0.3923  0.2125
18269TIP3    H176222   4.979   3.960   1.739 -1.6393  0.3237  1.3167
18269TIP3    H276223   5.126   3.993   1.739 -1.2111 -1.4134 -0.9209
18270TIP3   OH276224   2.623   1.333   3.871 -0.3677  0.2747  0.4221
18270TIP3    H176225   2.536   1.336   3.832  0.6945  0.3554 -2.0410
18270TIP3    H276226   2.657   1.247   3.848  0.5327  0.5769  0.6022
18271TIP3   OH276227   0.328   3.481   2.449  0.0177 -0.4534 -0.2911
18271TIP3    H176228   0.393   3.539   2.410  0.3862 -0.1696  0.7402
18271TIP3    H276229   0.362   3.393   2.435 -0.0907 -0.3796 -1.0366
18272TIP3   OH276230   2.316   4.163   3.608 -0.3996 -0.1770  0.0407
18272TIP3    H176231   2.338   4.070   3.612  2.6697  0.4503 -0.8722
18272TIP3    H276232   2.369   4.203   3.677 -1.3375  0.9471  0.1115
18273TIP3   OH276233   4.170   0.264  13.895 -0.2222  0.1231 -0.4116
18273TIP3    H176234   4.134   0.350  13.875 -0.9571 -0.0117  0.2790
18273TIP3    H276235   4.224   0.242  13.820 -3.6931 -0.8395 -2.7663
18274TIP3   OH276236   1.117   3.880   2.631 -0.4589 -1.0606 -0.0056
18274TIP3    H176237   1.140   3.904   2.541 -1.3114  0.4899  0.1815
18274TIP3    H276238   1.200   3.855   2.671  0.3384  0.7008 -0.4918
18275TIP3   OH276239   2.902   6.025   3.017  0.1717  0.5140  0.3579
18275TIP3    H176240   2.858   5.942   2.998  0.0457  0.7129 -0.2237
18275TIP3    H276241   2.906   6.029   3.112 -0.4637  0.1779  0.3983
18276TIP3   OH276242   6.539   1.233   3.098  0.1399 -0.3334 -0.1642
18276TIP3    H176243   6.487   1.181   3.160  0.0794  0.8754  0.8279
18276TIP3    H276244   6.629   1.227   3.132  0.0336  0.7113  0.3154
18277TIP3   OH276245   0.468   2.862   4.706 -0.4037 -0.3167  0.4722
18277TIP3    H176246   0.440   2.857   4.797 -1.5375  0.5632  0.1877
18277TIP3    H276247   0.429   2.944   4.674  0.0272 -0.5935 -0.7836
18278TIP3   OH276248   2.464   3.259  15.843  0.3409 -0.0976 -0.6997
18278TIP3    H176249   2.456   3.344  15.801  1.0328  0.4938  0.3551
18278TIP3    H276250   2.529   3.212  15.791  0.8407  0.4557 -0.5774
18279TIP3   OH276251   2.022   5.642   1.822 -0.4277 -0.4800 -0.3164
18279TIP3    H176252   2.046   5.601   1.739  0.7636 -2.4404  0.9656
18279TIP3    H276253   1.954   5.585   1.858  0.0542 -0.4081  0.7125
18280TIP3   OH276254   2.591   5.521  15.110 -0.2766 -0.0463  0.3010
18280TIP3    H176255   2.585   5.467  15.189  0.7667 -1.0900 -0.3063
18280TIP3    H276256   2.685   5.525  15.092 -0.4649  0.7354 -0.5053
18281TIP3   OH276257   5.511   5.408  12.309  0.1647  0.5265  0.1118
18281TIP3    H176258   5.420   5.438  12.301 -0.2774 -0.6649  0.5644
18281TIP3    H276259   5.523   5.391  12.402  0.9180  0.8861  0.0842
18282TIP3   OH276260   3.366   5.596  13.900 -0.0626 -0.5595 -0.0276
18282TIP3    H176261   3.290   5.655  13.894  0.6548  0.3852  0.0746
18282TIP3    H276262   3.441   5.655  13.903  0.7744 -1.5261 -1.7172
18283TIP3   OH276263   6.239   4.570  14.873 -0.0016  0.1440  0.0897
18283TIP3    H176264   6.306   4.574  14.805  0.0362 -1.0890  0.0431
18283TIP3    H276265   6.156   4.566  14.826  0.0369 -0.9552  0.0992
18284TIP3   OH276266   4.176   4.515   5.943 -0.0582  0.2644  0.2456
18284TIP3    H176267   4.199   4.477   5.858 -1.8193 -0.0944 -0.0785
18284TIP3    H276268   4.261   4.536   5.983  0.8396 -0.9475 -0.9651
18285TIP3   OH276269   0.086   4.899   5.219 -0.2314  0.2291  0.2155
18285TIP3    H176270   0.080   4.813   5.177  0.5852  0.2867 -0.0365
18285TIP3    H276271   0.177   4.904   5.249 -0.0653  1.3030 -0.4288
18286TIP3   OH276272   3.596   2.012  11.518 -0.0935 -0.0788 -0.0715
18286TIP3    H176273   3.601   1.918  11.539 -1.7733 -0.4083 -1.0763
18286TIP3    H276274   3.569   2.053  11.600  2.0660 -0.2711  0.7810
18287TIP3   OH276275   2.219   0.068   3.490  0.0477 -0.1452  0.3292
18287TIP3    H176276   2.313   0.081   3.488 -0.0086  0.1197 -0.8853
18287TIP3    H276277   2.207  -0.027   3.497  0.4009 -0.1107  1.5420
18288TIP3   OH276278   1.580   1.356   0.607 -0.2158  0.0386 -0.1368
18288TIP3    H176279   1.562   1.318   0.693  1.8503 -0.4869  0.0930
18288TIP3    H276280   1.646   1.423   0.624 -1.4110  1.4498 -1.0138
18289TIP3   OH276281   2.805   4.806  16.282 -0.5338 -0.5835 -0.1008
18289TIP3    H176282   2.725   4.857  16.268 -1.3651 -1.8710 -0.1499
18289TIP3    H276283   2.788   4.757  16.362 -0.0292 -1.3489 -0.4593
18290TIP3   OH276284   6.107   1.776   1.756  0.0282 -0.0616 -0.2833
18290TIP3    H176285   6.021   1.817   1.748 -0.7196 -1.8139 -1.4471
18290TIP3    H276286   6.091   1.683   1.737  2.2789 -0.2981 -1.0901
18291TIP3   OH276287   5.125   5.100  16.650 -0.1341 -0.5046  0.5522
18291TIP3    H176288   5.149   5.036  16.582 -1.4058 -2.1761  1.6262
18291TIP3    H276289   5.118   5.183  16.603  1.3214 -1.1911 -0.9251
18292TIP3   OH276290   0.368   0.184   2.830 -0.5979 -0.1367 -0.2593
18292TIP3    H176291   0.403   0.174   2.741 -0.2041 -1.6035  0.0423
18292TIP3    H276292   0.421   0.253   2.869 -0.1701 -0.1181 -0.8674
18293TIP3   OH276293   1.284   2.472  11.688 -0.0452 -0.2721 -0.1813
18293TIP3    H176294   1.297   2.520  11.607  0.7736  0.7191  0.5277
18293TIP3    H276295   1.313   2.532  11.757 -1.7192 -0.6908  0.9296
18294TIP3   OH276296   0.063   3.056  13.382  0.4840 -0.2676  0.0738
18294TIP3    H176297   0.145   3.101  13.363  0.2384 -0.8675 -2.6481
18294TIP3    H276298   0.055   3.060  13.477  4.1889 -1.1674  0.4992
18295TIP3   OH276299   1.430   6.184   1.183  0.1499 -0.2054  0.0228
18295TIP3    H176300   1.453   6.187   1.275  1.0948 -0.9938 -0.1832
18295TIP3    H276301   1.340   6.219   1.179 -0.5655 -1.8307  1.4585
18296TIP3   OH276302   6.361   3.956  13.647  0.1643  0.4765  0.2599
18296TIP3    H176303   6.421   4.031  13.657  0.4359  0.1819  0.8295
18296TIP3    H276304   6.384   3.919  13.562  1.2921 -0.0743  0.8001
18297TIP3   OH276305   2.812   0.925   5.929  0.2031  0.2699  0.4920
18297TIP3    H176306   2.765   0.962   6.004  1.5953  0.1604  1.4367
18297TIP3    H276307   2.903   0.922   5.957  0.6027 -0.6754 -0.8568
18298TIP3   OH276308   6.476   1.206   2.833 -0.1043 -0.4452 -0.0628
18298TIP3    H176309   6.547   1.143   2.823  1.2085  1.0218 -0.2194
18298TIP3    H276310   6.466   1.216   2.928  0.0898 -0.4598 -0.0396
18299TIP3   OH276311   4.266   0.216  17.176 -0.0676  0.5478 -0.4101
18299TIP3    H176312   4.283   0.291  17.232 -0.6546 -0.4389  1.1160
18299TIP3    H276313   4.347   0.203  17.127  0.4934  1.3351  0.3013
18300TIP3   OH276314   2.538   5.887   2.054 -0.5635  0.4701  0.3937
18300TIP3    H176315   2.464   5.828   2.070 -2.0742  2.1023 -0.4209
18300TIP3    H276316   2.543   5.895   1.959  0.7993  0.2426  0.4307
18301TIP3   OH276317   4.863   0.329   3.969 -0.0589 -0.3689  0.2582
18301TIP3    H176318   4.827   0.375   4.045  0.3449 -0.6905  0.6558
18301TIP3    H276319   4.855   0.390   3.897 -2.4874 -0.8582  0.0602
18302TIP3   OH276320   0.642   0.029   2.950 -0.0732 -0.2684 -0.1680
18302TIP3    H176321   0.587   0.091   2.998  0.3442 -0.6967  0.8853
18302TIP3    H276322   0.584  -0.044   2.929 -0.2068 -0.1730 -0.1299
18303TIP3   OH276323   0.951   4.505   1.722  0.3034 -0.2026 -0.0094
18303TIP3    H176324   1.024   4.475   1.777  0.2067 -1.0348 -0.3386
18303TIP3    H276325   0.980   4.488   1.632  0.2108  0.6088 -0.2008
18304TIP3   OH276326   5.860   4.614   1.233 -0.0171  0.0072 -0.6266
18304TIP3    H176327   5.766   4.614   1.255  0.4357 -0.2981  1.4527
18304TIP3    H276328   5.863   4.644   1.142 -2.1424 -0.0944 -0.7760
18305TIP3   OH276329   5.616   3.477  11.396  0.4470 -0.1789 -0.1138
18305TIP3    H176330   5.656   3.430  11.323 -0.7021  1.5323 -1.9149
18305TIP3    H276331   5.550   3.533  11.354 -1.6199 -0.6144  2.4428
18306TIP3   OH276332   4.446   1.407  13.614  0.0294  0.1936 -0.2227
18306TIP3    H176333   4.528   1.456  13.603  0.1474 -0.0486 -0.4264
18306TIP3    H276334   4.388   1.468  13.659  1.6832 -0.9487  3.7863
18307TIP3   OH276335   0.236   1.271   3.612 -0.5752  0.4179 -0.6432
18307TIP3    H176336   0.200   1.278   3.701  0.1122 -2.8469 -0.0332
18307TIP3    H276337   0.170   1.311   3.556 -1.8709  0.8967  1.1671
18308TIP3   OH276338   4.968   1.518   2.784 -0.2752  0.5789  0.2117
18308TIP3    H176339   4.913   1.467   2.843 -0.3852 -0.1432 -0.5036
18308TIP3    H276340   4.957   1.609   2.813 -3.5729  0.7232 -1.2235
18309TIP3   OH276341   2.169   4.849   3.614 -0.4492 -0.4220 -0.2552
18309TIP3    H176342   2.186   4.876   3.523 -0.0915 -1.7675 -0.6017
18309TIP3    H276343   2.137   4.928   3.657 -2.2891 -0.1812 -1.9896
18310TIP3   OH276344   3.892   1.262  11.329  0.2638 -0.8093  0.2497
18310TIP3    H176345   3.884   1.354  11.301  0.7742  0.0302  2.7537
18310TIP3    H276346   3.986   1.251  11.345  0.2314 -1.8437 -0.2686
18311TIP3   OH276347   4.539   3.415  14.647 -0.0137  0.6305  0.4258
18311TIP3    H176348   4.456   3.374  14.672 -0.3875  1.3823  0.4143
18311TIP3    H276349   4.514   3.495  14.602  0.7094  0.3614 -0.4597
18312TIP3   OH276350   5.332   4.956   4.836 -0.4232  0.0121 -0.5508
18312TIP3    H176351   5.319   4.882   4.776 -1.3395  0.0359 -0.3808
18312TIP3    H276352   5.244   4.987   4.856 -0.1410  0.0087  0.8042
18313TIP3   OH276353   6.466   4.712  11.488  0.0597 -0.1193 -0.3873
18313TIP3    H176354   6.556   4.743  11.482 -0.0211  0.0045 -1.0139
18313TIP3    H276355   6.417   4.787  11.520  0.1219 -0.0681 -0.4139
18314TIP3   OH276356   1.427   4.673  13.197 -0.8350 -0.0568 -0.4319
18314TIP3    H176357   1.343   4.713  13.219 -1.1746 -0.8788 -0.2266
18314TIP3    H276358   1.407   4.581  13.182 -0.0935 -0.1217 -1.1102
18315TIP3   OH276359   1.464   2.224  11.714 -0.7565 -0.3326  0.4556
18315TIP3    H176360   1.494   2.279  11.787  0.4817 -0.0358 -0.2469
18315TIP3    H276361   1.399   2.277  11.669  0.5073  0.6332 -0.2765
18316TIP3   OH276362   6.459   2.180  12.691 -0.3165 -0.0378  0.2934
18316TIP3    H176363   6.411   2.126  12.629  0.0792 -0.6498  0.5122
18316TIP3    H276364   6.499   2.248  12.638 -0.5135 -0.1822 -0.0367
18317TIP3   OH276365   3.452   3.361  11.339  0.1238 -0.1047 -0.6958
18317TIP3    H176366   3.454   3.433  11.277  0.9986 -1.5873 -2.4314
18317TIP3    H276367   3.409   3.397  11.417  1.3855  2.5303 -1.1766
18318TIP3   OH276368   2.705   6.113  11.454  0.3674 -0.1284 -0.5602
18318TIP3    H176369   2.671   6.037  11.500 -0.7852  1.1643  0.7777
18318TIP3    H276370   2.731   6.174  11.523  0.1702  1.1670 -1.5936
18319TIP3   OH276371   6.290   6.730  13.818 -0.5665  0.0258 -0.1529
18319TIP3    H176372   6.367   6.787  13.824 -0.0448 -0.8186  1.6336
18319TIP3    H276373   6.216   6.790  13.808  0.0355  1.0158  1.0793
18320TIP3   OH276374   2.474   5.878   5.530 -0.5312  0.2672 -0.0865
18320TIP3    H176375   2.442   5.815   5.595  0.5492 -1.9232 -1.6246
18320TIP3    H276376   2.560   5.904   5.561 -1.0348  1.1242  0.6208
18321TIP3   OH276377   2.927   2.472  17.149  0.5336 -0.1795 -0.0234
18321TIP3    H176378   2.910   2.412  17.076 -0.8704 -0.9358  0.9130
18321TIP3    H276379   3.014   2.448  17.180  0.6724 -0.6127 -0.7421
18322TIP3   OH276380   2.442   2.002  15.085  0.2898  0.3947  0.3154
18322TIP3    H176381   2.476   2.088  15.109  1.7952 -0.6382  2.0535
18322TIP3    H276382   2.520   1.946  15.079 -0.7868 -1.1969  0.7432
18323TIP3   OH276383   5.251   5.635   5.444  0.1180 -0.2420  0.1220
18323TIP3    H176384   5.205   5.656   5.525  2.2145  0.3577  1.1765
18323TIP3    H276385   5.245   5.715   5.392  0.0297 -0.1395  0.2902
18324TIP3   OH276386   1.557   5.933  13.197  0.2992 -0.5125  0.5260
18324TIP3    H176387   1.463   5.943  13.184  0.4596 -0.7730 -0.8383
18324TIP3    H276388   1.586   5.873  13.129  1.1238 -2.0876  2.2303
18325TIP3   OH276389   1.756   3.940  13.059  0.2093 -0.0354  0.8134
18325TIP3    H176390   1.794   3.956  13.146 -2.4715  1.8185  1.6890
18325TIP3    H276391   1.730   3.848  13.061  0.0098  0.0370  2.0485
18326TIP3   OH276392   4.154   6.294  15.552  0.2129  0.2294 -0.2968
18326TIP3    H176393   4.143   6.301  15.457 -0.0253  0.1100 -0.2765
18326TIP3    H276394   4.067   6.273  15.586  0.0737  1.3399  0.0626
18327TIP3   OH276395   3.303   1.241   5.788  0.1284 -0.2543  0.0156
18327TIP3    H176396   3.326   1.149   5.773  0.6863 -0.0295 -0.5461
18327TIP3    H276397   3.240   1.239   5.860  0.4503 -1.0421  0.2777
18328TIP3   OH276398   5.897   3.960   5.977  0.1396 -0.0367  0.3575
18328TIP3    H176399   5.989   3.939   5.989  0.1407  0.6080  1.5292
18328TIP3    H276400   5.865   3.894   5.915  0.9639 -1.3500  1.3015
18329TIP3   OH276401   4.260   4.205  16.299 -0.2758  0.3435  0.2963
18329TIP3    H176402   4.205   4.270  16.256 -1.1056  0.0359  0.8850
18329TIP3    H276403   4.216   4.122  16.282  0.7465 -0.0665 -0.4031
18330TIP3   OH276404   6.690   0.114  17.155 -0.0481  0.1792  0.2192
18330TIP3    H176405   6.768   0.164  17.130 -0.0153 -0.0404 -0.1360
18330TIP3    H276406   6.623   0.141  17.093 -0.8596  1.8928  1.8169
18331TIP3   OH276407   6.119   3.615   5.199  0.4675  0.0936 -0.0190
18331TIP3    H176408   6.106   3.709   5.192  1.2309  0.0243 -2.6749
18331TIP3    H276409   6.211   3.605   5.222  0.5387 -0.0132 -0.3446
18332TIP3   OH276410   3.417   5.619  15.658  0.5018 -0.3282 -0.1375
18332TIP3    H176411   3.475   5.679  15.704  1.1566 -1.9014  1.1343
18332TIP3    H276412   3.410   5.656  15.570  1.3246  1.3011  0.4577
18333TIP3   OH276413   4.775   6.395   6.000  0.5486 -0.4447 -0.1233
18333TIP3    H176414   4.825   6.477   6.005 -1.7415  0.9128  2.0324
18333TIP3    H276415   4.811   6.340   6.070  2.2570 -1.4105 -1.7345
18334TIP3   OH276416   3.357   1.240   4.802 -0.7538 -0.4011 -0.4548
18334TIP3    H176417   3.425   1.219   4.866  0.0115  0.4181 -0.9734
18334TIP3    H276418   3.363   1.335   4.791 -3.1175 -0.0810  0.7306
18335TIP3   OH276419   1.490   0.703   3.679  0.1479  0.1332 -0.1013
18335TIP3    H176420   1.449   0.628   3.638  0.0722  0.8000 -1.2558
18335TIP3    H276421   1.534   0.667   3.757 -0.9802 -0.8815  0.0798
18336TIP3   OH276422   1.943   5.958  12.275 -0.6018  0.3469 -0.1232
18336TIP3    H176423   1.916   6.030  12.218 -1.8686  0.6991  0.9080
18336TIP3    H276424   1.916   5.985  12.362  1.5445 -0.0839  0.7016
18337TIP3   OH276425   5.323   6.059  16.477  0.5820 -0.3548  0.3865
18337TIP3    H176426   5.270   6.060  16.556  0.5043  0.8599  0.3177
18337TIP3    H276427   5.346   5.966  16.465 -1.3572 -0.8784  0.5157
18338TIP3   OH276428   4.351   3.347   4.815  0.0833 -0.0226 -0.2907
18338TIP3    H176429   4.418   3.294   4.859  0.3579  0.5110 -0.0526
18338TIP3    H276430   4.323   3.410   4.882  1.3002  1.5270 -1.1716
18339TIP3   OH276431   6.263   4.692   3.338 -0.0168 -0.1630  0.3124
18339TIP3    H176432   6.185   4.636   3.329  0.5093 -1.0520  1.1398
18339TIP3    H276433   6.256   4.728   3.426 -0.7691  1.7388 -0.5122
18340TIP3   OH276434   3.296   0.598  14.359 -0.4299 -0.0750 -0.0703
18340TIP3    H176435   3.321   0.568  14.272 -1.5348 -1.7354  0.1796
18340TIP3    H276436   3.255   0.522  14.401 -1.4434  1.1822  1.2887
18341TIP3   OH276437   0.979   0.395   2.291 -0.2883  0.0360  0.0308
18341TIP3    H176438   0.983   0.489   2.273 -1.8199  0.5043  1.9992
18341TIP3    H276439   0.894   0.368   2.254  0.1155 -0.5684 -0.4628
18342TIP3   OH276440   5.540   5.239   2.668  0.0828 -0.3444 -0.2378
18342TIP3    H176441   5.557   5.225   2.575  1.9924 -1.3678  0.2367
18342TIP3    H276442   5.488   5.163   2.694 -2.5575  1.1325 -0.9522
18343TIP3   OH276443   3.337   3.178  17.208 -0.4920 -0.4284  0.1438
18343TIP3    H176444   3.250   3.138  17.207 -0.5647 -0.2705  0.1564
18343TIP3    H276445   3.392   3.116  17.161 -0.4550 -0.8853  0.7945
18344TIP3   OH276446   3.692   5.160   2.989  0.4492  0.3486 -0.3604
18344TIP3    H176447   3.690   5.124   2.900 -1.8434  3.0402 -1.5182
18344TIP3    H276448   3.622   5.114   3.035 -1.0089  1.6439 -1.1899
18345TIP3   OH276449   0.553   0.875  12.073 -0.0654 -0.2282  0.4750
18345TIP3    H176450   0.619   0.873  12.141  1.0815 -0.7017 -0.6347
18345TIP3    H276451   0.602   0.871  11.991 -1.4265  0.0857 -0.3823
18346TIP3   OH276452   2.368   4.345   5.256 -0.8403 -0.3618 -0.2350
18346TIP3    H176453   2.347   4.422   5.203 -0.4462 -0.8708 -1.1467
18346TIP3    H276454   2.378   4.274   5.193  0.2313 -0.8542  0.4698
18347TIP3   OH276455   1.305   2.650   6.956  0.0585 -0.3364  0.2760
18347TIP3    H176456   1.248   2.706   6.902  0.8549 -0.4537 -0.6979
18347TIP3    H276457   1.393   2.665   6.922  0.4637 -1.0908  0.9671
18348TIP3   OH276458   0.083   3.930   6.469  0.1109 -0.2700 -0.0928
18348TIP3    H176459   0.120   3.851   6.509  1.3284  1.1565  1.6614
18348TIP3    H276460   0.157   3.990   6.460 -1.2359  1.6021  0.9078
18349TIP3   OH276461   1.801   2.635  11.662  0.1240  0.5922 -0.1013
18349TIP3    H176462   1.849   2.672  11.587  2.5995 -2.7792 -0.3201
18349TIP3    H276463   1.869   2.621  11.728 -1.5080  0.4841  1.5718
18350TIP3   OH276464   2.722   1.218  13.192 -0.1143  0.4526  0.2055
18350TIP3    H176465   2.626   1.220  13.200 -0.0535  0.3243  0.9890
18350TIP3    H276466   2.742   1.285  13.128 -0.8440 -0.4564 -1.0005
18351TIP3   OH276467   4.599   4.073  15.299  0.4806  0.6175  0.3874
18351TIP3    H176468   4.637   4.048  15.383 -0.1696  1.3211  0.9066
18351TIP3    H276469   4.669   4.120  15.254  0.9679 -0.1445  0.3608
18352TIP3   OH276470   5.170   0.139  13.792 -0.2145 -0.0561  0.1232
18352TIP3    H176471   5.152   0.170  13.704  0.2558 -1.4913 -0.4985
18352TIP3    H276472   5.239   0.197  13.825 -0.6824  0.7357 -0.2884
18353TIP3   OH276473   4.108   1.595   1.871 -0.1785 -0.7913  0.0964
18353TIP3    H176474   4.037   1.593   1.935 -1.3152 -0.9314 -1.1481
18353TIP3    H276475   4.112   1.505   1.837  1.0793 -0.9664  0.6712
18354TIP3   OH276476   6.082   4.002   4.600  0.0616  0.1795 -0.3563
18354TIP3    H176477   6.081   3.941   4.527  0.0083 -1.1410  0.7152
18354TIP3    H276478   6.171   3.995   4.636  0.4420  1.6750 -0.9937
18355TIP3   OH276479   1.128   2.836   3.883  0.8680  0.1480 -0.2313
18355TIP3    H176480   1.176   2.918   3.897  0.3387  0.5447 -0.7561
18355TIP3    H276481   1.041   2.851   3.920  0.4875  0.1203 -1.0969
18356TIP3   OH276482   4.403   2.152  17.069  0.4283 -0.0453  0.3345
18356TIP3    H176483   4.435   2.203  17.144  1.1897 -0.6449  0.4284
18356TIP3    H276484   4.482   2.132  17.019  0.0814 -0.7745  0.0765
18357TIP3   OH276485   1.591   4.585   3.179 -0.1565 -0.2209  0.2951
18357TIP3    H176486   1.631   4.565   3.094 -1.6026  1.5379 -0.8490
18357TIP3    H276487   1.649   4.650   3.218 -2.2716  3.0991 -1.8074
18358TIP3   OH276488   0.702   4.886  14.775  0.3691 -0.3058 -0.8433
18358TIP3    H176489   0.757   4.928  14.841  0.0665 -1.5358  0.2090
18358TIP3    H276490   0.664   4.959  14.726 -1.0081  0.7593  1.6682
18359TIP3   OH276491   4.995   4.974  16.306  0.0829 -0.1110 -0.2289
18359TIP3    H176492   4.947   4.922  16.370  0.0140  0.3323  0.0851
18359TIP3    H276493   5.076   4.999  16.351 -1.0831  2.3204  0.6009
18360TIP3   OH276494   1.282   2.220  16.760  0.9515  1.0748 -0.0952
18360TIP3    H176495   1.351   2.173  16.713 -0.7014 -0.2411 -1.3034
18360TIP3    H276496   1.211   2.227  16.696 -0.3691  1.5661  1.4093
18361TIP3   OH276497   1.702   6.014  12.437  0.7895 -0.3952 -0.5129
18361TIP3    H176498   1.633   5.983  12.379 -1.2466 -1.4506  2.3583
18361TIP3    H276499   1.693   6.109  12.436  0.0964 -0.4608 -1.1327
18362TIP3   OH276500   1.704   6.040  16.443  0.2570 -0.0964  0.3995
18362TIP3    H176501   1.687   5.948  16.463  0.4563 -0.2148  0.0458
18362TIP3    H276502   1.623   6.085  16.465 -0.5895 -0.6715 -1.4625
18363TIP3   OH276503   0.134   2.182   4.107 -0.0957  0.0221 -0.4113
18363TIP3    H176504   0.086   2.265   4.109  0.5644  0.4047 -0.0732
18363TIP3    H276505   0.097   2.131   4.180 -0.9033 -0.2135 -0.9846
18364TIP3   OH276506   6.609   4.815   3.764 -0.7134 -0.7231 -0.1570
18364TIP3    H176507   6.534   4.851   3.810 -1.4896 -0.9417 -1.2377
18364TIP3    H276508   6.683   4.868   3.794 -1.4646  0.2049  0.0794
18365TIP3   OH276509   5.063   0.422  16.332 -0.7083  0.3191  0.1136
18365TIP3    H176510   5.039   0.493  16.391 -2.4251 -0.0364 -0.1083
18365TIP3    H276511   5.096   0.465  16.253 -0.7281  0.8500  0.3974
18366TIP3   OH276512   6.626   1.476  15.225 -0.3980 -0.0614  0.3839
18366TIP3    H176513   6.621   1.405  15.161  1.4141  0.4327 -0.3397
18366TIP3    H276514   6.694   1.447  15.286  0.3598  1.0541  0.0749
18367TIP3   OH276515   3.132   4.828   1.413 -0.2306  0.2532 -0.1177
18367TIP3    H176516   3.140   4.893   1.482  1.0942  0.4461 -0.4408
18367TIP3    H276517   3.112   4.747   1.459 -0.9426  0.6979  0.3627
18368TIP3   OH276518   4.671   4.590  12.722 -0.1080 -0.4221  0.3866
18368TIP3    H176519   4.640   4.500  12.713  0.3098 -0.4737 -0.6963
18368TIP3    H276520   4.632   4.622  12.803  0.2939 -1.8104  1.1389
18369TIP3   OH276521   3.071   1.974  13.819  0.1036 -0.1650  0.0942
18369TIP3    H176522   3.050   2.058  13.859  1.4188  0.0891  0.2809
18369TIP3    H276523   3.021   1.910  13.869 -0.1616  0.4097  0.5657
18370TIP3   OH276524   3.083   1.717   0.108  0.0735 -0.3433 -0.4436
18370TIP3    H176525   3.068   1.774   0.033  0.9987  1.0332  0.4048
18370TIP3    H276526   3.149   1.654   0.077  0.5560  0.3046 -0.7401
18371TIP3   OH276527   2.213   5.253  12.509 -0.5125  0.2077 -0.1281
18371TIP3    H176528   2.306   5.275  12.513  0.1785 -2.5393  0.3090
18371TIP3    H276529   2.196   5.238  12.416 -0.2216 -0.4280 -0.0815
18372TIP3   OH276530   2.675   2.625  12.053  0.4970  0.1848  0.1785
18372TIP3    H176531   2.613   2.592  12.119  0.3124 -0.0884 -0.1300
18372TIP3    H276532   2.755   2.644  12.103  0.9459 -1.6918  0.2154
18373TIP3   OH276533   1.740   6.685  11.922  0.2700 -0.1239  0.2362
18373TIP3    H176534   1.745   6.662  11.829  0.8144  0.0413  0.2232
18373TIP3    H276535   1.732   6.781  11.922 -2.0381 -0.2927  0.2909
18374TIP3   OH276536   2.146   5.582  10.399  0.0108  0.8189  0.0546
18374TIP3    H176537   2.078   5.628  10.349  0.0492 -0.5719 -1.3182
18374TIP3    H276538   2.106   5.565  10.484 -0.5294  2.0437  0.0618
18375TIP3   OH276539   0.766   4.258   4.118 -0.1717 -0.2333  0.4354
18375TIP3    H176540   0.836   4.224   4.172  1.4397  1.9078 -0.2286
18375TIP3    H276541   0.786   4.226   4.030 -0.5078 -0.2866  0.3748
18376TIP3   OH276542   1.100   0.775   5.747 -0.4963  0.2788  0.2460
18376TIP3    H176543   1.052   0.694   5.767 -1.4834  0.7850 -0.0034
18376TIP3    H276544   1.119   0.814   5.832  3.5652 -2.2127  0.5719
18377TIP3   OH276545   5.099   5.757  15.065  0.4358  0.6709  0.1140
18377TIP3    H176546   5.010   5.726  15.048  0.7916 -0.4751  0.2754
18377TIP3    H276547   5.153   5.677  15.062  1.6268  1.5091 -1.1356
18378TIP3   OH276548   6.288   4.027  15.385 -0.7812  0.9409  0.4907
18378TIP3    H176549   6.374   4.064  15.403 -0.4523  0.0631  0.7444
18378TIP3    H276550   6.233   4.056  15.458 -0.2808  0.1095  1.1878
18379TIP3   OH276551   1.326   2.770   4.705  0.5031 -0.2236 -0.2933
18379TIP3    H176552   1.255   2.726   4.657 -0.7776  0.9727  0.4542
18379TIP3    H276553   1.383   2.699   4.734  0.9566 -1.0163 -2.9982
18380TIP3   OH276554   4.899   4.339  16.255 -0.2531 -0.4745 -0.3817
18380TIP3    H176555   4.872   4.403  16.320 -0.6038  0.4191 -1.3874
18380TIP3    H276556   4.977   4.297  16.292 -0.9388 -0.5726  0.9698
18381TIP3   OH276557   4.432   1.737   4.089  0.0999  0.0855  0.7422
18381TIP3    H176558   4.472   1.710   4.172  1.2928  0.1344  0.1959
18381TIP3    H276559   4.419   1.832   4.099 -2.5469 -0.3800  2.0170
18382TIP3   OH276560   4.437   6.423   0.954 -0.3557 -0.1507 -0.1068
18382TIP3    H176561   4.474   6.335   0.961 -0.1865  0.0977  2.9972
18382TIP3    H276562   4.511   6.480   0.937  0.1537 -0.1471  2.0046
18383TIP3   OH276563   1.778   0.759  14.106  0.0221 -0.1360  0.1746
18383TIP3    H176564   1.705   0.713  14.148  0.3295 -0.6501  0.1556
18383TIP3    H276565   1.762   0.852  14.124 -1.7070 -0.0784 -1.5106
18384TIP3   OH276566   4.366   6.334   3.810  0.0194  0.1533  0.0012
18384TIP3    H176567   4.319   6.390   3.872 -0.9210 -2.5861  1.8946
18384TIP3    H276568   4.394   6.393   3.740  0.1828  3.1814  2.5071
18385TIP3   OH276569   1.955   2.594  13.298  0.1849 -0.2826 -0.1896
18385TIP3    H176570   1.933   2.673  13.348  0.6329 -0.5475  0.4303
18385TIP3    H276571   1.897   2.527  13.333 -0.9983  0.0337 -1.5013
18386TIP3   OH276572   5.371   0.938   3.126 -0.7430 -0.3412 -0.3090
18386TIP3    H176573   5.362   0.928   3.031 -2.4305 -1.4394 -0.0455
18386TIP3    H276574   5.444   0.880   3.149  2.7131  3.2825 -1.4889
18387TIP3   OH276575   5.594   4.579   1.273 -0.4750  0.6303  0.3690
18387TIP3    H176576   5.536   4.637   1.223 -0.9854  0.8710  1.2409
18387TIP3    H276577   5.589   4.495   1.227 -0.3906  1.0393 -0.4016
18388TIP3   OH276578   5.949   3.660   6.480  0.4003  0.0567  0.4032
18388TIP3    H176579   5.948   3.593   6.413  0.7919  0.5384 -0.0868
18388TIP3    H276580   5.941   3.612   6.563  0.6737 -0.5889  0.0541
18389TIP3   OH276581   3.409   3.042  10.919 -0.1026  0.6274  0.0972
18389TIP3    H176582   3.478   3.095  10.877  1.4947 -1.6655 -0.2831
18389TIP3    H276583   3.366   3.102  10.980  2.8777  1.9127  1.0400
18390TIP3   OH276584   0.192   0.983   4.242  0.4106  0.4842  0.1627
18390TIP3    H176585   0.247   1.025   4.308  0.4854 -0.0238  0.4291
18390TIP3    H276586   0.105   0.977   4.283  1.1208 -2.4173  1.3455
18391TIP3   OH276587   1.503   5.039   5.213 -0.2819  0.1427 -0.4907
18391TIP3    H176588   1.512   4.992   5.295  0.5568 -1.8352 -1.6946
18391TIP3    H276589   1.562   5.114   5.221  0.8173 -0.7934  0.1864
18392TIP3   OH276590   4.651   5.692  12.022  0.3020  0.1330 -0.4010
18392TIP3    H176591   4.677   5.763  12.081 -0.9634  0.9482 -0.7963
18392TIP3    H276592   4.678   5.612  12.067  0.4688  0.8011  0.7084
18393TIP3   OH276593   2.076   6.179   2.510 -0.2404  0.0448 -0.0871
18393TIP3    H176594   2.027   6.180   2.592  0.2651  0.7455  0.2206
18393TIP3    H276595   2.134   6.104   2.517  0.1737  0.4078  0.4310
18394TIP3   OH276596   4.167   0.176  11.023 -0.2361 -0.6528 -0.3079
18394TIP3    H176597   4.217   0.236  10.967 -2.0118  0.4166 -0.7973
18394TIP3    H276598   4.219   0.167  11.102  0.0835  1.4894 -0.2638
18395TIP3   OH276599   1.816   5.889   0.528 -0.7643 -0.4159  0.3489
18395TIP3    H176600   1.739   5.914   0.476  0.2641 -1.1807 -1.5906
18395TIP3    H276601   1.784   5.820   0.586 -1.7929  0.0474  0.3589
18396TIP3   OH276602   3.863   5.238   5.225  0.4939  0.2065 -0.1705
18396TIP3    H176603   3.820   5.304   5.170 -0.5903 -1.2601 -1.1175
18396TIP3    H276604   3.827   5.252   5.312 -0.5486  0.1714 -0.5923
18397TIP3   OH276605   3.402   4.789   0.591 -0.1774  0.1578 -0.8915
18397TIP3    H176606   3.410   4.694   0.589  1.1345  0.2095  0.3230
18397TIP3    H276607   3.334   4.806   0.656  1.0413  0.0773  0.4388
18398TIP3   OH276608   6.756   1.099  15.457  0.0206 -0.2086 -0.2500
18398TIP3    H176609   6.803   1.030  15.409 -1.2241 -0.6967 -0.8125
18398TIP3    H276610   6.668   1.098  15.419 -0.6224  0.2662  1.1931
18399TIP3   OH276611   6.210   0.960  12.751 -0.5564  0.3981  0.1496
18399TIP3    H176612   6.221   0.879  12.800  1.3513  1.1563  1.0419
18399TIP3    H276613   6.117   0.962  12.728 -0.4107 -2.6071 -0.9637
18400TIP3   OH276614   0.952   5.304  13.660  0.5221  0.0661 -0.1763
18400TIP3    H176615   0.929   5.336  13.747  0.0201  1.8626 -0.9369
18400TIP3    H276616   0.877   5.252  13.633 -0.6491  1.9742 -0.7143
18401TIP3   OH276617   5.560   3.473  16.201 -0.4782  0.1658  0.4194
18401TIP3    H176618   5.531   3.564  16.204 -1.0367 -0.0319  1.3865
18401TIP3    H276619   5.508   3.434  16.131 -1.1490  0.2935  0.8406
18402TIP3   OH276620   5.404   3.065   4.091  0.7984 -0.7465 -0.2084
18402TIP3    H176621   5.313   3.047   4.112 -0.2113  2.2588 -1.6619
18402TIP3    H276622   5.417   3.027   4.004  1.2170 -1.9907  0.3928
18403TIP3   OH276623   6.222   0.423  11.852 -0.2294  0.4519  0.4500
18403TIP3    H176624   6.182   0.387  11.772 -1.3064  1.1928  0.6424
18403TIP3    H276625   6.168   0.499  11.873 -0.3229 -0.1174  2.2625
18404TIP3   OH276626   3.172   5.454  16.411 -0.3620 -0.4198 -0.2431
18404TIP3    H176627   3.227   5.393  16.361  0.3147  1.0433 -1.3138
18404TIP3    H276628   3.159   5.410  16.495  1.2150 -1.4610 -0.5091
18405TIP3   OH276629   0.806   1.455  16.188  0.4831 -0.3699  0.7569
18405TIP3    H176630   0.717   1.424  16.167  0.3797 -0.9197  1.9152
18405TIP3    H276631   0.823   1.525  16.126 -0.1296 -1.3547 -0.5469
18406TIP3   OH276632   3.355   4.549  16.491  0.1918  0.1493  0.5565
18406TIP3    H176633   3.413   4.596  16.432  1.3574 -1.0029  0.7655
18406TIP3    H276634   3.315   4.481  16.437  0.5317 -0.3041  0.8750
18407TIP3   OH276635   1.328   5.754   2.399 -0.3405 -0.1194 -0.1212
18407TIP3    H176636   1.272   5.732   2.325 -0.7566 -1.9203  0.7111
18407TIP3    H276637   1.276   5.732   2.476  0.9541 -0.4240  0.6757
18408TIP3   OH276638   6.307   4.992   0.629  0.6690  0.9213  0.8183
18408TIP3    H176639   6.242   5.036   0.684 -0.8651 -1.7067  1.1906
18408TIP3    H276640   6.332   5.058   0.564 -0.8370  2.6377  1.9318
18409TIP3   OH276641   3.780   1.887  11.827  0.0681 -0.0868 -0.0763
18409TIP3    H176642   3.742   1.840  11.752  1.0917 -1.0182 -0.0292
18409TIP3    H276643   3.826   1.961  11.788 -0.3409  0.0587 -0.2806
18410TIP3   OH276644   4.856   0.406   2.524  0.1483 -0.5701  0.2149
18410TIP3    H176645   4.948   0.380   2.525  0.0002 -1.1116  1.7017
18410TIP3    H276646   4.856   0.499   2.547  0.3722 -0.3817 -0.5436
18411TIP3   OH276647   3.397   2.028  16.472  0.0380 -0.7580  0.0277
18411TIP3    H176648   3.477   2.041  16.421  0.1186 -1.6319 -0.0776
18411TIP3    H276649   3.331   2.006  16.407 -0.5352  0.9379  0.0013
18412TIP3   OH276650   3.553   0.977  13.746  0.1527 -0.0864  0.0126
18412TIP3    H176651   3.628   0.992  13.689  0.5347  1.1094  0.8190
18412TIP3    H276652   3.560   0.885  13.771  0.7534 -0.2543 -0.7492
18413TIP3   OH276653   1.283   1.148   0.979 -0.2667  0.6288 -0.0221
18413TIP3    H176654   1.342   1.203   0.928  0.3424 -1.7999 -2.0310
18413TIP3    H276655   1.328   1.136   1.063  1.3577  0.1116 -0.9560
18414TIP3   OH276656   4.419   2.734  11.313 -0.8328 -0.4130 -0.1573
18414TIP3    H176657   4.397   2.670  11.244  0.1841 -0.0594 -0.8225
18414TIP3    H276658   4.454   2.809  11.265 -0.2670 -0.0985  0.7511
18415TIP3   OH276659   4.669   0.846   0.088  0.5887  0.6764  0.3625
18415TIP3    H176660   4.696   0.920   0.034  0.4855  0.5782  0.1778
18415TIP3    H276661   4.585   0.819   0.051  1.1137 -0.1836 -0.1918
18416TIP3   OH276662   5.695   2.832  17.020 -0.0952  0.1087 -0.5528
18416TIP3    H176663   5.726   2.758  17.073  0.6632  0.6785 -0.1980
18416TIP3    H276664   5.770   2.892  17.017  0.2079 -0.3399 -3.0554
18417TIP3   OH276665   4.377   0.083  15.876 -0.3362  0.6967 -0.4089
18417TIP3    H176666   4.468   0.100  15.901  0.4688 -4.0604  0.3597
18417TIP3    H276667   4.332   0.067  15.959 -1.2506  0.3967 -0.9580
18418TIP3   OH276668   4.960   6.215  14.364  0.2155 -0.0802 -0.4568
18418TIP3    H176669   4.953   6.239  14.456  0.6909  2.8556 -1.1239
18418TIP3    H276670   4.877   6.245  14.326 -0.3156 -2.0083 -0.8522
18419TIP3   OH276671   1.880   4.105  15.663  0.9890  0.5212  0.6877
18419TIP3    H176672   1.886   4.194  15.696 -1.9186  0.7128  0.7826
18419TIP3    H276673   1.819   4.110  15.590  0.3808 -1.4615  1.0147
18420TIP3   OH276674   6.710   2.600  16.450 -0.1634 -0.0755 -0.4927
18420TIP3    H176675   6.697   2.519  16.498  2.4588  0.0100  0.4370
18420TIP3    H276676   6.804   2.619  16.458 -0.4052  2.1317 -2.1438
18421TIP3   OH276677   6.337   6.069  16.571  0.4048  0.3409 -0.1603
18421TIP3    H176678   6.322   6.005  16.640  1.3581 -1.2810 -1.4151
18421TIP3    H276679   6.432   6.071  16.560  0.2678  0.6341 -1.3715
18422TIP3   OH276680   1.560   0.727  13.604  0.1226 -0.1876  0.2932
18422TIP3    H176681   1.621   0.682  13.662 -0.1822  0.8183  1.4246
18422TIP3    H276682   1.562   0.676  13.523  0.5501 -1.6163  1.1818
18423TIP3   OH276683   1.016   1.363   1.534 -0.1539  0.4671 -0.7316
18423TIP3    H176684   1.079   1.293   1.551 -0.6701  0.3510  0.6864
18423TIP3    H276685   1.069   1.443   1.532  0.2085  0.2263 -0.8310
18424TIP3   OH276686   4.208   0.486   0.119 -0.4259 -0.1151  0.0641
18424TIP3    H176687   4.222   0.559   0.179  0.9514 -0.0339 -0.3439
18424TIP3    H276688   4.166   0.526   0.042 -1.1544 -0.0318  0.4983
18425TIP3   OH276689   5.321   4.462   2.248 -0.1837 -0.2857 -0.0375
18425TIP3    H176690   5.361   4.463   2.161  1.4739  1.2987  0.7227
18425TIP3    H276691   5.249   4.526   2.242  1.7707  2.0360  0.5671
18426TIP3   OH276692   5.417   5.836  14.613  0.1479 -0.3096  0.4347
18426TIP3    H176693   5.457   5.757  14.649  1.5946  0.7465  1.2195
18426TIP3    H276694   5.356   5.805  14.547  0.7408 -2.0731  0.7053
18427TIP3   OH276695   3.256   6.456   0.060  0.0892 -0.0900  0.0091
18427TIP3    H176696   3.341   6.435   0.099  0.5395 -0.0027 -0.9193
18427TIP3    H276697   3.206   6.375   0.068 -0.1522  0.1955  1.6105
18428TIP3   OH276698   6.454   0.777  12.266  0.1378 -0.5405 -0.6938
18428TIP3    H176699   6.473   0.712  12.333 -0.7739  0.1120  0.2171
18428TIP3    H276700   6.475   0.734  12.184  1.6209 -1.2310  0.0283
18429TIP3   OH276701   4.523   4.338  10.641 -0.0209  0.1525  0.4402
18429TIP3    H176702   4.513   4.421  10.687  1.5193  1.6564 -1.8391
18429TIP3    H276703   4.449   4.335  10.580  0.1671  0.0720  0.2144
18430TIP3   OH276704   2.193   6.413  16.910 -0.1738  0.0252 -0.2042
18430TIP3    H176705   2.138   6.366  16.848  3.5799 -2.5072 -1.7723
18430TIP3    H276706   2.222   6.491  16.863  1.3025 -1.0402 -1.1240
18431TIP3   OH276707   6.591   4.492   0.228  0.3609  0.2005  0.4607
18431TIP3    H176708   6.610   4.577   0.267  0.1266  0.2738  0.4172
18431TIP3    H276709   6.642   4.490   0.147  0.8930  0.0255  0.7993
18432TIP3   OH276710   5.704   4.253  12.853  0.6913  0.1253 -0.0872
18432TIP3    H176711   5.772   4.288  12.795  0.2403  0.5325 -0.3713
18432TIP3    H276712   5.738   4.269  12.941  0.6962  0.8851 -0.2192
18433TIP3   OH276713   1.041   1.842   1.634  0.1451  0.0878 -0.3329
18433TIP3    H176714   0.946   1.854   1.630 -0.1933 -2.0145  0.7845
18433TIP3    H276715   1.065   1.872   1.722  0.8052  2.2172 -1.1894
18434TIP3   OH276716   3.276   0.395   0.008 -0.4344 -0.3043 -0.1264
18434TIP3    H176717   3.202   0.343  -0.024 -0.7184  0.3156 -0.4778
18434TIP3    H276718   3.238   0.454   0.072 -0.5745  1.2487 -1.5942
18435TIP3   OH276719   6.500   2.012  15.528  0.2653  0.5779  0.0134
18435TIP3    H176720   6.443   1.941  15.558  0.6572  0.5450  0.7066
18435TIP3    H276721   6.490   2.081  15.594  0.8913  0.6370  0.0531
18436TIP3   OH276722   4.468   3.225  14.420  0.0788  0.3455 -0.0911
18436TIP3    H176723   4.382   3.267  14.418 -1.0485 -1.7907  1.2515
18436TIP3    H276724   4.519   3.272  14.355 -1.4347  3.0749  0.6053
18437TIP3   OH276725   0.030   3.918   2.419 -0.0486  0.6372 -0.1079
18437TIP3    H176726  -0.063   3.907   2.435  0.1212 -0.1537  0.3323
18437TIP3    H276727   0.071   3.912   2.505  0.4604  0.4923 -0.3551
18438TIP3   OH276728   3.798   0.692   1.944 -0.4929  0.3874  0.2434
18438TIP3    H176729   3.734   0.760   1.926 -0.8687  0.3106  1.2230
18438TIP3    H276730   3.868   0.706   1.881 -2.4103 -0.7950 -2.2204
18439TIP3   OH276731   2.998   3.049  11.791  0.0621 -0.3654  0.3678
18439TIP3    H176732   2.996   3.044  11.886 -0.7510  0.9774  0.4408
18439TIP3    H276733   2.909   3.024  11.764  0.6358 -1.9246 -0.1140
18440TIP3   OH276734   5.985   4.981   3.638 -0.4165 -0.0796 -0.3841
18440TIP3    H176735   6.047   4.940   3.577 -0.4361  0.2195 -0.6016
18440TIP3    H276736   5.936   4.907   3.675 -1.9146 -0.1076 -2.3607
18441TIP3   OH276737   5.859   0.241  12.410 -0.6329 -0.3119  0.5334
18441TIP3    H176738   5.949   0.274  12.404 -0.7116 -0.3250 -0.8582
18441TIP3    H276739   5.867   0.146  12.399 -0.8240 -0.3097  0.3770
18442TIP3   OH276740   2.452   4.059  13.431  0.1315  0.5693  0.0041
18442TIP3    H176741   2.421   4.039  13.519 -2.9383 -0.0201 -1.1494
18442TIP3    H276742   2.451   4.155  13.426 -1.8348  0.5694 -0.0767
18443TIP3   OH276743   5.723   2.132  12.770 -0.2337  0.6927 -0.1862
18443TIP3    H176744   5.684   2.205  12.819 -1.5431  0.2068 -0.4854
18443TIP3    H276745   5.691   2.142  12.681 -1.0624 -0.6751 -0.0654
18444TIP3   OH276746   3.619   5.078   3.272 -0.2125  0.5059 -0.2027
18444TIP3    H176747   3.606   5.141   3.343 -1.2318 -0.9769  0.9594
18444TIP3    H276748   3.714   5.074   3.261 -0.0812  1.3752  0.4864
18445TIP3   OH276749   4.779   0.743  10.368  0.2627 -0.0345 -0.3761
18445TIP3    H176750   4.792   0.694  10.286 -3.7036  0.6773 -1.5577
18445TIP3    H276751   4.775   0.835  10.341 -2.9108  0.0708  0.3114
18446TIP3   OH276752   6.065   1.024   3.640  0.6552  0.3674 -0.3297
18446TIP3    H176753   6.145   0.977   3.667  0.8807  1.0247  0.1668
18446TIP3    H276754   6.031   0.973   3.567  0.5301 -0.9596  0.6299
18447TIP3   OH276755   2.946   0.909   2.222 -0.2759  0.1718 -0.2748
18447TIP3    H176756   2.854   0.931   2.211  0.2049  0.9229 -3.4101
18447TIP3    H276757   2.951   0.815   2.207 -0.7288 -0.1243  1.4035
18448TIP3   OH276758   5.342   3.760   5.257  0.0968  0.2844  0.5460
18448TIP3    H176759   5.286   3.785   5.183 -1.5293  0.2695  1.7230
18448TIP3    H276760   5.406   3.701   5.220 -0.3207  0.7535 -0.9704
18449TIP3   OH276761   1.744   5.885  11.687 -0.6214 -0.3979 -0.1324
18449TIP3    H176762   1.722   5.881  11.780 -2.1198  1.8147 -0.3561
18449TIP3    H276763   1.715   5.801  11.651 -5.3101  0.8492  0.3643
18450TIP3   OH276764   3.898   1.679  16.501 -0.4532  0.1446  0.2834
18450TIP3    H176765   3.883   1.640  16.587  1.3164  0.0211  0.5643
18450TIP3    H276766   3.966   1.625  16.462 -1.8627 -0.3316 -1.5739
18451TIP3   OH276767   3.995   0.402  11.102  0.0673  0.0947  0.6475
18451TIP3    H176768   4.056   0.476  11.105 -1.7131  1.5710  2.4559
18451TIP3    H276769   4.048   0.326  11.128  1.5879  0.9769  0.2013
18452TIP3   OH276770   3.104   6.381  14.208  0.4423  0.0142 -0.2519
18452TIP3    H176771   3.123   6.404  14.117  1.9630  2.1853  0.5491
18452TIP3    H276772   3.168   6.313  14.229  0.2129 -0.3562 -0.7474
18453TIP3   OH276773   0.134   1.797  11.712 -0.3453 -0.0358  0.0995
18453TIP3    H176774   0.110   1.890  11.716  0.2642  0.1405 -0.2063
18453TIP3    H276775   0.229   1.797  11.698 -0.3627 -0.7039 -0.0576
18454TIP3   OH276776   5.331   5.768   5.020 -0.2021  0.2398 -0.8905
18454TIP3    H176777   5.387   5.808   5.086 -2.6447 -0.2908  1.6111
18454TIP3    H276778   5.368   5.680   5.008  0.0313  0.2004  0.0676
18455TIP3   OH276779   3.062   6.455   2.242  0.2150  0.1856  0.7846
18455TIP3    H176780   3.057   6.460   2.146 -0.0956 -2.0579  0.6465
18455TIP3    H276781   2.983   6.498   2.273  0.4594  1.1885  0.0532
18456TIP3   OH276782   0.674   1.008  14.125 -0.4857 -0.1340 -0.7387
18456TIP3    H176783   0.672   0.964  14.040 -0.1402 -0.7082 -0.4555
18456TIP3    H276784   0.759   1.052  14.127 -0.8195  0.5193 -1.0089
18457TIP3   OH276785   4.925   0.609   4.953 -0.5945  0.2129  0.3455
18457TIP3    H176786   4.844   0.615   4.903  0.6224  2.8765 -1.4193
18457TIP3    H276787   4.921   0.683   5.014 -0.2788 -0.6968  1.4988
18458TIP3   OH276788   3.015   5.226  17.172 -0.5551  0.4788  0.0780
18458TIP3    H176789   2.959   5.176  17.231 -1.2313 -0.1143 -1.0483
18458TIP3    H276790   3.097   5.236  17.220 -1.4566  0.9791  1.5721
18459TIP3   OH276791   0.536   3.283  13.071  0.0518 -0.9689  0.6283
18459TIP3    H176792   0.458   3.339  13.070  0.4510 -0.3946  1.2426
18459TIP3    H276793   0.591   3.317  13.000  0.0163 -0.9824  0.5938
18460TIP3   OH276794   2.092   2.592  16.458 -0.5602  0.1307  0.2949
18460TIP3    H176795   2.170   2.647  16.469 -0.0078 -0.7124  0.6077
18460TIP3    H276796   2.122   2.503  16.475 -1.9474 -0.0282  2.1032
18461TIP3   OH276797   6.484   3.424  11.166  0.0333 -0.4645  0.4054
18461TIP3    H176798   6.423   3.498  11.167 -0.7290 -1.0788 -0.2816
18461TIP3    H276799   6.538   3.437  11.244  1.2767  1.9494 -0.8191
18462TIP3   OH276800   1.302   5.676  11.286  0.1248 -0.5547 -0.3782
18462TIP3    H176801   1.285   5.589  11.249 -0.6384  0.6059 -2.8562
18462TIP3    H276802   1.361   5.717  11.223  0.8564  0.5609  1.0269
18463TIP3   OH276803   3.308   5.704  15.107  0.3877  0.0319 -0.2456
18463TIP3    H176804   3.270   5.670  15.188 -0.0444  0.4808 -0.2531
18463TIP3    H276805   3.402   5.704  15.123  0.4783 -2.1556 -0.6439
18464TIP3   OH276806   3.673   0.165   5.604 -0.2095  0.0361 -0.1103
18464TIP3    H176807   3.642   0.156   5.694 -0.7053 -0.5881 -0.3431
18464TIP3    H276808   3.719   0.249   5.603  0.7272 -0.4651  0.9908
18465TIP3   OH276809   5.245   3.215  16.869 -0.3051 -0.1511  0.2751
18465TIP3    H176810   5.290   3.283  16.920  1.2987  0.1994 -1.5789
18465TIP3    H276811   5.168   3.194  16.922 -0.1549  2.1967  1.5234
18466TIP3   OH276812   4.293   4.070  14.380 -0.1222  0.2347 -0.6961
18466TIP3    H176813   4.223   4.128  14.410 -0.0792  0.1742 -0.4738
18466TIP3    H276814   4.248   3.989  14.356 -0.0271 -0.1603  0.4005
18467TIP3   OH276815   4.692   4.410  12.397  0.4834 -0.3631 -0.4732
18467TIP3    H176816   4.743   4.337  12.432 -1.8449 -0.9064  1.9658
18467TIP3    H276817   4.633   4.371  12.333  0.0642 -0.4500 -0.0380
18468TIP3   OH276818   5.766   2.223   5.345 -0.7688 -0.1761 -0.0537
18468TIP3    H176819   5.772   2.159   5.416 -0.6051 -1.7898 -1.4894
18468TIP3    H276820   5.819   2.186   5.274 -0.9089  1.4123 -1.0159
18469TIP3   OH276821   3.476   5.142   5.103  0.6575 -0.1811 -0.3463
18469TIP3    H176822   3.502   5.085   5.030  0.3218  0.7147 -1.1872
18469TIP3    H276823   3.391   5.108   5.130  0.8301 -0.5854 -0.3046
18470TIP3   OH276824   2.412   4.076  14.193  1.0695  0.0105  0.2875
18470TIP3    H176825   2.489   4.019  14.195  0.2623 -1.0944  0.9737
18470TIP3    H276826   2.338   4.015  14.193  0.1981  1.0592 -0.5163
18471TIP3   OH276827   6.660   4.138   3.878 -0.3000 -0.0265 -0.2258
18471TIP3    H176828   6.653   4.097   3.792 -0.4897  0.0320 -0.2371
18471TIP3    H276829   6.595   4.093   3.932 -0.1719 -0.0734 -0.1096
18472TIP3   OH276830   0.732   3.115  16.284  1.2309 -0.4594  0.7900
18472TIP3    H176831   0.694   3.087  16.367  4.0573 -0.6067  2.0820
18472TIP3    H276832   0.697   3.202  16.269  0.5608 -0.5114  2.0471
18473TIP3   OH276833   3.248   0.603   3.418  0.8635  0.3253 -0.1811
18473TIP3    H176834   3.175   0.654   3.454 -1.0067 -0.9522 -2.0398
18473TIP3    H276835   3.312   0.669   3.391 -0.0697  1.5283  0.4574
18474TIP3   OH276836   4.596   6.524  16.148 -0.0170 -0.8114 -0.2036
18474TIP3    H176837   4.679   6.561  16.178  0.6263 -1.5545 -1.0174
18474TIP3    H276838   4.570   6.462  16.216 -2.1925  2.6033  2.2209
18475TIP3   OH276839   6.773   4.762  15.801  0.5344  0.1036 -0.7292
18475TIP3    H176840   6.864   4.747  15.773  0.5952 -0.4460 -0.2521
18475TIP3    H276841   6.754   4.688  15.858 -0.5283 -0.2723 -1.5669
18476TIP3   OH276842   3.034   0.665   4.850  0.5291  0.1421 -0.5468
18476TIP3    H176843   3.007   0.752   4.878  0.7160 -0.1990  0.7164
18476TIP3    H276844   2.953   0.624   4.819 -0.0392 -0.1380  1.2821
18477TIP3   OH276845   1.061   1.826   4.289 -0.2281 -0.0080  0.1159
18477TIP3    H176846   1.021   1.846   4.373  1.9727  0.8400  1.0076
18477TIP3    H276847   1.009   1.874   4.225 -1.5932 -0.2400  1.0384
18478TIP3   OH276848   2.381   1.783   1.506  0.8604 -0.2186  0.3120
18478TIP3    H176849   2.455   1.843   1.512  0.2325  0.6276 -0.3824
18478TIP3    H276850   2.319   1.815   1.572  1.1555 -1.0070  0.9883
18479TIP3   OH276851   4.114   5.874   2.898 -0.2532  0.1076  0.5700
18479TIP3    H176852   4.141   5.874   2.806 -0.2564  1.2805  0.5579
18479TIP3    H276853   4.095   5.966   2.917 -0.8428 -0.2153  1.5725
18480TIP3   OH276854   5.804   1.099   2.047 -0.2181  0.0798  0.0371
18480TIP3    H176855   5.720   1.099   2.092  0.4972  0.1432  1.3782
18480TIP3    H276856   5.828   1.007   2.039 -0.4642  0.0553 -0.4537
18481TIP3   OH276857   4.432   3.055  12.324 -0.0055 -0.2786 -0.0766
18481TIP3    H176858   4.424   3.005  12.406  1.8312 -2.1480 -1.0053
18481TIP3    H276859   4.354   3.032  12.274  0.2307 -1.2578  0.0100
18482TIP3   OH276860   2.099   5.545  16.703  0.1255  0.2408  0.2969
18482TIP3    H176861   2.052   5.463  16.691 -0.9029  0.7970  0.4693
18482TIP3    H276862   2.192   5.520  16.705 -0.1285 -0.8003 -0.5814
18483TIP3   OH276863   3.285   6.787  13.257 -0.1709 -0.4075  0.0548
18483TIP3    H176864   3.335   6.720  13.304  0.5552  0.3807  0.4096
18483TIP3    H276865   3.194   6.760  13.267  0.2084 -2.2643 -1.2110
18484TIP3   OH276866   3.051   0.357  14.133 -0.4444 -0.1720 -0.8515
18484TIP3    H176867   3.084   0.277  14.174 -0.3246 -0.6216 -1.8033
18484TIP3    H276868   2.987   0.392  14.195  1.6974  0.6356  0.9944
18485TIP3   OH276869   0.167   0.783  17.131  0.5223 -0.4422 -0.0228
18485TIP3    H176870   0.196   0.745  17.214  1.2022 -2.3066 -1.0951
18485TIP3    H276871   0.113   0.858  17.157  0.8572 -0.8970  2.0938
18486TIP3   OH276872   0.180   1.240   1.289 -0.7778 -0.7205 -0.3727
18486TIP3    H176873   0.227   1.322   1.274 -1.5112 -0.1048  0.6196
18486TIP3    H276874   0.093   1.268   1.318 -0.2794 -1.8339  2.3697
18487TIP3   OH276875   1.076   6.426  14.987 -0.6118  0.4929  0.4218
18487TIP3    H176876   1.127   6.415  14.907  0.3364  0.8506  0.9715
18487TIP3    H276877   1.088   6.344  15.035 -2.0388 -0.1327 -0.2883
18488TIP3   OH276878   0.559   5.462  16.556 -0.0640 -0.4792  0.0802
18488TIP3    H176879   0.531   5.377  16.591 -2.1648  0.6802  1.3051
18488TIP3    H276880   0.483   5.519  16.568  0.6685  1.0912 -2.4877
18489TIP3   OH276881   1.766   2.707  16.002  0.1232  0.2533  0.2744
18489TIP3    H176882   1.805   2.727  15.917 -2.7496 -0.0652 -1.1648
18489TIP3    H276883   1.742   2.792  16.038  0.3017  0.3075  0.2690
18490TIP3   OH276884   1.601   5.501   1.413  0.4448 -0.1878 -0.3423
18490TIP3    H176885   1.528   5.562   1.413 -1.7911 -2.7490 -1.6614
18490TIP3    H276886   1.647   5.517   1.331  0.0228 -0.0897 -0.5603
18491TIP3   OH276887   5.188   6.529   1.782  0.6100 -0.2682  0.4273
18491TIP3    H176888   5.247   6.552   1.711  1.3158 -0.1961  1.0315
18491TIP3    H276889   5.113   6.488   1.739  1.8756 -1.9574 -0.2276
18492TIP3   OH276890   4.152   3.014  13.623  0.3579 -0.1940 -0.5371
18492TIP3    H176891   4.148   3.008  13.719 -0.3986 -0.0001 -0.5481
18492TIP3    H276892   4.158   3.108  13.605  2.1268 -0.3115 -0.6460
18493TIP3   OH276893   5.638   0.478   5.783  0.0399  0.5329 -0.8914
18493TIP3    H176894   5.627   0.385   5.769  0.1656  0.5414 -1.0492
18493TIP3    H276895   5.604   0.494   5.871 -0.5384  0.4450 -1.1027
18494TIP3   OH276896   5.733   5.530  12.251 -0.3018  0.3851 -0.1390
18494TIP3    H176897   5.771   5.487  12.328 -0.0837  1.1244  0.1740
18494TIP3    H276898   5.642   5.500  12.249  0.4446 -1.9208 -1.2707
18495TIP3   OH276899   1.660   0.159  11.860  0.4807  0.8390 -0.0112
18495TIP3    H176900   1.709   0.221  11.914 -0.7134  0.8768  1.0298
18495TIP3    H276901   1.580   0.205  11.836  0.1254  0.1235 -0.2147
18496TIP3   OH276902   4.632   1.408   2.583 -0.0115 -0.0594  0.7502
18496TIP3    H176903   4.654   1.493   2.545  1.6492  0.1753  2.2065
18496TIP3    H276904   4.703   1.350   2.557 -0.1464 -0.5208  1.4012
18497TIP3   OH276905   6.571   1.672  13.258  0.4369 -0.2277 -0.2886
18497TIP3    H176906   6.514   1.746  13.239  0.3185 -0.1546  0.3485
18497TIP3    H276907   6.655   1.711  13.280 -0.1615 -0.1660  2.0463
18498TIP3   OH276908   2.728   2.890  14.530 -0.2360 -0.6612 -0.1670
18498TIP3    H176909   2.817   2.914  14.556 -0.2409 -1.8236  0.9431
18498TIP3    H276910   2.739   2.840  14.450  0.0734 -0.4035 -0.2866
18499TIP3   OH276911   3.782   5.115  16.584 -0.2385 -0.2116 -0.3682
18499TIP3    H176912   3.827   5.198  16.568 -3.0609  1.8169  1.4708
18499TIP3    H276913   3.732   5.099  16.504  1.1537 -0.7092 -1.1384
18500TIP3   OH276914   0.663   3.837  12.281  0.9105 -0.4823  0.2140
18500TIP3    H176915   0.691   3.927  12.295  1.6424 -0.7826  0.7314
18500TIP3    H276916   0.603   3.819  12.354  0.5693 -0.3323 -0.0293
18501TIP3   OH276917   1.785   5.461   1.609 -0.1516 -0.4736  0.0084
18501TIP3    H176918   1.708   5.472   1.553  1.9977  2.0844 -2.5622
18501TIP3    H276919   1.773   5.524   1.679 -0.0116  0.5385 -0.8659
18502TIP3   OH276920   5.034   1.605  11.873 -0.8058  0.4226 -0.1548
18502TIP3    H176921   5.043   1.700  11.879  1.2145  0.1921  1.1743
18502TIP3    H276922   5.045   1.575  11.964 -0.3181 -1.1393 -0.7216
18503TIP3   OH276923   2.153   6.551   0.495  0.8330 -0.1175  0.4923
18503TIP3    H176924   2.129   6.498   0.419  1.0796  1.8113 -0.9645
18503TIP3    H276925   2.147   6.490   0.569 -0.1635 -1.8388 -0.9483
18504TIP3   OH276926   0.063   4.927  17.065  0.1266  0.3913  0.6822
18504TIP3    H176927   0.017   5.010  17.083 -0.3794  0.5706 -1.2766
18504TIP3    H276928   0.134   4.952  17.005 -1.3718 -0.9076 -1.6820
18505TIP3   OH276929   1.556   6.427   4.879  0.5100 -0.7007  0.3923
18505TIP3    H176930   1.615   6.486   4.926  0.2206 -0.7878  0.8678
18505TIP3    H276931   1.597   6.341   4.887  1.5628 -0.4005 -1.3234
18506TIP3   OH276932   1.183   4.569   5.858 -0.3004 -0.1543 -0.1519
18506TIP3    H176933   1.237   4.548   5.782 -0.5666  3.4140 -1.4494
18506TIP3    H276934   1.101   4.522   5.843  0.6451 -1.6900 -0.6425
18507TIP3   OH276935   4.550   6.138  17.158  0.0000  0.0254 -0.2688
18507TIP3    H176936   4.572   6.061  17.105  0.5512 -1.2064  1.6773
18507TIP3    H276937   4.636   6.172  17.186 -0.3065  0.0032  0.7160
18508TIP3   OH276938   6.145   6.312   1.346 -0.5747  0.3247  0.4118
18508TIP3    H176939   6.136   6.382   1.281  0.1311 -0.9019 -1.0241
18508TIP3    H276940   6.238   6.310   1.366 -0.5659 -0.3266  0.3151
18509TIP3   OH276941   2.657   2.606  16.400 -0.2149 -0.3534  0.1082
18509TIP3    H176942   2.595   2.533  16.394 -0.9088  0.2616 -0.2768
18509TIP3    H276943   2.741   2.569  16.375 -0.1444 -1.5497  2.0184
18510TIP3   OH276944   5.167   1.489   4.404  0.1279 -0.0875 -0.1187
18510TIP3    H176945   5.185   1.552   4.473  2.0168 -1.4120  0.6468
18510TIP3    H276946   5.104   1.428   4.443  0.2973 -0.1703  0.0239
18511TIP3   OH276947   6.322   0.215   5.096 -0.6160  0.2368 -0.1777
18511TIP3    H176948   6.324   0.119   5.094 -0.2227  0.2474 -0.7174
18511TIP3    H276949   6.408   0.240   5.061 -1.5685  0.7968 -2.2038
18512TIP3   OH276950   3.051   0.569   5.145  0.3631  0.8310 -0.0319
18512TIP3    H176951   3.110   0.497   5.171 -0.3276 -0.6511 -2.4171
18512TIP3    H276952   3.071   0.584   5.053  0.3491  3.6242  0.3879
18513TIP3   OH276953   6.555   2.304  10.738 -0.3378 -0.1800 -0.1926
18513TIP3    H176954   6.568   2.211  10.757  3.4852  0.3855  0.3545
18513TIP3    H276955   6.502   2.336  10.811  0.0119 -1.5344  0.6765
18514TIP3   OH276956   0.061   3.585  12.204 -0.1301 -0.7151  0.2144
18514TIP3    H176957   0.142   3.534  12.218 -0.1177 -0.7157  0.1435
18514TIP3    H276958   0.079   3.670  12.244 -0.7085 -1.2713  1.6954
18515TIP3   OH276959   3.014   4.037  13.952 -0.2614  0.5372  0.0008
18515TIP3    H176960   3.028   3.946  13.928 -0.6845  0.5126 -0.1627
18515TIP3    H276961   3.100   4.078  13.946  0.1852 -0.1661  1.4492
18516TIP3   OH276962   0.788   4.085   1.752 -0.0173  0.1267  0.1476
18516TIP3    H176963   0.776   4.137   1.832  0.2093  1.9565 -0.9845
18516TIP3    H276964   0.700   4.053   1.731 -0.2245  0.3649  0.6478
18517TIP3   OH276965   5.785   3.830   2.187 -1.1052  0.0831 -0.1516
18517TIP3    H176966   5.755   3.745   2.152 -1.4505  0.3884 -0.6093
18517TIP3    H276967   5.768   3.824   2.281 -1.3239 -0.2780 -0.2103
18518TIP3   OH276968   0.690   1.901  15.678 -0.3947  0.4561 -1.1126
18518TIP3    H176969   0.611   1.945  15.648 -1.6373 -0.4646  0.7187
18518TIP3    H276970   0.663   1.811  15.696  1.0831  0.0909 -0.5825
18519TIP3   OH276971   4.730   3.742  12.296 -0.8098 -0.0625 -0.3445
18519TIP3    H176972   4.783   3.714  12.371  0.3930  0.2296 -1.0686
18519TIP3    H276973   4.729   3.666  12.238 -0.0610  0.3829 -0.9434
18520TIP3   OH276974   5.793   5.379   2.785  0.3835 -0.6482 -0.1681
18520TIP3    H176975   5.809   5.299   2.735  1.3510  0.4772 -1.7018
18520TIP3    H276976   5.743   5.435   2.726  0.8523  0.3863  0.4055
18521TIP3   OH276977   5.475   4.575   3.041  0.0367 -0.0174 -0.2540
18521TIP3    H176978   5.473   4.503   2.979 -1.8830 -0.8217  0.7295
18521TIP3    H276979   5.471   4.654   2.987  1.0763 -0.6483 -1.2658
18522TIP3   OH276980   2.583   6.679  17.215  0.5979 -0.2063 -0.0056
18522TIP3    H176981   2.552   6.766  17.188  2.7541  0.8859  0.9349
18522TIP3    H276982   2.542   6.664  17.299  0.9337  0.3113  0.2540
18523TIP3   OH276983   3.265   3.898   5.248  0.2691 -0.7215  0.1640
18523TIP3    H176984   3.251   3.992   5.256  1.0567 -0.4969 -1.0650
18523TIP3    H276985   3.187   3.859   5.288 -0.2379  0.4475  0.3370
18524TIP3   OH276986   4.369   1.235  14.080 -0.0593  0.8272  0.9714
18524TIP3    H176987   4.461   1.263  14.085 -0.4237  2.1200  0.5872
18524TIP3    H276988   4.323   1.292  14.141 -0.4337 -0.6192  2.0567
18525TIP3   OH276989   4.012   0.191   4.572  0.1675 -0.0738  0.3632
18525TIP3    H176990   3.972   0.181   4.659  1.0778 -0.5943  0.7376
18525TIP3    H276991   4.101   0.221   4.590 -0.3594  2.1006 -0.5040
18526TIP3   OH276992   0.920   5.818   4.929 -0.8042  0.6925  0.9688
18526TIP3    H176993   0.888   5.727   4.924 -0.1798  0.4094  1.8492
18526TIP3    H276994   1.008   5.814   4.892 -0.4279  0.7523  1.8441
18527TIP3   OH276995   2.202   0.141   4.495  0.2585  0.1928  0.3529
18527TIP3    H176996   2.246   0.225   4.502 -1.5407  1.0936  1.3523
18527TIP3    H276997   2.238   0.088   4.566  0.5868  0.5051  0.4161
18528TIP3   OH276998   5.518   1.849   3.459 -0.2651  0.1938 -0.2321
18528TIP3    H176999   5.611   1.869   3.472 -0.6240  1.8334 -0.0550
18528TIP3    H277000   5.513   1.812   3.371  0.5818 -0.1553 -0.1435
18529TIP3   OH277001   5.994   2.652   1.968  0.3033  0.0938  0.2662
18529TIP3    H177002   5.991   2.673   1.874 -0.6906 -1.3296 -0.0419
18529TIP3    H277003   6.062   2.709   2.003  1.0940  0.2379 -1.4331
18530TIP3   OH277004   4.305   2.774  17.156 -0.5970  0.3195 -0.0554
18530TIP3    H177005   4.373   2.745  17.096  0.3235  1.0581  0.6268
18530TIP3    H277006   4.236   2.809  17.099  0.0536  0.5611 -0.6984
18531TIP3   OH277007   5.561   1.869  13.005  0.2630  0.4400 -0.0909
18531TIP3    H177008   5.612   1.937  12.961 -0.1687 -0.1408 -1.5411
18531TIP3    H277009   5.483   1.859  12.949 -0.5069 -0.0198  1.0519
18532TIP3   OH277010   5.147   6.000  17.066 -0.6311 -0.9622  0.2999
18532TIP3    H177011   5.094   6.036  17.138 -0.0454 -1.0316  0.7740
18532TIP3    H277012   5.094   6.014  16.988 -0.7349  0.2795  0.5727
18533TIP3   OH277013   5.056   4.338  11.817 -0.0680 -0.2875  0.7185
18533TIP3    H177014   5.101   4.261  11.781 -1.4959 -0.3367 -0.9643
18533TIP3    H277015   5.099   4.412  11.776 -0.6392 -0.2872  0.1220
18534TIP3   OH277016   2.345   4.672  12.305  0.0877  0.2445  0.4657
18534TIP3    H177017   2.264   4.624  12.288  0.6672 -0.5348 -0.1169
18534TIP3    H277018   2.330   4.714  12.389 -0.5643 -0.6730  0.8224
18535TIP3   OH277019   0.866   6.676   6.141  0.0794  0.4989 -0.1532
18535TIP3    H177020   0.905   6.690   6.227  0.0849  1.3812 -0.2911
18535TIP3    H277021   0.777   6.646   6.160  0.8716 -1.6917  0.1591
18536TIP3   OH277022   3.113   0.108  14.240 -0.4743  0.1765  0.3128
18536TIP3    H177023   3.070   0.073  14.162  1.7487 -0.0118 -0.8804
18536TIP3    H277024   3.168   0.037  14.271  0.6108  1.1015  0.5399
18537TIP3   OH277025   1.578   5.942   5.166 -0.2773 -0.3462 -0.1759
18537TIP3    H177026   1.641   6.003   5.204  1.3345 -2.4561  0.5789
18537TIP3    H277027   1.529   5.908   5.241 -0.4003 -0.8605 -0.4905
18538TIP3   OH277028   5.114   0.590  12.497 -0.2665  0.0876 -0.0816
18538TIP3    H177029   5.164   0.643  12.435  0.3771  0.0445  0.4080
18538TIP3    H277030   5.079   0.653  12.560  1.8240 -0.2223  1.4390
18539TIP3   OH277031   6.304   2.598  13.445  0.2968  0.7556 -0.1026
18539TIP3    H177032   6.328   2.623  13.356 -1.1043  0.0622 -0.6881
18539TIP3    H277033   6.239   2.528  13.434  0.6216  0.1886  1.4631
18540TIP3   OH277034   2.154   3.745   6.465  0.3509  0.2522 -0.1282
18540TIP3    H177035   2.202   3.825   6.484  1.4455 -0.6316  0.8533
18540TIP3    H277036   2.089   3.739   6.534  1.9889 -1.0706  1.3397
18541TIP3   OH277037   1.645   0.240   5.695 -0.3128 -0.0885  0.2480
18541TIP3    H177038   1.663   0.269   5.605  0.1352 -1.8708 -0.2456
18541TIP3    H277039   1.568   0.183   5.688 -0.6341  0.2290  1.0847
18542TIP3   OH277040   6.212   6.382   3.142  0.0010 -0.2763  0.1430
18542TIP3    H177041   6.262   6.377   3.061  0.1608 -1.3558  0.3073
18542TIP3    H277042   6.209   6.292   3.175 -0.4482  0.0783  1.0996
18543TIP3   OH277043   6.186   4.167   3.811 -1.1252  0.1714  0.0671
18543TIP3    H177044   6.267   4.204   3.776 -0.8391 -0.7315 -0.2389
18543TIP3    H277045   6.135   4.243   3.839 -0.6646  0.8180 -0.8156
18544TIP3   OH277046   3.341   2.729  15.131 -0.1862  0.2734 -0.2014
18544TIP3    H177047   3.254   2.708  15.096  0.3570 -2.0167 -0.1960
18544TIP3    H277048   3.395   2.743  15.053 -0.4258  1.1802 -0.2088
18545TIP3   OH277049   1.871   4.645  15.807  0.4980  0.0832 -0.3871
18545TIP3    H177050   1.929   4.721  15.802 -0.4132  0.7240 -1.1684
18545TIP3    H277051   1.817   4.661  15.884  0.7786 -0.1064 -0.1503
18546TIP3   OH277052   6.256   0.486  15.964 -0.0441 -0.3621  0.4700
18546TIP3    H177053   6.282   0.399  15.993  0.3794  0.1912  1.7948
18546TIP3    H277054   6.267   0.541  16.041  0.4138  1.0159 -0.5656
18547TIP3   OH277055   3.247   3.608   5.176  0.1917  0.1269 -0.2366
18547TIP3    H177056   3.176   3.665   5.208  0.5363 -0.5228  1.7246
18547TIP3    H277057   3.215   3.577   5.091 -1.5474  0.4603  0.2662
18548TIP3   OH277058   3.840   0.407  13.885  0.4350 -0.2892 -0.3102
18548TIP3    H177059   3.859   0.313  13.893  0.1623 -0.4305 -1.2437
18548TIP3    H277060   3.755   0.410  13.840 -0.1602  0.3830  0.8513
18549TIP3   OH277061   4.416   0.695  16.941  0.0942 -0.2514 -0.0831
18549TIP3    H177062   4.490   0.648  16.980 -0.5421 -1.3032 -0.1142
18549TIP3    H277063   4.339   0.660  16.986 -0.3339  1.3228  0.4191
18550TIP3   OH277064   3.769   6.713  15.707  0.0906  0.4181  0.1520
18550TIP3    H177065   3.844   6.655  15.695 -0.9187 -1.2790  1.8390
18550TIP3    H277066   3.696   6.668  15.665 -0.5929  0.6749  1.0513
18551TIP3   OH277067   5.711   0.100   3.858  0.2222 -0.0657 -0.6017
18551TIP3    H177068   5.747   0.085   3.770  0.0152 -2.3272 -0.3117
18551TIP3    H277069   5.776   0.061   3.917 -1.3203 -1.6649  0.0673
18552TIP3   OH277070   4.801   5.989  16.514 -0.0552 -0.3707 -0.3304
18552TIP3    H177071   4.788   5.933  16.590 -1.9022 -0.8512 -0.9744
18552TIP3    H277072   4.870   6.050  16.541 -1.4342  0.1882  2.1583
18553TIP3   OH277073   1.393   6.426  15.532  0.6861 -0.0820 -0.1952
18553TIP3    H177074   1.333   6.355  15.510 -0.9798  1.0192  0.6061
18553TIP3    H277075   1.465   6.383  15.578 -0.5026 -1.2235  0.6591
18554TIP3   OH277076   2.366   0.203   5.814 -0.4303  1.0815  0.2136
18554TIP3    H177077   2.294   0.153   5.776 -0.2144  2.1309 -1.6700
18554TIP3    H277078   2.431   0.138   5.840 -1.7271  0.1809  1.2468
18555TIP3   OH277079   3.953   5.041   3.526  0.2690  0.0768 -0.4846
18555TIP3    H177080   3.943   5.041   3.621  1.0256 -0.9556 -0.4061
18555TIP3    H277081   4.019   5.108   3.508  1.1873 -0.7558 -0.1782
18556TIP3   OH277082   6.623   2.381   4.127 -0.3508  0.2261 -0.1113
18556TIP3    H177083   6.670   2.420   4.200 -0.4029 -2.5375  1.4323
18556TIP3    H277084   6.533   2.412   4.137 -0.2999  0.0610  0.8317
18557TIP3   OH277085   5.251   0.990  17.006 -0.1385 -0.3949 -0.1177
18557TIP3    H177086   5.165   0.947  17.014 -0.2965  0.1063  1.0065
18557TIP3    H277087   5.235   1.079  17.036  0.5123  0.0401 -1.0680
18558TIP3   OH277088   2.466   2.760  13.164 -0.0903  0.2887  0.5067
18558TIP3    H177089   2.373   2.738  13.166  0.2762 -1.5238 -1.1825
18558TIP3    H277090   2.474   2.830  13.099 -0.1608 -0.0505  0.1389
18559TIP3   OH277091   5.962   4.492  14.399  0.5658 -0.1175  0.5934
18559TIP3    H177092   6.014   4.520  14.324 -0.1669  0.3416  0.2483
18559TIP3    H277093   5.873   4.482  14.364  0.6942 -2.2659  0.8514
18560TIP3   OH277094   0.130   0.201   2.961 -0.3213 -0.0751 -0.1273
18560TIP3    H177095   0.214   0.196   2.917 -0.8219  0.2867 -1.1298
18560TIP3    H277096   0.141   0.270   3.026  0.2519 -0.2513 -0.0327
18561TIP3   OH277097   6.429   2.566  15.861  0.3086  0.2272 -0.0476
18561TIP3    H177098   6.371   2.514  15.806  1.2977 -0.2129 -0.6842
18561TIP3    H277099   6.403   2.657  15.844 -0.7120 -0.0039  0.2643
18562TIP3   OH277100   5.037   2.644  13.165 -0.3344 -0.1097  0.7314
18562TIP3    H177101   5.118   2.656  13.214 -0.9440  0.4463  1.6232
18562TIP3    H277102   5.043   2.707  13.093  0.1688 -0.3023  0.6016
18563TIP3   OH277103   0.794   0.917  16.496 -0.6441 -0.2284 -0.1543
18563TIP3    H177104   0.821   0.892  16.584 -1.5213 -0.3212  0.0887
18563TIP3    H277105   0.876   0.938  16.451 -0.1410 -0.7982  0.4884
18564TIP3   OH277106   1.527   0.578  13.369  0.3852 -0.9634 -0.4542
18564TIP3    H177107   1.586   0.578  13.294  1.8121 -1.1839  0.6506
18564TIP3    H277108   1.470   0.503  13.354 -0.7150  0.2106 -2.3586
18565TIP3   OH277109   5.197   1.956  13.260 -0.5953 -0.2545  0.0470
18565TIP3    H177110   5.262   1.890  13.236 -0.1002  0.7382 -1.4528
18565TIP3    H277111   5.157   1.981  13.177 -1.4213  0.6626  0.7087
18566TIP3   OH277112   0.936   5.991   2.218  0.0794  0.0370  0.0402
18566TIP3    H177113   1.003   5.999   2.286  1.2793  2.4668 -1.3633
18566TIP3    H277114   0.931   5.897   2.200  2.9739 -0.2144  0.2866
18567TIP3   OH277115   2.396   6.328  12.401  0.3368  0.2689  0.5609
18567TIP3    H177116   2.347   6.249  12.378 -0.3355  0.4898  1.2022
18567TIP3    H277117   2.414   6.319  12.495  0.1880  0.8994  0.6574
18568TIP3   OH277118   4.755   0.717  10.906 -0.2227 -0.3197 -0.5015
18568TIP3    H177119   4.782   0.625  10.904  2.0896  0.3317 -0.0850
18568TIP3    H277120   4.790   0.754  10.825 -0.2613  0.4400 -0.1730
18569TIP3   OH277121   1.379   4.346  12.357 -0.0587 -0.2841  0.0682
18569TIP3    H177122   1.431   4.267  12.341  0.3173  0.1603 -0.9074
18569TIP3    H277123   1.419   4.413  12.301 -0.3599  0.6074  0.9084
18570TIP3   OH277124   6.763   4.241   1.095  0.1123 -0.2586 -0.5249
18570TIP3    H177125   6.722   4.195   1.022  1.2607 -1.5939 -0.3442
18570TIP3    H277126   6.743   4.187   1.172  1.5088 -0.5153 -0.3218
18571TIP3   OH277127   1.179   2.431   5.194  0.9195 -0.0279  0.2038
18571TIP3    H177128   1.105   2.486   5.218  0.5713  0.4653 -1.8887
18571TIP3    H277129   1.144   2.342   5.193  1.2358 -0.2313  2.5809
18572TIP3   OH277130   5.893   2.144   3.462  1.2029  0.1455  0.3124
18572TIP3    H177131   5.929   2.127   3.375  2.0097  0.8833  0.4959
18572TIP3    H277132   5.966   2.183   3.511  0.4583  0.6541  1.0167
18573TIP3   OH277133   6.526   5.966   0.068 -0.8396 -0.2665 -0.1655
18573TIP3    H177134   6.456   6.031   0.058 -1.6127 -0.9760  0.5877
18573TIP3    H277135   6.564   5.958  -0.019 -0.5384  1.4143 -0.2111
18574TIP3   OH277136   2.898   4.689   0.642  0.1208  0.1690  0.6271
18574TIP3    H177137   2.898   4.724   0.553 -1.0826 -1.1280  0.0946
18574TIP3    H277138   2.989   4.664   0.658  0.2405 -0.0690 -0.4297
18575TIP3   OH277139   0.004   5.193   4.511 -0.2678  0.2335 -0.6052
18575TIP3    H177140   0.020   5.278   4.553  0.8624 -0.7808  1.0517
18575TIP3    H277141   0.081   5.180   4.454 -0.7309  0.5704 -1.3260
18576TIP3   OH277142   3.120   1.393  11.599 -0.1016  0.2999 -0.1658
18576TIP3    H177143   3.045   1.350  11.641  1.5130 -0.3980  2.0769
18576TIP3    H277144   3.082   1.438  11.523 -2.5671 -1.1568  0.1561
18577TIP3   OH277145   6.118   5.076  10.891 -0.2451 -0.2393  0.4020
18577TIP3    H177146   6.136   5.079  10.797  0.8125 -1.2658  0.5722
18577TIP3    H277147   6.203   5.062  10.932 -0.7062  0.1773  1.5195
18578TIP3   OH277148   6.727   6.630  16.196 -0.3019 -0.1276  0.1974
18578TIP3    H177149   6.706   6.598  16.108 -2.6718  0.7155  0.4244
18578TIP3    H277150   6.811   6.590  16.216  0.4561 -0.0828 -2.5946
18579TIP3   OH277151   4.859   3.026   5.284  0.0312  0.0486  0.0284
18579TIP3    H177152   4.856   3.039   5.378 -0.4984 -0.8481  0.1432
18579TIP3    H277153   4.951   3.042   5.260  0.4147 -0.8663  0.8654
18580TIP3   OH277154   4.891   3.231   6.101  0.3634  0.2436 -0.1988
18580TIP3    H177155   4.868   3.319   6.071 -0.3276  0.1392  0.0085
18580TIP3    H277156   4.938   3.244   6.183 -0.1919  0.3984  0.0983
18581TIP3   OH277157   0.485   3.512   4.975 -0.2319  0.3455  0.4826
18581TIP3    H177158   0.437   3.556   5.045  1.9590  0.6875  1.8213
18581TIP3    H277159   0.524   3.582   4.924 -1.2613  0.0754 -0.6931
18582TIP3   OH277160   2.548   0.087  15.824  0.6499  0.3772  0.3074
18582TIP3    H177161   2.534   0.007  15.874 -0.5024 -0.0125 -0.6156
18582TIP3    H277162   2.608   0.060  15.754 -0.6326  0.0304 -0.6767
18583TIP3   OH277163   5.703   4.327  13.872  0.1920 -0.2251  0.2024
18583TIP3    H177164   5.635   4.376  13.827  0.0740 -0.5433  0.0285
18583TIP3    H277165   5.771   4.392  13.891  0.5472 -0.2068 -1.0590
18584TIP3   OH277166   2.344   1.812  12.981 -0.1387 -0.1823  0.4752
18584TIP3    H177167   2.347   1.734  13.038 -0.4566 -0.1138  0.5840
18584TIP3    H277168   2.432   1.848  12.986 -0.3813  0.2630  1.5395
18585TIP3   OH277169   3.868   6.236  15.265 -0.4711 -0.0788 -0.3946
18585TIP3    H177170   3.953   6.241  15.222  0.8613 -0.2870  2.1550
18585TIP3    H277171   3.876   6.291  15.343 -3.3061  1.4570 -1.0861
18586TIP3   OH277172   2.330   1.726  12.488  0.2697  0.2977  0.0393
18586TIP3    H177173   2.310   1.716  12.581 -0.8605  1.2884 -0.0837
18586TIP3    H277174   2.356   1.818  12.480  2.2438 -0.2844 -0.2923
18587TIP3   OH277175   2.709   4.205  17.197 -0.2534  0.0850  0.1232
18587TIP3    H177176   2.781   4.211  17.133  0.5833 -0.2726  1.0219
18587TIP3    H277177   2.631   4.191  17.143  0.3211  0.6634 -0.8802
18588TIP3   OH277178   1.261   6.378   0.916 -0.0871  0.0371 -0.5504
18588TIP3    H177179   1.291   6.460   0.955  1.6229  0.3898 -2.5509
18588TIP3    H277180   1.247   6.320   0.991  0.6291  1.5102  0.7557
18589TIP3   OH277181   1.251   5.551  14.915  0.4929 -0.2377  0.1590
18589TIP3    H177182   1.190   5.601  14.860 -0.0959  0.2106  1.1937
18589TIP3    H277183   1.273   5.475  14.862  0.1976  0.3517 -0.8330
18590TIP3   OH277184   3.388   3.058   4.435  0.3972 -0.5194  0.0938
18590TIP3    H177185   3.302   3.034   4.402  0.8259 -0.5668 -0.9857
18590TIP3    H277186   3.412   2.986   4.494  0.0016 -0.8289 -0.1198
18591TIP3   OH277187   4.453   6.026   0.553 -0.6229 -0.4037 -0.4307
18591TIP3    H177188   4.453   6.066   0.467 -1.8263  0.5432 -0.0064
18591TIP3    H277189   4.369   6.052   0.592  0.8442  1.1042  1.8887
18592TIP3   OH277190   3.220   4.366   2.771  0.0332 -0.0418  0.2862
18592TIP3    H177191   3.316   4.361   2.776  0.0751 -1.3900 -1.2833
18592TIP3    H277192   3.194   4.279   2.739 -1.9055 -0.5422  3.0509
18593TIP3   OH277193   2.555   5.788  16.531 -0.4996  0.0356 -0.0516
18593TIP3    H177194   2.642   5.761  16.560 -0.1171 -0.9758 -2.0362
18593TIP3    H277195   2.496   5.752  16.598  0.5433  0.1997  0.9803
18594TIP3   OH277196   0.597   0.870  12.470 -0.3871  0.5275 -0.2272
18594TIP3    H177197   0.667   0.827  12.517 -1.1778 -0.7887 -0.2465
18594TIP3    H277198   0.642   0.927  12.407  0.6587  1.3180  1.2119
18595TIP3   OH277199   6.198   3.720   6.327 -0.0536  0.0957 -0.0163
18595TIP3    H177200   6.124   3.677   6.285 -0.0513 -0.7145  0.7930
18595TIP3    H277201   6.250   3.648   6.363  0.7136  0.7016  0.0971
18596TIP3   OH277202   0.209   0.060   5.571 -0.6723  0.0608  0.1377
18596TIP3    H177203   0.237  -0.010   5.630  0.7215  1.5954  1.3395
18596TIP3    H277204   0.285   0.075   5.515 -0.6107  1.2661  0.5307
18597TIP3   OH277205   4.269   2.248   0.393 -0.0513  0.3290  0.0987
18597TIP3    H177206   4.261   2.298   0.311  0.8725 -3.0951 -2.1488
18597TIP3    H277207   4.350   2.280   0.432 -1.3808  3.2537  0.6593
18598TIP3   OH277208   1.783   1.303  16.824 -0.1722 -0.0188 -0.0606
18598TIP3    H177209   1.702   1.354  16.830 -0.0924  0.2932 -1.4106
18598TIP3    H277210   1.781   1.267  16.736  0.5821 -1.0094  0.3255
18599TIP3   OH277211   1.398   5.149  15.784  0.5546 -0.3433 -0.3573
18599TIP3    H177212   1.352   5.186  15.860  0.1250 -0.0290 -0.7664
18599TIP3    H277213   1.391   5.217  15.717  2.5155  0.1546 -0.1032
18600TIP3   OH277214   2.584   5.607   6.094  0.1936 -0.5702 -0.4916
18600TIP3    H177215   2.589   5.511   6.095  1.3951 -0.5193  1.5273
18600TIP3    H277216   2.562   5.630   6.185 -1.3253  1.0146 -1.2397
18601TIP3   OH277217   5.422   6.734   5.743 -0.6884  0.0419  0.0594
18601TIP3    H177218   5.423   6.644   5.711  0.1089 -0.5794  1.7668
18601TIP3    H277219   5.506   6.771   5.715 -0.6413 -0.0220  0.1162
18602TIP3   OH277220   2.505   5.116  15.140  0.5316 -0.1239 -0.1372
18602TIP3    H177221   2.526   5.101  15.232  2.1023 -0.9581 -0.6158
18602TIP3    H277222   2.412   5.141  15.140  0.7776  0.8579  1.7585
18603TIP3   OH277223   0.748   4.096  11.375 -0.1397 -0.1970  0.1047
18603TIP3    H177224   0.661   4.126  11.398 -1.2508 -1.1293 -2.6244
18603TIP3    H277225   0.742   4.000  11.374  1.0818 -0.2915  0.5505
18604TIP3   OH277226   0.155   2.311  14.363  0.3963  0.3222  0.6218
18604TIP3    H177227   0.193   2.254  14.297 -0.8008 -0.4771  0.6004
18604TIP3    H277228   0.093   2.365  14.315 -2.2187 -1.8602  1.3941
18605TIP3   OH277229   1.638   5.751  11.457 -0.6364  0.5555  0.3847
18605TIP3    H177230   1.643   5.835  11.502  1.6061  0.0999  1.0679
18605TIP3    H277231   1.683   5.766  11.374  0.1890 -0.0732  0.7073
18606TIP3   OH277232   0.022   0.958   1.953  0.0255  0.3838 -0.2555
18606TIP3    H177233  -0.051   0.931   2.008 -0.0211 -0.1077 -0.5571
18606TIP3    H277234   0.058   0.876   1.918  2.4797  0.3782  2.0873
18607TIP3   OH277235   0.844   5.798  15.743  0.1419 -0.2358 -0.0682
18607TIP3    H177236   0.778   5.765  15.804  0.7210 -1.7969 -0.2851
18607TIP3    H277237   0.926   5.794  15.793  0.2264  0.9521 -0.0765
18608TIP3   OH277238   0.206   3.033   2.730 -0.8830  0.1122  0.6259
18608TIP3    H177239   0.124   3.007   2.687  0.3288 -0.1978 -1.5626
18608TIP3    H277240   0.262   2.955   2.723 -0.7972 -0.1010  3.2116
18609TIP3   OH277241   2.167   6.624   2.405  0.2611 -0.3284  0.0556
18609TIP3    H177242   2.255   6.655   2.426 -0.6290  0.6530  2.6029
18609TIP3    H277243   2.165   6.619   2.310  1.2969  5.1968 -0.4445
18610TIP3   OH277244   0.332   0.470   5.398  0.7515  0.3776 -0.1358
18610TIP3    H177245   0.283   0.479   5.316  1.4057  0.7839 -0.4795
18610TIP3    H277246   0.290   0.396   5.442 -0.3110  0.8503 -0.3339
18611TIP3   OH277247   2.788   2.182   4.636 -0.0740  0.0069 -0.1114
18611TIP3    H177248   2.849   2.128   4.685  0.9769  0.3912 -0.9927
18611TIP3    H277249   2.830   2.197   4.552 -1.5615 -0.0706 -0.8883
18612TIP3   OH277250   2.495   4.568   3.104 -0.2947 -0.3105 -0.2880
18612TIP3    H177251   2.419   4.626   3.099  0.3029  0.5204  0.1539
18612TIP3    H277252   2.486   4.524   3.189 -0.2830 -0.2080 -0.2328
18613TIP3   OH277253   1.756   2.514   4.368  0.2729 -0.1192  0.7333
18613TIP3    H177254   1.671   2.558   4.375  1.2808  1.9136  0.4998
18613TIP3    H277255   1.783   2.500   4.459  0.5862  1.0320  0.8240
18614TIP3   OH277256   1.610   6.218  13.340 -0.1283 -0.3751 -0.6372
18614TIP3    H177257   1.599   6.140  13.287  0.1882  0.3661 -1.8096
18614TIP3    H277258   1.626   6.185  13.429 -1.6217 -1.6079 -0.8011
18615TIP3   OH277259   0.407   0.382   0.388  0.3445 -0.1701 -0.1288
18615TIP3    H177260   0.429   0.429   0.308  0.5327  2.0285  1.1537
18615TIP3    H277261   0.381   0.451   0.449  0.6676 -1.7512  1.8466
18616TIP3   OH277262   5.893   3.719  11.377  0.0368 -0.1754 -0.0841
18616TIP3    H177263   5.911   3.632  11.341 -1.7228  0.2153 -1.9410
18616TIP3    H277264   5.803   3.714  11.408  0.4811  0.4919  1.3560
18617TIP3   OH277265   3.634   0.412  11.354  0.2229 -0.2086 -0.3466
18617TIP3    H177266   3.549   0.456  11.343  0.2853 -0.1964 -0.7930
18617TIP3    H277267   3.653   0.376  11.268  0.3901 -0.7250 -0.0935
18618TIP3   OH277268   2.287   0.471  14.288 -0.8084  0.1350 -0.2353
18618TIP3    H177269   2.221   0.401  14.287  2.6978 -3.3222 -0.4096
18618TIP3    H277270   2.325   0.466  14.376 -0.6626  2.0178 -0.1769
18619TIP3   OH277271   3.257   2.943   4.976 -0.1804  0.1054  0.0676
18619TIP3    H177272   3.186   2.977   4.921  0.4839  0.5887 -0.4916
18619TIP3    H277273   3.219   2.939   5.064 -0.4385  1.8358  0.0636
18620TIP3   OH277274   0.177   5.584  11.102 -0.0695 -0.4248 -0.4716
18620TIP3    H177275   0.238   5.515  11.075  0.9233  0.2695 -0.0226
18620TIP3    H277276   0.218   5.665  11.071 -1.8351 -0.1209 -2.1215
18621TIP3   OH277277   0.241   4.064  12.401 -0.8612  0.1350  0.2904
18621TIP3    H177278   0.230   4.075  12.307  1.4612  1.7335  0.1778
18621TIP3    H277279   0.174   4.121  12.440  0.0157  1.6472 -0.3953
18622TIP3   OH277280   0.931   4.144  17.176 -0.2749 -0.0184 -0.2823
18622TIP3    H177281   0.886   4.204  17.118 -1.7493 -0.7585  0.0841
18622TIP3    H277282   0.936   4.191  17.260  1.1178  0.7171 -0.7616
18623TIP3   OH277283   5.383   2.922  16.161  0.4075 -0.2463 -0.5017
18623TIP3    H177284   5.332   2.941  16.082 -2.1819  0.0099  1.1440
18623TIP3    H277285   5.364   2.996  16.219  4.3240  0.9062 -0.5359
18624TIP3   OH277286   0.630   1.588  17.167  0.7703  0.2091  0.0805
18624TIP3    H177287   0.547   1.544  17.153  0.5895  0.4169  0.4827
18624TIP3    H277288   0.696   1.519  17.158  0.4402 -0.3251  1.5299
18625TIP3   OH277289   0.072   3.573   2.405 -0.1744  0.7141 -0.4554
18625TIP3    H177290   0.079   3.596   2.312  1.4051  0.3349 -0.4435
18625TIP3    H277291   0.161   3.553   2.432 -0.5635  1.1681  1.2535
18626TIP3   OH277292   5.396   2.475   5.240 -0.3471  0.0323  0.5463
18626TIP3    H177293   5.313   2.472   5.194 -0.2944  1.5411  0.3043
18626TIP3    H277294   5.450   2.408   5.198 -1.0599 -0.1496 -0.0780
18627TIP3   OH277295   4.204   6.751   1.836 -0.4677  0.2908 -0.5070
18627TIP3    H177296   4.193   6.745   1.741 -0.8844  0.1010 -0.4474
18627TIP3    H277297   4.291   6.789   1.848 -0.9730  1.6242 -0.9820
18628TIP3   OH277298   2.083   2.382   3.996 -0.1132  0.4834  0.2806
18628TIP3    H177299   2.008   2.442   4.001  0.0625  0.6775  0.6041
18628TIP3    H277300   2.123   2.386   4.083 -0.1250 -0.1394  0.3172
18629TIP3   OH277301   2.163   1.383   5.533 -0.0674  0.3620 -0.0792
18629TIP3    H177302   2.204   1.350   5.613 -0.6348  1.9071  0.8921
18629TIP3    H277303   2.108   1.311   5.502  1.0836 -0.6674  0.2573
18630TIP3   OH277304   0.394   1.430  17.175  0.3860  0.2081  0.5115
18630TIP3    H177305   0.303   1.410  17.156  0.2125  1.1812  0.3072
18630TIP3    H277306   0.439   1.345  17.171 -0.9071 -0.6475  2.9664
18631TIP3   OH277307   0.958   3.686  16.426 -0.1293 -0.1395  0.1319
18631TIP3    H177308   0.984   3.767  16.381 -0.2896 -1.3388 -2.1746
18631TIP3    H277309   0.891   3.714  16.488 -1.0561  1.3253 -1.4816
18632TIP3   OH277310   3.422   2.143  13.493 -0.6028  0.6854 -0.0854
18632TIP3    H177311   3.360   2.088  13.445 -1.5690  0.2658  1.6285
18632TIP3    H277312   3.399   2.132  13.585  0.7819  2.0368  0.4541
18633TIP3   OH277313   1.954   1.977  13.573  0.2147 -0.4328 -0.1669
18633TIP3    H177314   1.949   1.924  13.653  1.7696  1.7790  1.4500
18633TIP3    H277315   2.041   2.016  13.575 -0.7026  1.7819 -1.5500
18634TIP3   OH277316   3.266   2.551  13.203  0.0562 -0.6904  0.0400
18634TIP3    H177317   3.209   2.564  13.278  1.7840  3.3799  0.7706
18634TIP3    H277318   3.347   2.515  13.240  0.1354 -0.7326 -0.1738
18635TIP3   OH277319   1.889   2.661   1.621  0.0908 -0.4347  0.0727
18635TIP3    H177320   1.968   2.705   1.591 -0.1845  1.2219  1.6843
18635TIP3    H277321   1.920   2.585   1.670  0.7429  0.7364  1.5203
18636TIP3   OH277322   6.705   5.061  16.123  0.6241 -0.0158 -0.5133
18636TIP3    H177323   6.641   5.044  16.054 -0.1030  1.7496 -0.3020
18636TIP3    H277324   6.660   5.037  16.204  0.7490 -0.1543 -0.4858
18637TIP3   OH277325   5.950   5.892   2.122  0.0423 -0.1996  0.1336
18637TIP3    H177326   5.961   5.987   2.135  0.0230  0.1530 -2.2418
18637TIP3    H277327   5.896   5.885   2.043 -1.4623 -2.1836  1.3025
18638TIP3   OH277328   1.619   4.149  11.384  0.2976  0.0430 -0.2204
18638TIP3    H177329   1.525   4.146  11.370  0.1148  2.5591  0.2319
18638TIP3    H277330   1.656   4.153  11.296 -0.1664  1.4800 -0.3723
18639TIP3   OH277331   3.113   5.024  16.813  0.2630  0.0743  0.0101
18639TIP3    H177332   3.066   4.973  16.879 -0.6103 -0.7167 -1.1889
18639TIP3    H277333   3.108   5.114  16.844 -0.5178 -0.2376  0.8098
18640TIP3   OH277334   5.029   2.479  13.838  0.2281  0.2846  0.3936
18640TIP3    H177335   5.013   2.452  13.747 -0.4409  0.4442  0.4575
18640TIP3    H277336   4.946   2.461  13.883  0.1250  1.4205  0.6820
18641TIP3   OH277337   2.633   6.536   3.741  0.4003  0.1904 -0.0675
18641TIP3    H177338   2.590   6.468   3.793  2.0029 -0.3052  0.6458
18641TIP3    H277339   2.615   6.512   3.650 -0.4105 -0.2614  0.2021
18642TIP3   OH277340   5.595   2.106   3.647  0.1168 -0.1124 -0.0460
18642TIP3    H177341   5.600   2.102   3.552  1.1009  2.3630 -0.1437
18642TIP3    H277342   5.674   2.062   3.677  0.1563 -0.2802 -0.3921
18643TIP3   OH277343   0.738   6.614  15.755  0.4194  0.4831 -0.1224
18643TIP3    H177344   0.832   6.635  15.753  0.3135  1.0056  0.1649
18643TIP3    H277345   0.695   6.699  15.755 -0.0491  0.2471  0.0639
18644TIP3   OH277346   3.049   3.372  15.261  0.0416  0.0450  0.4415
18644TIP3    H177347   3.001   3.355  15.180 -2.0393 -1.3628  1.9055
18644TIP3    H277348   3.080   3.286  15.288  2.1224  0.7453  0.3047
18645TIP3   OH277349   2.116   4.694   3.303  0.2161  0.2727 -1.0026
18645TIP3    H177350   2.203   4.729   3.285  0.3748  0.8504  0.7731
18645TIP3    H277351   2.059   4.771   3.308 -0.0621  0.0396 -0.4636
18646TIP3   OH277352   1.744   4.725   6.466 -0.3447  0.6665  0.3039
18646TIP3    H177353   1.679   4.658   6.486 -0.3554  0.9823  1.3682
18646TIP3    H277354   1.773   4.706   6.377 -0.5260 -0.5954  0.5173
18647TIP3   OH277355   3.553   4.162  12.668 -0.4772 -0.0314 -0.2960
18647TIP3    H177356   3.642   4.178  12.699 -0.2683  0.9669 -1.3970
18647TIP3    H277357   3.556   4.184  12.575 -2.5379  2.6164  0.2070
18648TIP3   OH277358   0.892   0.150   0.887 -0.1266  0.2304  0.7029
18648TIP3    H177359   0.972   0.141   0.940  0.9756  0.0344 -0.9767
18648TIP3    H277360   0.886   0.069   0.838 -0.7657  0.6971 -0.0028
18649TIP3   OH277361   0.102   2.377  13.226  0.2063 -0.3211  0.3051
18649TIP3    H177362   0.120   2.359  13.134 -1.6024  0.9121 -0.3013
18649TIP3    H277363   0.180   2.422  13.257  0.4217  0.1278 -0.8647
18650TIP3   OH277364   6.643   4.069  17.225  0.1631 -0.0592 -0.4217
18650TIP3    H177365   6.685   4.136  17.171 -2.0303  1.0816 -0.7877
18650TIP3    H277366   6.645   3.990  17.170  2.9149 -0.3880  0.0870
18651TIP3   OH277367   0.421   2.512   1.382  0.5258  0.6186  0.1025
18651TIP3    H177368   0.365   2.449   1.428 -0.0653 -0.6330 -2.2579
18651TIP3    H277369   0.509   2.489   1.409  0.2071 -0.2953  0.3846
18652TIP3   OH277370   6.177   3.030  15.297  0.1663 -0.1334  0.7875
18652TIP3    H177371   6.095   3.045  15.250  0.6206 -0.6986 -0.1855
18652TIP3    H277372   6.207   2.944  15.267  0.5775 -0.4014  1.9354
18653TIP3   OH277373   6.185   6.738  16.209  0.1193  0.2785  0.2359
18653TIP3    H177374   6.147   6.826  16.199  0.3278  0.2482 -0.9036
18653TIP3    H277375   6.272   6.745  16.169  0.0676 -0.4917 -0.0096
18654TIP3   OH277376   4.974   1.432  12.683  0.9886 -0.0674 -0.7827
18654TIP3    H177377   4.996   1.341  12.702 -1.1989 -0.3286  0.6705
18654TIP3    H277378   4.966   1.473  12.769 -3.2317  0.2063 -1.2077
18655TIP3   OH277379   6.662   4.739   3.111  0.4862 -0.7362 -0.4212
18655TIP3    H177380   6.757   4.731   3.118  0.5320 -0.2729 -0.5052
18655TIP3    H277381   6.645   4.755   3.019  0.3255 -0.7868 -0.4013
18656TIP3   OH277382   3.700   5.936   3.965 -0.7763  0.6251 -0.0806
18656TIP3    H177383   3.613   5.910   3.936 -0.8381  0.1820  0.5006
18656TIP3    H277384   3.691   5.948   4.060  0.7774 -3.5044  0.6848
18657TIP3   OH277385   1.790   1.546  11.599  0.2602  0.1233 -0.6207
18657TIP3    H177386   1.863   1.488  11.578  1.2888  0.9395  0.6562
18657TIP3    H277387   1.742   1.553  11.517  0.7397 -1.6413 -1.0828
18658TIP3   OH277388   4.007   2.679   3.577  0.4167  0.1113 -0.1266
18658TIP3    H177389   3.957   2.628   3.641  1.3759 -0.8901 -0.1573
18658TIP3    H277390   3.941   2.710   3.515 -0.5526  1.3031  1.4782
18659TIP3   OH277391   5.950   0.069   4.003 -0.5650 -0.1351 -0.1279
18659TIP3    H177392   5.998   0.151   4.018  0.5692 -0.9595  0.9432
18659TIP3    H277393   5.958   0.022   4.086 -1.0084 -1.4233 -0.8047
18660TIP3   OH277394   5.850   1.754   4.260 -0.1559 -0.3371  0.6535
18660TIP3    H177395   5.844   1.820   4.329  0.2506 -0.0986  0.4583
18660TIP3    H277396   5.793   1.683   4.290  0.2470 -0.3583  1.3740
18661TIP3   OH277397   1.504   0.187   0.147 -0.2444  0.7611 -0.3666
18661TIP3    H177398   1.473   0.210   0.234  0.1179  2.1063 -0.5783
18661TIP3    H277399   1.562   0.112   0.161 -1.4854 -0.0936  0.3368
18662TIP3   OH277400   2.228   2.317   0.661 -0.1123  0.3630  0.3589
18662TIP3    H177401   2.247   2.231   0.622 -1.1239 -0.5817  1.9234
18662TIP3    H277402   2.305   2.335   0.715 -0.6049 -0.2944  1.2832
18663TIP3   OH277403   2.493   1.749  10.496  0.2458  0.3181  0.5384
18663TIP3    H177404   2.441   1.821  10.459  1.6730  1.7069  1.1919
18663TIP3    H277405   2.529   1.705  10.419 -1.9343 -0.7065  0.0729
18664TIP3   OH277406   2.164   2.902  17.123 -0.2454  0.2938 -0.0246
18664TIP3    H177407   2.071   2.925  17.122 -0.2415  0.3101 -0.0458
18664TIP3    H277408   2.174   2.842  17.050 -0.1901  0.4930 -0.1808
18665TIP3   OH277409   0.380   4.133   0.429 -0.4375 -0.7178  0.1723
18665TIP3    H177410   0.370   4.214   0.380  0.0952 -0.3151  0.7163
18665TIP3    H277411   0.297   4.086   0.416 -1.2060  0.4347  0.8059
18666TIP3   OH277412   5.205   0.559  16.812 -0.4248  0.3485 -0.3879
18666TIP3    H177413   5.133   0.599  16.860 -1.3112  0.0696 -1.4627
18666TIP3    H277414   5.164   0.487  16.764  0.7432 -0.4116 -0.2600
18667TIP3   OH277415   2.977   0.323   6.012 -0.6755 -0.3907 -0.3984
18667TIP3    H177416   3.040   0.394   6.026  0.5628 -1.7869  1.3860
18667TIP3    H277417   2.906   0.363   5.962 -1.3046  2.7827  2.8822
18668TIP3   OH277418   1.969   0.762   1.595 -0.3022  0.4303  0.3688
18668TIP3    H177419   1.923   0.815   1.530 -0.4313 -3.0788 -2.5426
18668TIP3    H277420   1.927   0.677   1.591  1.6282 -0.7282  3.0228
18669TIP3   OH277421   5.893   3.776   1.407  0.0940  0.0520 -0.0792
18669TIP3    H177422   5.914   3.803   1.496  0.5292 -1.0451  0.1555
18669TIP3    H277423   5.951   3.828   1.352  2.8250 -2.2683  0.5167
18670TIP3   OH277424   0.874   1.886   2.599  0.3041 -0.8197  0.1656
18670TIP3    H177425   0.863   1.862   2.691  1.1572 -1.1918  0.1757
18670TIP3    H277426   0.947   1.948   2.599 -1.1540  0.9370  0.0050
18671TIP3   OH277427   5.725   1.121   4.453  0.1921 -0.8336 -0.2382
18671TIP3    H177428   5.673   1.078   4.385 -0.9206 -2.2213  1.4343
18671TIP3    H277429   5.815   1.094   4.435 -0.4550 -3.9064  0.7177
18672TIP3   OH277430   5.803   6.017  12.339  0.0408  0.0242  0.2255
18672TIP3    H177431   5.727   6.072  12.359  0.3895 -0.0609  1.8074
18672TIP3    H277432   5.765   5.932  12.318 -0.4853  0.7692 -1.9927
18673TIP3   OH277433   2.102   1.202   3.389 -0.0524  0.5533 -0.0480
18673TIP3    H177434   2.156   1.242   3.457 -0.9878  1.2644  0.2897
18673TIP3    H277435   2.154   1.128   3.357  1.1926  1.3460  0.1225
18674TIP3   OH277436   3.674   4.681  14.838 -0.1288  0.2192  0.2038
18674TIP3    H177437   3.640   4.713  14.922  0.9921 -0.5299  0.9523
18674TIP3    H277438   3.747   4.739  14.818  1.3887 -1.3125  1.1563
18675TIP3   OH277439   2.958   2.102  12.274  0.1292 -0.2516 -0.2277
18675TIP3    H177440   3.040   2.150  12.279 -0.1822  0.4410 -1.5325
18675TIP3    H277441   2.952   2.057  12.358  1.0630  0.9629  0.5239
18676TIP3   OH277442   2.914   2.688   3.967  0.5466  0.4782 -0.4485
18676TIP3    H177443   2.836   2.714   4.016  0.7045  2.8596 -1.4053
18676TIP3    H277444   2.884   2.617   3.910 -0.3352 -0.2406  0.8691
18677TIP3   OH277445   6.206   0.013  12.453 -0.0117  0.0655 -0.0068
18677TIP3    H177446   6.301   0.024  12.453  0.0832 -0.6964  0.1163
18677TIP3    H277447   6.173   0.088  12.404  0.4589  1.9655  2.4722
18678TIP3   OH277448   0.412   6.586  17.101 -0.5698 -0.0427 -0.3100
18678TIP3    H177449   0.368   6.665  17.072 -0.8424 -0.1274 -0.1258
18678TIP3    H277450   0.496   6.616  17.136 -0.8843  0.2158  0.2209
18679TIP3   OH277451   5.894   6.212   1.418 -0.7637 -0.5459  0.1057
18679TIP3    H177452   5.892   6.134   1.362 -0.3864 -0.0817 -0.5645
18679TIP3    H277453   5.986   6.240   1.417 -0.7977 -0.4070  0.7813
18680TIP3   OH277454   1.602   2.964   3.722  0.3947 -0.6171  0.1291
18680TIP3    H177455   1.612   3.041   3.778 -0.5811 -0.2525 -0.1824
18680TIP3    H277456   1.569   2.895   3.780 -1.2880 -0.0428 -0.1173
18681TIP3   OH277457   2.637   0.778   5.684 -0.1032  0.0650  0.2166
18681TIP3    H177458   2.668   0.807   5.770 -1.2910  0.5914  0.4841
18681TIP3    H277459   2.544   0.758   5.698 -0.3028  0.1540 -0.9401
18682TIP3   OH277460   2.184   3.914  15.904  0.1282  0.1499  0.0452
18682TIP3    H177461   2.268   3.899  15.860  0.2225 -1.5044  0.7707
18682TIP3    H277462   2.120   3.870  15.849 -0.0748  0.1160  0.3088
18683TIP3   OH277463   4.115   1.669   4.302  0.6920  0.4882  0.1094
18683TIP3    H177464   4.104   1.579   4.271 -0.7385  0.9931 -0.9722
18683TIP3    H277465   4.126   1.661   4.396  2.5671 -0.9460 -0.2100
18684TIP3   OH277466   5.426   1.334  11.313 -0.0502  0.3509  0.2565
18684TIP3    H177467   5.384   1.399  11.369  0.4582 -1.2607  2.6416
18684TIP3    H277468   5.514   1.367  11.300 -0.8084  1.7835 -1.4166
18685TIP3   OH277469   5.809   4.143   2.129  0.1886  0.0968 -0.2174
18685TIP3    H177470   5.716   4.163   2.138  0.0125 -0.1611 -1.3091
18685TIP3    H277471   5.823   4.065   2.182  0.0465  0.8398  0.9254
18686TIP3   OH277472   5.179   0.461  14.797 -0.2140  0.3971  0.9744
18686TIP3    H177473   5.130   0.477  14.716  0.4820 -0.8175  0.2960
18686TIP3    H277474   5.138   0.519  14.862 -0.0815  2.1540 -0.5001
18687TIP3   OH277475   3.983   5.820   3.560 -0.3288 -0.3075 -0.3150
18687TIP3    H177476   3.887   5.822   3.566 -0.2598  0.0533  0.9911
18687TIP3    H277477   4.008   5.912   3.554 -0.1077 -0.4459 -1.4495
18688TIP3   OH277478   4.171   5.862   4.022 -0.0086 -0.1739 -1.2162
18688TIP3    H177479   4.248   5.914   4.000 -0.2398  0.8605  0.3804
18688TIP3    H277480   4.097   5.922   4.008 -0.1666  0.6156  2.4657
18689TIP3   OH277481   6.375   0.009  13.501  0.4842  0.0302  0.3635
18689TIP3    H177482   6.463   0.003  13.537 -0.2932  1.0860  2.5302
18689TIP3    H277483   6.352  -0.082  13.478  1.7231 -0.3859  0.7353
18690TIP3   OH277484   4.699   4.714   2.329 -0.1846  0.0112  0.4157
18690TIP3    H177485   4.632   4.753   2.273 -0.3288 -1.3371 -0.3707
18690TIP3    H277486   4.772   4.695   2.269  1.2738  2.2904  1.4151
18691TIP3   OH277487   3.011   1.478   5.626  0.1405 -0.0648  0.0097
18691TIP3    H177488   2.986   1.408   5.566  0.8498 -0.8071  0.5711
18691TIP3    H277489   2.972   1.453   5.710  1.8576 -0.7066  0.6412
18692TIP3   OH277490   5.691   0.403  15.141  0.2219  0.4702 -0.2773
18692TIP3    H177491   5.634   0.456  15.086 -0.2787  0.2018 -0.0138
18692TIP3    H277492   5.714   0.327  15.087 -0.6115 -0.0056  0.0319
18693TIP3   OH277493   2.471   6.099  12.151 -0.7992  0.5998 -0.6899
18693TIP3    H177494   2.420   6.033  12.198  1.1189  0.6384  1.5002
18693TIP3    H277495   2.409   6.169  12.133 -2.0911 -0.4083 -0.2163
18694TIP3   OH277496   3.441   0.587   4.858 -0.0903  0.3894 -0.1728
18694TIP3    H177497   3.375   0.570   4.925  2.4670 -2.1536  1.8054
18694TIP3    H277498   3.424   0.523   4.789  0.9492 -1.0310  0.8608
18695TIP3   OH277499   6.044   1.611   4.151 -0.1822 -0.0861  0.1606
18695TIP3    H177500   5.998   1.686   4.187  0.1472 -0.4254  1.3196
18695TIP3    H277501   5.986   1.577   4.082 -1.1601  0.1335  0.8699
18696TIP3   OH277502   4.041   6.275   3.232 -0.4304  0.2317  0.0115
18696TIP3    H177503   4.124   6.297   3.275 -1.5901  1.7453  1.5682
18696TIP3    H277504   4.045   6.180   3.220  0.6677 -0.0097  1.9675
18697TIP3   OH277505   4.320   2.325   3.493  0.2391 -0.6784  0.0409
18697TIP3    H177506   4.391   2.286   3.545  0.3565 -0.2668  0.1937
18697TIP3    H277507   4.311   2.267   3.417  0.8336 -0.6604 -0.0482
18698TIP3   OH277508   1.498   6.769   5.710 -0.1818 -0.9528 -0.2273
18698TIP3    H177509   1.562   6.716   5.758  0.4574  0.4842  0.5297
18698TIP3    H277510   1.422   6.773   5.769  0.6250  0.8620  0.7464
18699TIP3   OH277511   4.743   0.948   4.265  0.0742 -0.1357  0.1513
18699TIP3    H177512   4.805   0.992   4.206  0.7669 -0.6653  0.4680
18699TIP3    H277513   4.672   1.010   4.276 -1.3410 -1.0439 -3.3113
18700TIP3   OH277514   0.030   4.010   5.580 -0.7422  0.3149 -0.1491
18700TIP3    H177515   0.100   4.074   5.567  0.6110 -0.2874  3.4831
18700TIP3    H277516   0.069   3.927   5.555 -0.7468  0.2045  0.2155
18701TIP3   OH277517   5.646   3.849   3.866  0.1213  0.6159 -0.8810
18701TIP3    H177518   5.680   3.830   3.778 -0.8083 -1.1750 -0.8784
18701TIP3    H277519   5.646   3.945   3.871  2.7765  0.7065 -1.7938
18702TIP3   OH277520   4.971   1.304   4.498 -0.2858 -0.5144 -0.0481
18702TIP3    H177521   4.958   1.210   4.487 -2.0588 -0.2207 -0.6137
18702TIP3    H277522   4.956   1.320   4.591 -1.1474 -0.6309 -0.1616
18703TIP3   OH277523   3.375   5.834  16.249  0.3389  0.1208  0.0771
18703TIP3    H177524   3.349   5.844  16.340  0.9118  1.3796  0.1112
18703TIP3    H277525   3.311   5.772  16.213 -0.4178  0.2846  1.1000
18704TIP3   OH277526   4.305   0.120  16.634  0.4903  0.1253 -0.2048
18704TIP3    H177527   4.274   0.203  16.599 -0.1730 -0.4330 -0.9546
18704TIP3    H277528   4.369   0.144  16.701 -1.3992  1.2972  1.2142
18705TIP3   OH277529   0.533   3.776  13.389 -0.2841 -0.0616  0.3574
18705TIP3    H177530   0.580   3.695  13.369 -1.5528 -0.7214 -0.0031
18705TIP3    H277531   0.554   3.834  13.315  0.5608 -0.0765  0.5740
18706TIP3   OH277532   4.711   1.973   3.742  0.5350 -0.9740  0.0951
18706TIP3    H177533   4.626   2.002   3.710 -0.3375 -2.0387  1.3817
18706TIP3    H277534   4.695   1.884   3.774  2.1007 -1.1219  0.4842
18707TIP3   OH277535   3.350   3.521   1.964 -0.5562 -0.2133 -0.2759
18707TIP3    H177536   3.394   3.565   2.036 -0.4107 -0.6250 -0.1146
18707TIP3    H277537   3.380   3.430   1.968 -1.3062 -0.4657 -0.2485
18708TIP3   OH277538   4.122   0.087   2.997 -0.1690 -0.3510 -0.4438
18708TIP3    H177539   4.067   0.009   2.992 -0.3232 -0.2557 -0.2292
18708TIP3    H277540   4.119   0.123   2.908  0.7964 -1.1908 -0.8295
18709TIP3   OH277541   5.942   0.258  13.472  0.3034 -0.5351  0.2867
18709TIP3    H177542   5.910   0.309  13.547 -0.0776 -0.6192  0.1854
18709TIP3    H277543   5.906   0.304  13.396 -0.9446 -1.5625  0.2331
18710TIP3   OH277544   1.607   2.232   2.016  0.0741 -0.0252 -0.3533
18710TIP3    H177545   1.620   2.289   2.092 -0.4386  0.0656 -0.3363
18710TIP3    H277546   1.544   2.166   2.046 -0.5541  0.3325 -0.8737
18711TIP3   OH277547   5.083   5.367  13.279 -0.3288 -0.2540 -0.3832
18711TIP3    H177548   5.115   5.279  13.259 -1.8733 -0.5407 -1.6802
18711TIP3    H277549   5.051   5.401  13.195 -0.1674  1.3620  0.1980
18712TIP3   OH277550   5.119   1.644   4.625 -0.3178  0.2293  0.8242
18712TIP3    H177551   5.153   1.723   4.666 -0.4564 -0.6182  2.6547
18712TIP3    H277552   5.024   1.650   4.637 -0.5119  0.8099 -0.9506
18713TIP3   OH277553   6.769   1.267  13.228 -0.3322  0.4112  0.1638
18713TIP3    H177554   6.732   1.314  13.153 -1.2352 -0.7334 -0.1307
18713TIP3    H277555   6.784   1.178  13.195  0.8498  0.3399  0.8657
18714TIP3   OH277556   2.718   0.089  14.234 -0.1828 -0.1672 -0.3685
18714TIP3    H177557   2.754   0.001  14.246 -0.1330 -0.1008 -0.0396
18714TIP3    H277558   2.691   0.091  14.142  0.0068 -0.4551 -0.4316
18715TIP3   OH277559   3.835   5.194  15.214  0.1741 -0.3187  0.3114
18715TIP3    H177560   3.912   5.227  15.259  0.2042  1.0368 -0.7171
18715TIP3    H277561   3.867   5.167  15.128 -0.5702  0.6878 -0.2934
18716TIP3   OH277562   4.106   1.306   3.794 -0.3852  0.0944 -0.2088
18716TIP3    H177563   4.152   1.341   3.718 -1.9788  0.6751 -0.9165
18716TIP3    H277564   4.081   1.383   3.845 -0.1908 -0.2438  0.4131
18717TIP3   OH277565   3.064   2.194  14.034  0.2739 -0.3814 -0.5053
18717TIP3    H177566   3.158   2.205  14.051  0.2801 -1.6878  0.4079
18717TIP3    H277567   3.039   2.120  14.090 -1.5386  0.6679  0.0862
18718TIP3   OH277568   4.403   6.560  12.439 -0.8895  0.3834 -0.3063
18718TIP3    H177569   4.454   6.484  12.410 -2.5609 -0.4751 -1.0215
18718TIP3    H277570   4.356   6.589  12.360  0.2750  2.6233 -0.2325
18719TIP3   OH277571   0.476   1.484  16.784  0.0326  0.6906  0.1804
18719TIP3    H177572   0.547   1.542  16.811  0.8894 -0.3496  0.2053
18719TIP3    H277573   0.503   1.397  16.816 -0.8092  0.1279 -0.6186
18720TIP3   OH277574   4.308   1.384   3.055  0.0188 -0.1598 -0.6100
18720TIP3    H177575   4.312   1.288   3.049  4.7422 -0.0999  0.0007
18720TIP3    H277576   4.343   1.415   2.972 -1.9844  1.0849 -1.0155
18721TIP3   OH277577   1.436   5.136  11.705 -0.0403  0.0279 -0.5181
18721TIP3    H177578   1.358   5.095  11.742  1.2293 -1.6328  0.4108
18721TIP3    H277579   1.451   5.213  11.758  0.2252 -0.8830  0.7480
18722TIP3   OH277580   3.331   4.314  12.254 -0.1097  0.6243  0.3393
18722TIP3    H177581   3.245   4.274  12.240  0.7918 -0.9985 -0.7668
18722TIP3    H277582   3.360   4.340  12.166  0.7757  0.5891  0.6119
18723TIP3   OH277583   2.781   2.737  13.080 -0.0618  0.5168  0.5065
18723TIP3    H177584   2.848   2.668  13.076 -0.8557 -0.2071 -0.9375
18723TIP3    H277585   2.741   2.728  13.166 -0.9217 -1.6020 -0.0824
18724TIP3   OH277586   2.798   1.382   1.759  0.3377  0.0197  0.3797
18724TIP3    H177587   2.744   1.461   1.754 -0.1728 -0.3291  0.4813
18724TIP3    H277588   2.755   1.319   1.702  0.7155 -0.2084  0.3441
18725TIP3   OH277589   1.525   5.141   5.786 -0.2279  0.2308  0.2915
18725TIP3    H177590   1.497   5.120   5.697  1.1618  0.2713 -0.1662
18725TIP3    H277591   1.614   5.176   5.775 -0.7040  1.8545  1.5176
18726TIP3   OH277592   3.867   5.781  15.833  0.0101 -0.2136 -0.3122
18726TIP3    H177593   3.835   5.724  15.903  1.1954 -2.8247 -1.8045
18726TIP3    H277594   3.948   5.818  15.867  1.0335 -2.1506 -0.5737
18727TIP3   OH277595   4.027   3.501  13.013 -0.3213  0.2944 -0.0947
18727TIP3    H177596   3.942   3.541  13.034 -0.0064  1.2111 -0.5075
18727TIP3    H277597   4.090   3.572  13.025  0.4529 -0.5177  0.6788
18728TIP3   OH277598   5.029   5.190   4.302  0.3164  0.0347  0.1150
18728TIP3    H177599   5.023   5.281   4.332  1.4638 -0.0844  0.7387
18728TIP3    H277600   5.105   5.155   4.349  0.1155 -1.1305 -0.4296
18729TIP3   OH277601   5.313   5.706  16.148  0.0145  0.2444  0.1079
18729TIP3    H177602   5.237   5.763  16.164 -0.4817 -0.2814 -0.3735
18729TIP3    H277603   5.347   5.687  16.236 -0.8319 -0.0962  0.3656
18730TIP3   OH277604   6.645   4.971   1.002  0.1736 -0.5975  0.7501
18730TIP3    H177605   6.597   5.000   1.079  0.4031 -0.2194  0.7511
18730TIP3    H277606   6.693   5.048   0.973 -1.6214 -0.1074 -1.0555
18731TIP3   OH277607   3.731   2.261  16.640 -0.4659 -0.0639  0.4757
18731TIP3    H177608   3.636   2.271  16.644 -0.4740 -0.5187  1.6128
18731TIP3    H277609   3.746   2.167  16.651  0.1224  0.0298  0.5012
18732TIP3   OH277610   2.274   3.118  15.634  0.0718 -0.2366  0.7518
18732TIP3    H177611   2.238   3.033  15.661 -2.6075  1.0256  1.3614
18732TIP3    H277612   2.318   3.151  15.712  1.4784 -1.2301  0.3925
18733TIP3   OH277613   3.743   5.941   5.375 -0.3121  0.6210 -0.1025
18733TIP3    H177614   3.667   5.938   5.316  0.1611 -0.2118 -0.6857
18733TIP3    H277615   3.789   5.859   5.357  0.7791  1.1787  0.1733
18734TIP3   OH277616   3.730   2.888  17.180  0.8870 -0.2039  0.0846
18734TIP3    H177617   3.754   2.977  17.204 -2.2210  0.2779  1.6520
18734TIP3    H277618   3.781   2.832  17.238  0.1699  0.7015  1.6034
18735TIP3   OH277619   4.231   4.889   3.165 -0.7210 -0.1146  0.6572
18735TIP3    H177620   4.203   4.799   3.186 -2.7466  0.9717  2.8918
18735TIP3    H277621   4.281   4.916   3.242 -0.3156  0.7676  0.0833
18736TIP3   OH277622   0.337   3.302   3.638 -0.1844 -0.0272  0.6238
18736TIP3    H177623   0.352   3.278   3.730 -0.9568  0.3901  0.8589
18736TIP3    H277624   0.292   3.226   3.601  1.3156 -0.7545  0.2396
18737TIP3   OH277625   5.334   1.750  12.539  0.2717 -0.1566 -0.2081
18737TIP3    H177626   5.253   1.700  12.543  0.3058 -0.2361 -0.5226
18737TIP3    H277627   5.316   1.829  12.590 -0.0420 -0.1164 -0.3811
18738TIP3   OH277628   1.948   3.730  14.396 -0.0826 -0.1445 -0.0822
18738TIP3    H177629   1.870   3.750  14.447 -1.0140  0.1473 -1.5759
18738TIP3    H277630   1.967   3.638  14.417 -0.9818 -0.2942  0.1113
18739TIP3   OH277631   4.045   5.098   1.074 -0.0255 -0.5067 -0.0503
18739TIP3    H177632   4.028   5.030   1.008 -0.7101  1.9681 -2.5125
18739TIP3    H277633   3.959   5.119   1.109  0.1684 -0.8247  0.6164
18740TIP3   OH277634   5.382   2.698  12.791 -0.1929  0.0095  0.4477
18740TIP3    H177635   5.405   2.788  12.769 -0.3320  0.0457  0.4511
18740TIP3    H277636   5.347   2.661  12.710  1.3372 -0.5247  0.0162
18741TIP3   OH277637   6.323   1.622  15.235 -0.1974  0.0975 -0.6425
18741TIP3    H177638   6.310   1.549  15.175  0.5396 -0.6069  0.0502
18741TIP3    H277639   6.305   1.586  15.322 -0.9665  1.0331 -0.4057
18742TIP3   OH277640   5.409   5.706  15.492  0.7569  0.2953  0.9738
18742TIP3    H177641   5.487   5.660  15.522  1.3979  1.2747  0.8386
18742TIP3    H277642   5.375   5.749  15.570  0.6041  0.2247  0.9453
18743TIP3   OH277643   6.086   3.886   5.244 -0.0762  0.0130 -0.2932
18743TIP3    H177644   6.130   3.943   5.181  0.1170  1.5877  1.1997
18743TIP3    H277645   6.143   3.889   5.322 -2.1464  1.0610  1.2251
18744TIP3   OH277646   1.633   2.452  11.779  0.1166  0.0620 -0.3917
18744TIP3    H177647   1.672   2.365  11.790 -1.4925 -0.9367 -2.3744
18744TIP3    H277648   1.687   2.494  11.712  0.4338  0.3398  0.0311
18745TIP3   OH277649   5.091   3.605   3.298  0.2811  0.5082 -0.7402
18745TIP3    H177650   5.172   3.655   3.301  0.2448  0.5982 -1.1624
18745TIP3    H277651   5.036   3.652   3.235  0.5520 -0.5077 -1.7627
18746TIP3   OH277652   3.801   4.369   6.446  0.4973  0.3845 -0.0856
18746TIP3    H177653   3.872   4.417   6.404  0.2397  0.7134 -0.1458
18746TIP3    H277654   3.784   4.295   6.388  1.1442  0.0148  0.1945
18747TIP3   OH277655   0.533   1.628  11.919 -0.0667 -0.0313  0.4694
18747TIP3    H177656   0.582   1.547  11.927 -0.9289 -0.4281  1.8760
18747TIP3    H277657   0.599   1.697  11.914  0.6652 -0.8009 -0.5744
18748TIP3   OH277658   3.706   4.282   1.312 -0.0147  0.0192  0.8858
18748TIP3    H177659   3.717   4.303   1.405  0.6261 -0.8650  1.0204
18748TIP3    H277660   3.706   4.186   1.309 -0.2568  0.0453  0.0034
18749TIP3   OH277661   0.599   3.756  13.698  0.0836 -0.2004 -0.2075
18749TIP3    H177662   0.611   3.788  13.609 -0.3033 -2.0131 -0.9409
18749TIP3    H277663   0.605   3.661  13.689 -2.0872 -0.5172  1.3749
18750TIP3   OH277664   4.285   6.257   2.282 -0.1095 -0.2110 -0.3479
18750TIP3    H177665   4.225   6.328   2.306 -0.2568 -0.8458  1.2063
18750TIP3    H277666   4.364   6.303   2.252 -0.5285  0.6157 -0.2181
18751TIP3   OH277667   3.820   4.017  16.301 -0.2163 -0.4267  0.4382
18751TIP3    H177668   3.902   3.999  16.347 -0.0951 -1.9295 -0.3158
18751TIP3    H277669   3.752   3.989  16.362 -0.1380 -0.2571  0.6054
18752TIP3   OH277670   1.906   1.281  12.723 -0.0773  0.0799 -0.4902
18752TIP3    H177671   1.972   1.320  12.780 -0.8519  0.1385  0.3883
18752TIP3    H277672   1.940   1.194  12.701  0.6242  0.3910 -0.6430
18753TIP3   OH277673   3.374   3.635   2.880 -0.2198  0.0168  0.1391
18753TIP3    H177674   3.363   3.579   2.957 -2.7766  0.5436  0.1788
18753TIP3    H277675   3.327   3.715   2.901  0.9944  1.0748 -1.0793
18754TIP3   OH277676   3.281   1.633   4.614  0.0561  0.1865  0.0438
18754TIP3    H177677   3.337   1.702   4.578 -0.1296 -0.1030 -0.8178
18754TIP3    H277678   3.301   1.556   4.561  0.6076 -0.5488  1.3043
18755TIP3   OH277679   5.080   6.413   0.581  0.4396 -0.2888  0.3584
18755TIP3    H177680   4.985   6.425   0.580  0.2555 -1.1162  3.9820
18755TIP3    H277681   5.094   6.328   0.539 -0.3494  0.0494 -0.6079
18756TIP3   OH277682   0.295   3.422   4.757 -0.2668 -0.4999 -0.3864
18756TIP3    H177683   0.201   3.439   4.761 -0.3413 -0.3405 -2.2227
18756TIP3    H277684   0.336   3.507   4.773 -0.5377  0.2984 -3.5646
18757TIP3   OH277685   4.594   0.505  15.459  0.3923 -0.3874 -0.4872
18757TIP3    H177686   4.644   0.517  15.378  1.3124 -1.0607 -0.0182
18757TIP3    H277687   4.653   0.532  15.528 -0.4595  0.3628 -0.0380
18758TIP3   OH277688   5.874   3.951  15.637 -0.0459 -0.4734  0.7696
18758TIP3    H177689   5.886   3.895  15.560 -0.0493  1.0653 -0.3653
18758TIP3    H277690   5.797   4.003  15.616  0.5538  0.6705  1.3809
18759TIP3   OH277691   3.533   6.102  14.356  0.4451 -0.5605  0.3390
18759TIP3    H177692   3.471   6.155  14.306  1.8549  0.7248 -0.0893
18759TIP3    H277693   3.479   6.060  14.423 -0.7969  1.0437  0.4008
18760TIP3   OH277694   2.544   0.610   2.933  0.5418  0.0043  0.2554
18760TIP3    H177695   2.514   0.524   2.902 -0.3166  0.7021 -0.9107
18760TIP3    H277696   2.493   0.626   3.012  0.5578 -0.4739  0.3627
18761TIP3   OH277697   3.074   2.135   5.080  0.0058  0.3349 -0.4242
18761TIP3    H177698   3.163   2.122   5.111 -0.0855  0.8817  0.0581
18761TIP3    H277699   3.028   2.055   5.106 -0.1602  0.9400  1.1588
18762TIP3   OH277700   6.058   4.980   0.459 -0.5943 -0.8615  0.8615
18762TIP3    H177701   6.077   4.924   0.535  0.1273  0.7616  1.9033
18762TIP3    H277702   6.100   4.935   0.386  1.6885 -0.7170  2.0277
18763TIP3   OH277703   0.716   5.052   4.431  0.9077 -0.1700 -0.2064
18763TIP3    H177704   0.672   5.002   4.361  0.1736  1.1232 -0.6848
18763TIP3    H277705   0.664   5.034   4.509 -0.4755  1.3424 -0.7693
18764TIP3   OH277706   1.344   4.285  11.939 -0.6077 -0.2770 -0.1683
18764TIP3    H177707   1.304   4.362  11.897  0.1748  0.1883 -0.0729
18764TIP3    H277708   1.272   4.243  11.985 -1.0105  0.4996 -0.0805
18765TIP3   OH277709   1.602   0.696   1.542  0.4190 -0.2053 -0.1830
18765TIP3    H177710   1.539   0.765   1.521 -0.9614 -1.5444 -0.5363
18765TIP3    H277711   1.553   0.615   1.528  1.4657 -1.2348  1.9355
18766TIP3   OH277712   4.834   5.237  15.537  0.1219  0.5344 -0.3228
18766TIP3    H177713   4.776   5.164  15.515  0.6738 -0.5409  1.6683
18766TIP3    H277714   4.775   5.312  15.546 -0.8981 -0.3860  0.9138
18767TIP3   OH277715   2.216   2.149   1.050 -0.5558  0.4691 -0.0050
18767TIP3    H177716   2.152   2.202   1.003  0.5123  1.0446 -0.8403
18767TIP3    H277717   2.220   2.067   1.002  0.6416  1.1115 -1.0293
18768TIP3   OH277718   3.474   0.623  14.751 -0.0220  0.4606  0.5413
18768TIP3    H177719   3.558   0.580  14.768  0.1230  1.0741  1.4583
18768TIP3    H277720   3.499   0.711  14.722 -0.3560  1.1352  2.2405
18769TIP3   OH277721   5.738   6.619   0.041  0.6617 -0.3152 -0.0577
18769TIP3    H177722   5.645   6.638   0.054  0.1511 -1.8996 -1.1771
18769TIP3    H277723   5.772   6.601   0.128 -0.4298 -1.1381  0.2040
18770TIP3   OH277724   0.831   4.751  12.521  0.4106 -0.3038 -0.1506
18770TIP3    H177725   0.890   4.681  12.493  1.1314  0.1131  0.3072
18770TIP3    H277726   0.880   4.797  12.590 -0.7504 -0.4166  0.7513
18771TIP3   OH277727   3.282   0.772   1.980  0.6555  0.6184  0.0676
18771TIP3    H177728   3.233   0.782   2.062 -0.4682 -0.8073 -0.4123
18771TIP3    H277729   3.307   0.861   1.956 -0.9768  1.2821  0.7595
18772TIP3   OH277730   2.283   2.443   3.412  0.3854  0.1945 -0.6522
18772TIP3    H177731   2.268   2.350   3.426 -0.5461  0.3691 -0.4831
18772TIP3    H277732   2.196   2.482   3.412  0.7517  1.0273 -1.0045
18773TIP3   OH277733   1.326   3.710  13.354 -0.2099 -0.4101  0.0190
18773TIP3    H177734   1.243   3.745  13.323 -1.1879 -1.5225  1.3080
18773TIP3    H277735   1.347   3.764  13.431  0.0073 -0.4630 -0.0041
18774TIP3   OH277736   3.354   1.587  14.196 -0.0792  0.1082 -0.0996
18774TIP3    H177737   3.441   1.600  14.233  0.8380 -2.9581 -1.0440
18774TIP3    H277738   3.295   1.587  14.272  1.3136 -2.3418  1.0175
18775TIP3   OH277739   0.779   6.741  16.435 -0.1581  0.8203 -0.1819
18775TIP3    H177740   0.747   6.794  16.362 -0.1003 -0.0135 -0.8119
18775TIP3    H277741   0.871   6.768  16.445 -0.0282  0.5832 -0.7293
18776TIP3   OH277742   6.387   1.741   2.674 -0.5466  0.0747  0.0548
18776TIP3    H177743   6.393   1.750   2.579  0.6177 -1.0994  0.0133
18776TIP3    H277744   6.478   1.731   2.703 -0.8188  1.3207  1.3874
18777TIP3   OH277745   1.746   0.312  14.523  0.1540 -0.4742  0.2054
18777TIP3    H177746   1.755   0.277  14.435 -1.2591 -1.1973  0.3390
18777TIP3    H277747   1.810   0.263  14.575  0.0301 -0.9873 -0.1328
18778TIP3   OH277748   4.990   0.415  10.449  0.4602  0.8237  0.1728
18778TIP3    H177749   5.044   0.435  10.372  2.1313 -1.9006  0.5833
18778TIP3    H277750   5.050   0.375  10.511 -1.2987  1.1366  2.1137
18779TIP3   OH277751   5.924   0.142  15.403 -0.3256  0.0632  0.6758
18779TIP3    H177752   5.846   0.089  15.385 -1.0868  0.8292  1.6759
18779TIP3    H277753   5.986   0.081  15.442  0.7132 -1.2474 -2.8587
18780TIP3   OH277754   3.013   6.324   3.614 -0.1927 -0.7030 -0.1580
18780TIP3    H177755   2.951   6.340   3.686 -1.9519  0.5211 -1.8865
18780TIP3    H277756   3.098   6.320   3.656 -0.9119  2.4415  1.7177
18781TIP3   OH277757   5.527   5.114   4.397 -0.0118  0.3998  0.0824
18781TIP3    H177758   5.447   5.080   4.356  0.7258  1.0417 -1.9589
18781TIP3    H277759   5.507   5.116   4.490 -0.7278 -3.9117  0.1550
18782TIP3   OH277760   0.337   5.249   0.331 -0.0201 -0.5686 -0.0690
18782TIP3    H177761   0.431   5.261   0.320 -0.2212  0.4238 -0.8283
18782TIP3    H277762   0.323   5.156   0.312  0.6823 -0.5122 -0.9238
18783TIP3   OH277763   2.576   4.088  15.761  0.4895  0.4178 -0.0719
18783TIP3    H177764   2.614   4.076  15.674  0.9376  0.5913  0.0974
18783TIP3    H277765   2.584   4.182  15.777 -1.2814  0.6845 -0.6139
18784TIP3   OH277766   3.567   4.303  16.297  0.2963  0.4246 -0.1785
18784TIP3    H177767   3.607   4.250  16.228  1.8020  3.3539 -1.7007
18784TIP3    H277768   3.481   4.326  16.262  0.2742  0.2802 -0.2207
18785TIP3   OH277769   4.978   4.328  12.937  0.3399 -0.5424  0.0873
18785TIP3    H177770   4.980   4.409  12.988 -1.0294 -1.0890  1.0578
18785TIP3    H277771   5.014   4.352  12.852  0.3099  0.9895  0.4919
18786TIP3   OH277772   6.710   4.884  13.996 -0.1641  0.1850 -0.3047
18786TIP3    H177773   6.683   4.937  13.922 -0.8368 -1.6745 -1.4237
18786TIP3    H277774   6.738   4.800  13.958 -1.4060 -1.1343  1.5815
18787TIP3   OH277775   1.932   3.080  13.868  0.2213  0.0030 -0.2293
18787TIP3    H177776   1.945   3.121  13.782 -1.9208  0.0935 -0.5363
18787TIP3    H277777   1.943   3.152  13.930 -0.0190  0.3192 -0.5510
18788TIP3   OH277778   6.096   5.519  13.672  0.2228  0.0839 -0.4955
18788TIP3    H177779   6.133   5.599  13.710  0.7933 -0.2112 -0.4285
18788TIP3    H277780   6.072   5.544  13.583 -3.1763  1.4160  0.6808
18789TIP3   OH277781   0.721   4.651  17.149  0.7509  0.5477 -0.2752
18789TIP3    H177782   0.702   4.718  17.214 -1.0024  0.5472 -0.7546
18789TIP3    H277783   0.742   4.573  17.200  0.1592  0.7534  0.2943
18790TIP3   OH277784   0.251   4.510   0.597  0.0649  0.5631 -0.3035
18790TIP3    H177785   0.277   4.452   0.669 -0.8861  0.5951  0.0716
18790TIP3    H277786   0.160   4.487   0.579  0.0387  1.1461 -0.9290
18791TIP3   OH277787   1.543   6.216   3.289 -0.1085  0.3943  0.0069
18791TIP3    H177788   1.450   6.238   3.294 -0.5764 -0.5336 -3.3907
18791TIP3    H277789   1.544   6.121   3.280  1.1208  0.4962 -0.9914
18792TIP3   OH277790   5.888   1.369  12.330 -0.1543 -0.1136  0.0029
18792TIP3    H177791   5.829   1.349  12.402 -1.1206  1.7096 -0.2821
18792TIP3    H277792   5.853   1.320  12.256  0.7190 -1.8194  0.6679
18793TIP3   OH277793   0.679   6.174   2.843  0.6150 -0.1947  0.1564
18793TIP3    H177794   0.593   6.189   2.804 -0.5363  0.8912  2.9552
18793TIP3    H277795   0.681   6.080   2.862 -2.1615  0.4852  4.7150
18794TIP3   OH277796   5.684   5.158   0.658 -0.2598  0.3261 -0.3508
18794TIP3    H177797   5.680   5.117   0.745  0.2209  1.2149  0.1009
18794TIP3    H277798   5.692   5.085   0.598  1.1340 -0.2493  0.4892
18795TIP3   OH277799   4.940   5.288  10.755 -0.3083  0.3075  0.4860
18795TIP3    H177800   4.911   5.208  10.799 -0.6743  0.4602  0.5174
18795TIP3    H277801   4.999   5.257  10.686 -1.7122 -0.0932 -0.5389
18796TIP3   OH277802   2.311   1.189   1.302  0.2113 -0.0492 -0.4607
18796TIP3    H177803   2.268   1.119   1.350  1.0261 -0.1459  0.1376
18796TIP3    H277804   2.382   1.146   1.254  0.1552  0.2286 -0.7981
18797TIP3   OH277805   1.070   1.675   2.498 -0.0700  0.0257  0.2668
18797TIP3    H177806   0.994   1.732   2.483  0.1410  0.6496  1.4963
18797TIP3    H277807   1.058   1.603   2.436 -2.3508 -0.5411  1.3059
18798TIP3   OH277808   4.026   2.205   3.624 -0.1152  0.0746 -0.1490
18798TIP3    H177809   4.028   2.242   3.535  0.2020  0.6484  0.0945
18798TIP3    H277810   4.118   2.198   3.649 -0.2089  0.0168  0.1796
18799TIP3   OH277811   3.150   4.113   5.736  0.6055 -0.1348  0.5382
18799TIP3    H177812   3.200   4.193   5.751  0.0448  0.3935 -0.3508
18799TIP3    H277813   3.094   4.105   5.813  1.3900 -0.2318  1.1044
18800TIP3   OH277814   4.700   1.611  13.585 -0.1820 -0.2934  0.2626
18800TIP3    H177815   4.685   1.679  13.650 -2.0563 -0.8070  0.3796
18800TIP3    H277816   4.714   1.658  13.503 -2.2234  0.2318  0.1920
18801TIP3   OH277817   2.307   6.160   5.342 -0.9077  0.5117 -0.3579
18801TIP3    H177818   2.217   6.147   5.314 -1.1412 -1.3034  1.1583
18801TIP3    H277819   2.348   6.074   5.334  0.1151  0.8496  0.9649
18802TIP3   OH277820   1.157   5.256   1.496  0.1737  0.6051  1.4764
18802TIP3    H177821   1.166   5.192   1.566  1.9431  0.8284  1.4938
18802TIP3    H277822   1.245   5.295   1.489 -0.0551  0.7711 -0.6629
18803TIP3   OH277823   3.212   5.009   5.182  0.1101  0.1188 -0.1985
18803TIP3    H177824   3.240   4.952   5.254 -0.4445  1.5677  1.2017
18803TIP3    H277825   3.151   4.955   5.132 -0.9914 -0.2923  1.5343
18804TIP3   OH277826   5.857   1.051  12.281  0.1871  0.2101 -0.0498
18804TIP3    H177827   5.825   1.045  12.371 -0.2159  0.2062 -0.1919
18804TIP3    H277828   5.936   0.997  12.280 -0.0728 -0.1785  0.1836
18805TIP3   OH277829   2.679   3.357   0.877 -0.3591 -0.1991 -0.5466
18805TIP3    H177830   2.694   3.315   0.793  2.5937 -2.2819  0.9223
18805TIP3    H277831   2.643   3.288   0.933 -2.3986  1.1824 -0.0700
18806TIP3   OH277832   0.193   3.550   2.705 -0.1208 -0.2397  0.2165
18806TIP3    H177833   0.265   3.588   2.654  0.3384  0.5894  1.4642
18806TIP3    H277834   0.185   3.461   2.671  0.3094  0.2284 -1.1649
18807TIP3   OH277835   5.822   4.928   4.272 -0.7357  0.2308  0.4278
18807TIP3    H177836   5.733   4.893   4.277 -1.2708  1.1621 -1.8918
18807TIP3    H277837   5.823   5.000   4.336 -1.8130  0.5567  0.0971
18808TIP3   OH277838   5.318   0.782  14.726  0.2126  0.1135  0.2026
18808TIP3    H177839   5.302   0.847  14.657 -1.5152 -1.3511 -0.7932
18808TIP3    H277840   5.303   0.698  14.685  4.3354 -1.1304  0.9416
18809TIP3   OH277841   2.232   4.544  13.090 -0.5726 -0.1944 -0.0284
18809TIP3    H177842   2.194   4.623  13.054 -0.8458 -0.6720 -0.8036
18809TIP3    H277843   2.326   4.551  13.071 -0.9601 -1.3050 -2.5243
18810TIP3   OH277844   2.256   6.177   6.410  0.0681 -0.2292 -0.0507
18810TIP3    H177845   2.230   6.261   6.448 -0.5344 -0.0455 -0.8744
18810TIP3    H277846   2.350   6.187   6.393  0.1526  0.0103  0.5420
18811TIP3   OH277847   3.472   4.187   5.223 -0.3881 -0.1921  0.7360
18811TIP3    H177848   3.412   4.231   5.283  0.3035  0.1309  1.1990
18811TIP3    H277849   3.517   4.258   5.177  0.2217 -0.4200  0.9749
18812TIP3   OH277850   2.114   0.613   0.102  0.8046 -0.0443  0.2140
18812TIP3    H177851   2.028   0.587   0.134  0.8343 -1.9075 -1.1438
18812TIP3    H277852   2.124   0.704   0.131 -1.3286 -0.0227  0.9566
18813TIP3   OH277853   5.997   3.841  13.662  0.6215 -0.0031  0.2837
18813TIP3    H177854   5.914   3.877  13.694  0.4028 -1.6910  1.6551
18813TIP3    H277855   6.048   3.825  13.741  1.1365 -1.7020 -0.3848
18814TIP3   OH277856   5.181   6.214   5.789  0.0765  0.0300  0.0883
18814TIP3    H177857   5.099   6.197   5.834 -0.0626  0.8345  0.1471
18814TIP3    H277858   5.249   6.189   5.852 -0.1153 -1.6680 -0.3641
18815TIP3   OH277859   5.183   3.583   2.937 -0.1803 -0.6936  0.0278
18815TIP3    H177860   5.234   3.509   2.969 -0.6890 -1.4471 -0.8846
18815TIP3    H277861   5.092   3.560   2.956 -0.2088  0.7095  1.7846
18816TIP3   OH277862   3.865   0.919   1.251 -0.8342 -0.1764 -0.5273
18816TIP3    H177863   3.858   0.846   1.313 -0.1797 -1.4754 -1.9645
18816TIP3    H277864   3.880   0.995   1.307  0.6018 -1.4459  0.8868
18817TIP3   OH277865   3.539   4.733   2.195 -0.4970 -0.4857  0.2774
18817TIP3    H177866   3.457   4.753   2.238 -0.7080 -2.1620  0.7077
18817TIP3    H277867   3.513   4.697   2.110 -0.1595  0.5639 -0.2707
18818TIP3   OH277868   2.092   2.552  14.554 -0.3252  0.0928 -0.2653
18818TIP3    H177869   2.091   2.456  14.547  0.6079  0.0713 -0.1831
18818TIP3    H277870   2.013   2.573  14.604 -0.7265 -0.6066 -0.5923
18819TIP3   OH277871   0.504   5.163   1.915  0.3895 -0.3486 -0.1357
18819TIP3    H177872   0.543   5.215   1.844 -1.0919  3.8319  1.9081
18819TIP3    H277873   0.576   5.154   1.978  0.9134 -1.6160 -0.9039
18820TIP3   OH277874   5.566   2.194  13.417 -0.2088 -0.0035 -0.1236
18820TIP3    H177875   5.561   2.286  13.444 -0.7574  0.6533 -2.3634
18820TIP3    H277876   5.505   2.149  13.474 -1.8811  1.4730 -0.7053
18821TIP3   OH277877   4.914   0.341  12.359  0.6004 -0.2817 -0.0831
18821TIP3    H177878   4.997   0.315  12.399  0.0375 -1.6192  0.2333
18821TIP3    H277879   4.877   0.403  12.422  1.1827  0.0530 -0.0570
18822TIP3   OH277880   5.240   2.964   4.917 -0.6845  0.1706 -0.0722
18822TIP3    H177881   5.315   2.956   4.858 -0.4202 -0.2504  0.3215
18822TIP3    H277882   5.277   2.958   5.005 -0.7326  3.5479  0.2285
18823TIP3   OH277883   0.967   0.679   0.628 -0.3424 -0.8993  1.1242
18823TIP3    H177884   0.936   0.657   0.716 -0.4390  0.0166  1.3243
18823TIP3    H277885   0.895   0.654   0.570 -1.1707  0.5137  1.5191
18824TIP3   OH277886   6.241   1.403  11.515 -1.3007  0.2028 -0.6828
18824TIP3    H177887   6.218   1.482  11.565  0.1311  0.3693 -0.2593
18824TIP3    H277888   6.182   1.335  11.548 -2.1059  0.9331 -0.5924
18825TIP3   OH277889   0.724   2.613   0.361  0.6210  0.2554 -0.2260
18825TIP3    H177890   0.810   2.582   0.388  0.7418  0.4563 -0.3798
18825TIP3    H277891   0.728   2.617   0.265  0.5708  0.6351 -0.2161
18826TIP3   OH277892   4.631   5.410  10.799 -0.2609 -0.4978  0.4893
18826TIP3    H177893   4.563   5.357  10.840 -1.3331 -0.4141 -1.1397
18826TIP3    H277894   4.604   5.501  10.814  0.9990 -0.3905  2.3098
18827TIP3   OH277895   1.906   0.168   0.795  0.0529  0.0027  0.1532
18827TIP3    H177896   1.871   0.173   0.884  1.9527 -1.1636  0.9918
18827TIP3    H277897   1.970   0.096   0.798 -0.6722 -0.7955 -2.4345
18828TIP3   OH277898   2.370   3.299  12.551  0.1617  0.1647  0.3814
18828TIP3    H177899   2.291   3.351  12.567  0.8443  1.4397 -0.3477
18828TIP3    H277900   2.404   3.281  12.638 -1.3946 -1.1173  0.7419
18829TIP3   OH277901   3.296   3.757   0.628  0.6890  0.4026  0.1338
18829TIP3    H177902   3.270   3.777   0.539  1.2316  2.6990  0.4769
18829TIP3    H277903   3.367   3.693   0.618  1.0858  1.0177 -1.0945
18830TIP3   OH277904   4.760   0.556  15.249 -0.9321  0.0763  0.0009
18830TIP3    H177905   4.774   0.566  15.155 -2.0532 -0.2392 -0.2045
18830TIP3    H277906   4.848   0.562  15.287 -0.2952 -1.3006 -1.1998
18831TIP3   OH277907   5.945   3.032   2.920  0.6592  0.6373 -0.3381
18831TIP3    H177908   5.895   3.114   2.916 -1.9551 -0.7150  2.2408
18831TIP3    H277909   5.993   3.038   3.003  0.0846 -0.5961  0.0956
18832TIP3   OH277910   4.384   6.037  10.579 -0.1253 -0.1607  0.1559
18832TIP3    H177911   4.460   6.082  10.615  0.5499 -1.2023  0.0649
18832TIP3    H277912   4.325   6.107  10.551  0.9033  0.6538  0.0047
18833TIP3   OH277913   3.545   3.141   3.913  0.3342 -0.0028  0.0935
18833TIP3    H177914   3.489   3.064   3.900  0.2003 -0.0765  1.0769
18833TIP3    H277915   3.510   3.183   3.992  0.2499  1.2078 -0.5726
18834TIP3   OH277916   3.835   5.898  11.283  0.1630  0.1471  0.0975
18834TIP3    H177917   3.832   5.814  11.236  1.7513 -0.8908  1.7516
18834TIP3    H277918   3.768   5.890  11.350 -0.2621  0.5617 -0.2714
18835TIP3   OH277919   4.110   0.465   3.517  0.5218  0.3594 -0.0848
18835TIP3    H177920   4.061   0.403   3.462  0.0669  0.0039  0.7019
18835TIP3    H277921   4.195   0.423   3.531  0.3100  0.0292  0.2277
18836TIP3   OH277922   3.745   0.267  16.313  0.2114 -0.0658  0.1538
18836TIP3    H177923   3.706   0.238  16.396 -0.1925  2.1055  0.7480
18836TIP3    H277924   3.670   0.280  16.255  0.5199 -2.0362 -0.7549
18837TIP3   OH277925   5.117   5.620   5.143 -0.1120 -0.0747 -0.1904
18837TIP3    H177926   5.196   5.670   5.122  0.8439 -0.6222  2.0092
18837TIP3    H277927   5.132   5.533   5.104 -0.1439  0.1758 -0.7650
18838TIP3   OH277928   0.943   3.807  17.150 -0.0713  0.0359 -0.6888
18838TIP3    H177929   0.916   3.898  17.155 -0.3574 -0.0947  0.3369
18838TIP3    H277930   0.968   3.794  17.059  1.2512  1.4936 -0.5515
18839TIP3   OH277931   5.258   3.388  15.543  0.5384  0.0190  0.2093
18839TIP3    H177932   5.297   3.405  15.629  0.9992  1.2123 -0.2240
18839TIP3    H277933   5.196   3.459  15.530  0.6028 -0.0528 -0.5324
18840TIP3   OH277934   4.946   5.123   5.812 -0.0633 -0.3176 -0.0204
18840TIP3    H177935   4.865   5.073   5.826  0.8444 -1.4473  1.4184
18840TIP3    H277936   4.945   5.144   5.719 -2.0902 -0.1623  0.0007
18841TIP3   OH277937   5.181   1.750  13.928 -0.4951  0.0651 -0.4935
18841TIP3    H177938   5.200   1.781  13.840  0.3465 -3.4759 -1.6308
18841TIP3    H277939   5.259   1.771  13.979 -1.0734  2.3206 -0.4630
18842TIP3   OH277940   4.870   5.229  11.632 -0.4834  0.0713  0.2984
18842TIP3    H177941   4.926   5.211  11.707  0.6340  0.5102 -0.4158
18842TIP3    H277942   4.807   5.294  11.664  0.9404  1.4174  0.4533
18843TIP3   OH277943   5.822   1.505  17.041  0.8570  0.0757 -0.1082
18843TIP3    H177944   5.739   1.498  16.995  0.7760  1.8810 -0.2698
18843TIP3    H277945   5.814   1.445  17.115  0.0777 -1.0366 -1.0774
18844TIP3   OH277946   2.591   3.027  17.129  0.2848 -0.3539  0.3762
18844TIP3    H177947   2.571   3.108  17.083  0.2598 -1.2661 -1.2814
18844TIP3    H277948   2.531   2.962  17.090 -0.4851 -0.9269  2.4607
18845TIP3   OH277949   1.423   1.102  15.432 -0.0520  0.1459 -0.4243
18845TIP3    H177950   1.360   1.039  15.466 -1.2724  0.3058 -2.2868
18845TIP3    H277951   1.387   1.188  15.456  1.3689  0.1722  1.7080
18846TIP3   OH277952   3.949   3.461   4.838 -0.0880 -0.0550 -0.2071
18846TIP3    H177953   4.018   3.419   4.890 -0.8907  1.2556  2.0029
18846TIP3    H277954   3.901   3.388   4.799  1.1955 -1.0479  0.0214
18847TIP3   OH277955   2.075   4.387  13.823  0.2856  0.3247 -0.0403
18847TIP3    H177956   2.077   4.294  13.801  1.2454  1.0746 -3.3224
18847TIP3    H277957   2.001   4.396  13.884 -0.6472 -2.3516 -0.7393
18848TIP3   OH277958   4.005   2.996  15.097 -0.2008 -0.2299  0.0317
18848TIP3    H177959   3.933   2.934  15.084 -1.0563  0.6255  0.6270
18848TIP3    H277960   3.986   3.037  15.182  1.2792 -0.3831  0.4512
18849TIP3   OH277961   0.817   2.343  13.640  0.3559 -0.0358 -0.2106
18849TIP3    H177962   0.802   2.377  13.728 -0.5199  1.5895 -0.9685
18849TIP3    H277963   0.911   2.328  13.635  0.6306  1.4480  0.4428
18850TIP3   OH277964   0.834   2.452   2.735  0.4468 -0.4777  0.1739
18850TIP3    H177965   0.862   2.494   2.817  0.7292 -0.1266 -0.0975
18850TIP3    H277966   0.913   2.453   2.681 -0.1225  0.6063 -0.6429
18851TIP3   OH277967   0.461   6.747  14.811  0.3042 -0.0178  0.2856
18851TIP3    H177968   0.434   6.757  14.720  1.4425  0.5553 -0.0023
18851TIP3    H277969   0.423   6.664  14.839 -1.5619  0.6826 -0.1562
18852TIP3   OH277970   5.117   5.673  12.916  0.0793  0.0970  0.3736
18852TIP3    H177971   5.069   5.633  12.844  1.4052 -0.2845 -0.3152
18852TIP3    H277972   5.050   5.697  12.980 -1.0511 -0.0616 -0.7443
18853TIP3   OH277973   1.275   4.531  11.819 -0.5308  0.2065  0.4633
18853TIP3    H177974   1.264   4.542  11.724 -1.2355  0.3700  0.5604
18853TIP3    H277975   1.353   4.582  11.840  0.5862 -1.1517 -0.2888
18854TIP3   OH277976   4.059   1.199   5.434 -0.1488 -0.1805 -0.8567
18854TIP3    H177977   3.968   1.194   5.404  0.6448 -0.1381 -3.3577
18854TIP3    H277978   4.079   1.111   5.465 -1.0984 -0.1311 -0.0609
18855TIP3   OH277979   5.148   1.433   3.811 -0.3416 -0.8206  0.2367
18855TIP3    H177980   5.221   1.373   3.802  0.0166 -0.2969 -0.4555
18855TIP3    H277981   5.187   1.513   3.848 -0.4827 -0.4072 -0.4955
18856TIP3   OH277982   5.726   2.851  15.832  0.2985  0.3778  0.5330
18856TIP3    H177983   5.708   2.932  15.784 -1.9074  0.8191  2.0183
18856TIP3    H277984   5.818   2.832  15.813  0.7410  2.9848 -0.1987
18857TIP3   OH277985   5.436   0.837  11.426 -0.1664 -0.2294  0.0425
18857TIP3    H177986   5.530   0.850  11.416 -0.2086 -0.5785 -0.8323
18857TIP3    H277987   5.398   0.923  11.410  0.0255  0.0008  0.7899
18858TIP3   OH277988   0.302   1.983   5.203  0.9215  0.6527 -0.2886
18858TIP3    H177989   0.359   1.969   5.278 -0.6059 -1.2144  0.5740
18858TIP3    H277990   0.214   1.962   5.235  0.1455  0.4306 -2.4288
18859TIP3   OH277991   0.633   0.366   4.568  0.4167 -0.0608 -0.2919
18859TIP3    H177992   0.728   0.363   4.560  0.2989 -0.5409 -1.5089
18859TIP3    H277993   0.617   0.390   4.660  1.6906 -0.6938  0.0901
18860TIP3   OH277994   2.697   4.664   0.172 -0.6654  0.2596 -0.1771
18860TIP3    H177995   2.650   4.584   0.152 -2.2778  0.5907  2.2017
18860TIP3    H277996   2.730   4.694   0.087 -0.9453 -2.3201 -1.2287
18861TIP3   OH277997   1.514   1.462   4.500  0.0139 -0.3526  0.4706
18861TIP3    H177998   1.604   1.486   4.478  0.1852 -0.3461  1.1553
18861TIP3    H277999   1.490   1.397   4.435 -0.0515  0.8269 -0.7063
18862TIP3   OH278000   0.575   2.332   4.607  0.2344 -0.2753  0.1730
18862TIP3    H178001   0.545   2.417   4.640  0.2291 -0.3352  0.3266
18862TIP3    H278002   0.558   2.335   4.513  0.7430  0.1039  0.0910
18863TIP3   OH278003   5.643   2.323  14.870  0.0496 -0.3007  0.0859
18863TIP3    H178004   5.574   2.259  14.858  0.0665  0.0642 -2.0443
18863TIP3    H278005   5.723   2.271  14.880 -0.1101 -0.6383 -0.3972
18864TIP3   OH278006   1.211   1.684   3.749  0.1828 -0.1553  0.4554
18864TIP3    H178007   1.132   1.727   3.718 -0.7982 -1.9615  0.3782
18864TIP3    H278008   1.280   1.717   3.691 -0.8925 -0.2574 -0.9120
18865TIP3   OH278009   2.379   3.723   1.659 -0.2692 -0.2485 -0.0628
18865TIP3    H178010   2.369   3.817   1.673 -0.1979 -0.1775 -0.4757
18865TIP3    H278011   2.474   3.708   1.659 -0.2974 -0.4901  1.0781
18866TIP3   OH278012   2.118   1.523  11.081  0.0264  0.1271  0.0451
18866TIP3    H178013   2.151   1.589  11.020 -0.1510  0.2535  0.0872
18866TIP3    H278014   2.023   1.537  11.084  0.2114  1.1371  1.5598
18867TIP3   OH278015   2.468   5.492   5.200  0.1231  0.0233 -0.1509
18867TIP3    H178016   2.459   5.487   5.296  1.3968 -1.0190 -0.0731
18867TIP3    H278017   2.383   5.524   5.170 -0.1820  0.6674  1.3574
18868TIP3   OH278018   3.910   3.517   1.500  0.2800 -0.2984 -0.3470
18868TIP3    H178019   3.948   3.518   1.588 -0.5115 -1.7475  0.0260
18868TIP3    H278020   3.976   3.472   1.447  0.3933 -0.1629 -0.3220
18869TIP3   OH278021   6.234   5.450  10.834  0.1171 -0.2111 -0.3822
18869TIP3    H178022   6.272   5.534  10.808 -0.1520 -0.5860 -2.0398
18869TIP3    H278023   6.147   5.450  10.795  0.7999 -2.0227 -1.9849
18870TIP3   OH278024   1.317   5.563   5.805  0.4984 -0.4613  0.4989
18870TIP3    H178025   1.286   5.589   5.892  0.4112 -1.4803  0.7811
18870TIP3    H278026   1.328   5.468   5.811 -1.8962 -0.8964 -1.3615
18871TIP3   OH278027   2.043   0.348   4.603 -0.1835  0.6064 -0.4200
18871TIP3    H178028   1.970   0.400   4.635 -1.0020  0.0449 -1.3242
18871TIP3    H278029   2.003   0.266   4.573  1.0206 -0.3741  0.5765
18872TIP3   OH278030   0.073   1.449   3.489  0.6425  0.4115  0.0786
18872TIP3    H178031   0.129   1.509   3.539  0.1197  0.3150  0.7939
18872TIP3    H278032   0.106   1.453   3.399  0.6904  1.6886  0.1452
18873TIP3   OH278033   5.240   0.317  12.545  0.8734  0.3134 -0.1867
18873TIP3    H178034   5.232   0.272  12.461 -0.2800  0.3893 -0.1281
18873TIP3    H278035   5.222   0.409  12.525  0.2856  0.2872  0.1800
18874TIP3   OH278036   1.604   0.186  15.968  0.1825 -0.0076 -0.4829
18874TIP3    H178037   1.548   0.254  15.932 -0.9993 -1.1963 -0.9322
18874TIP3    H278038   1.558   0.156  16.046  0.4775 -0.6107 -0.5367
18875TIP3   OH278039   3.678   4.813   0.238 -0.5460 -0.0756 -0.0814
18875TIP3    H178040   3.596   4.825   0.190 -0.0149 -0.8303 -1.1940
18875TIP3    H278041   3.725   4.896   0.225 -0.6466 -0.0660 -0.3898
18876TIP3   OH278042   4.152   2.986  11.498 -0.1786 -0.3908 -0.0802
18876TIP3    H178043   4.063   3.020  11.508 -0.4451 -0.7718 -1.1314
18876TIP3    H278044   4.170   2.991  11.404  1.3982  0.8803  0.2562
18877TIP3   OH278045   6.062   4.589  11.470 -0.2576  0.4609  0.0404
18877TIP3    H178046   6.018   4.537  11.403 -0.8566  0.8141  0.1586
18877TIP3    H278047   6.018   4.673  11.468 -1.1805  0.0362  1.8178
18878TIP3   OH278048   3.464   1.757   2.887 -0.2966 -0.5062 -0.3046
18878TIP3    H178049   3.550   1.751   2.844 -0.3770  2.1788 -0.9059
18878TIP3    H278050   3.486   1.768   2.980  0.1598  3.2913 -0.7861
18879TIP3   OH278051   5.953   3.947   4.033  0.0031 -0.1558  0.2274
18879TIP3    H178052   5.979   3.900   4.112  1.1868  2.3843  1.4209
18879TIP3    H278053   6.030   3.944   3.976 -0.8099 -1.8846 -0.8248
18880TIP3   OH278054   0.534   0.254   3.158 -0.0518  0.8099  0.3652
18880TIP3    H178055   0.563   0.183   3.215  0.6194  0.4049 -0.4749
18880TIP3    H278056   0.492   0.316   3.217 -3.7565 -1.8308  0.6850
18881TIP3   OH278057   0.765   5.481   3.935 -0.3064 -0.0318 -0.3316
18881TIP3    H178058   0.800   5.543   3.870  0.5068  0.2869  0.3983
18881TIP3    H278059   0.673   5.471   3.911  0.0550 -0.1634 -1.7251
18882TIP3   OH278060   5.545   2.414   1.566  0.0245 -0.0879 -0.5603
18882TIP3    H178061   5.553   2.506   1.539  1.7722  0.3367  1.3122
18882TIP3    H278062   5.467   2.383   1.519 -1.1188  2.5850 -0.5546
18883TIP3   OH278063   0.134   3.905   1.157 -0.0765  1.1344  0.4401
18883TIP3    H178064   0.168   3.880   1.071  1.2852 -0.8901  1.5023
18883TIP3    H278065   0.210   3.941   1.203 -0.4114  0.7166  1.3358
18884TIP3   OH278066   2.067   1.836  11.380 -0.3075  0.4030 -0.3086
18884TIP3    H178067   1.999   1.842  11.313  1.0822  0.6919 -1.7048
18884TIP3    H278068   2.086   1.742  11.387 -0.8806  0.3163  0.1266
18885TIP3   OH278069   0.386   1.192   2.524  0.3310  0.4164 -0.3867
18885TIP3    H178070   0.308   1.199   2.579  0.4736 -2.4904  0.2231
18885TIP3    H278071   0.360   1.233   2.441 -1.2071  1.1565  0.4366
18886TIP3   OH278072   5.668   1.490  11.822 -0.0175  0.5933 -0.3910
18886TIP3    H178073   5.574   1.490  11.839 -0.3848  0.5607 -2.2782
18886TIP3    H278074   5.679   1.545  11.744  0.9991 -2.7478 -2.7360
18887TIP3   OH278075   3.402   2.674   5.328 -0.0990 -0.6635  0.2536
18887TIP3    H178076   3.415   2.765   5.301  0.8894 -1.0654 -0.6490
18887TIP3    H278077   3.459   2.663   5.405  0.6604 -0.8341 -0.3251
18888TIP3   OH278078   1.848   2.501  14.669  0.0313  0.0621  0.0246
18888TIP3    H178079   1.755   2.502  14.645 -0.1833  1.7984  0.7936
18888TIP3    H278080   1.858   2.424  14.724 -0.6541 -0.9063 -1.1905
18889TIP3   OH278081   5.323   1.648   4.226 -0.0359 -0.2489  0.0257
18889TIP3    H178082   5.252   1.604   4.274 -0.9056  0.4812 -0.5702
18889TIP3    H278083   5.365   1.578   4.177 -1.1877 -0.4820 -0.6440
18890TIP3   OH278084   5.459   1.035  14.852  0.2172 -0.1323 -0.8397
18890TIP3    H178085   5.370   1.062  14.830 -0.0187  0.4287  0.7372
18890TIP3    H278086   5.457   0.940  14.849 -0.2180 -0.1037 -1.6083
18891TIP3   OH278087   6.228   6.124   3.230 -0.6921 -0.4018  0.4435
18891TIP3    H178088   6.287   6.055   3.201  0.5249  0.5177  0.7005
18891TIP3    H278089   6.259   6.148   3.317 -1.0056  0.5765  0.2887
18892TIP3   OH278090   1.972   4.074   0.602  0.3373  0.2061 -0.4989
18892TIP3    H178091   1.960   4.169   0.597  1.7397  0.5379  1.3416
18892TIP3    H278092   1.972   4.056   0.696 -2.1956 -1.9578 -0.8866
18893TIP3   OH278093   1.272   5.143  16.022  0.5054 -0.4251  0.3078
18893TIP3    H178094   1.193   5.154  15.969  0.2954 -0.8583  0.5249
18893TIP3    H278095   1.243   5.162  16.112  0.7235 -0.2548  0.3401
18894TIP3   OH278096   1.581   6.552   4.648  0.0583  0.1140 -0.1539
18894TIP3    H178097   1.564   6.646   4.649  5.1662  1.1734  1.1207
18894TIP3    H278098   1.537   6.519   4.727 -2.0046  1.3578 -0.7702
18895TIP3   OH278099   3.502   1.477   2.193 -0.1074  0.1531 -0.1714
18895TIP3    H178100   3.514   1.505   2.102  3.1279 -1.4995 -0.2959
18895TIP3    H278101   3.550   1.542   2.245  1.9313 -1.4639 -0.0016
18896TIP3   OH278102   5.419   3.023   0.802  0.1271 -0.0878  0.0968
18896TIP3    H178103   5.497   2.971   0.820  0.1811  0.8524  2.8090
18896TIP3    H278104   5.452   3.105   0.766  0.3712  0.0566  0.6398
18897TIP3   OH278105   1.795   0.421   3.032 -0.1595 -0.3363 -0.0951
18897TIP3    H178106   1.798   0.333   3.070 -2.1359 -0.6074 -0.5149
18897TIP3    H278107   1.826   0.408   2.942  0.2748 -0.4568  0.0658
18898TIP3   OH278108   4.517   6.754  14.715 -0.0067 -0.0076  0.1956
18898TIP3    H178109   4.444   6.695  14.695 -0.9002  0.7468  1.1647
18898TIP3    H278110   4.505   6.777  14.807  1.9643 -0.5484  0.6214
18899TIP3   OH278111   4.655   4.403   4.174  0.4014  0.2324 -0.6089
18899TIP3    H178112   4.724   4.420   4.238  0.4477  0.2337 -0.6580
18899TIP3    H278113   4.686   4.446   4.094 -0.3038  1.3986 -0.2533
18900TIP3   OH278114   2.690   2.681  13.335 -0.7557 -0.1750  0.1382
18900TIP3    H178115   2.692   2.592  13.369 -0.4423 -0.2118  0.0309
18900TIP3    H278116   2.609   2.686  13.285 -1.1287 -0.1768  0.7321
18901TIP3   OH278117   0.915   3.508  15.966 -0.5194  0.6907 -0.1207
18901TIP3    H178118   0.834   3.463  15.988 -0.4061  0.8802  0.7353
18901TIP3    H278119   0.982   3.440  15.967  0.0616  1.1743  3.5220
18902TIP3   OH278120   5.103   5.395  16.882 -0.1327 -0.5921  0.3657
18902TIP3    H178121   5.082   5.411  16.974  0.6052  0.4916  0.3513
18902TIP3    H278122   5.160   5.318  16.883 -1.3065 -1.4760  0.6808
18903TIP3   OH278123   4.394   3.037  10.709 -0.1992  0.2468  0.1805
18903TIP3    H178124   4.477   3.054  10.754  0.3585  0.1727 -0.8135
18903TIP3    H278125   4.351   3.122  10.704 -0.5883  0.1358  1.4859
18904TIP3   OH278126   5.781   3.830   2.788  0.2882 -0.2668  0.1354
18904TIP3    H178127   5.757   3.919   2.761  0.9233 -0.2741 -0.4849
18904TIP3    H278128   5.854   3.843   2.848 -0.1311 -0.3303  0.6597
18905TIP3   OH278129   5.355   1.233  15.756 -0.3506 -0.7041 -0.1222
18905TIP3    H178130   5.317   1.145  15.755 -1.5281 -0.2239  0.7521
18905TIP3    H278131   5.355   1.260  15.665 -0.2188 -1.5110 -0.3655
18906TIP3   OH278132   2.257   1.623  16.392 -0.0259  0.2227 -0.2820
18906TIP3    H178133   2.211   1.595  16.471  0.3577 -1.3547 -0.6042
18906TIP3    H278134   2.349   1.609  16.412  0.1552  0.9829 -0.5692
18907TIP3   OH278135   2.236   2.282  14.360  0.0140  0.2110  0.5833
18907TIP3    H178136   2.324   2.318  14.363 -0.0092  0.2494  0.8739
18907TIP3    H278137   2.244   2.195  14.397  0.4798 -0.9803 -2.2060
18908TIP3   OH278138   6.390   3.796  17.131 -0.1182  0.4251  0.5881
18908TIP3    H178139   6.403   3.702  17.146 -0.0895  0.1509 -1.0382
18908TIP3    H278140   6.476   3.835  17.147  0.6448 -0.2473 -1.6907
18909TIP3   OH278141   1.480   5.384  13.085 -0.2810 -0.2588 -0.3250
18909TIP3    H178142   1.497   5.306  13.137  0.8545  1.1885  1.5005
18909TIP3    H278143   1.409   5.429  13.131  0.4114  0.7989 -0.2756
18910TIP3   OH278144   4.388   4.491  13.317 -0.1093  0.6847  0.0006
18910TIP3    H178145   4.336   4.465  13.394  2.0833  0.6961  1.5128
18910TIP3    H278146   4.424   4.409  13.284 -0.1214  0.8224 -0.3627
18911TIP3   OH278147   3.684   2.018   1.093 -0.6497  0.3485 -0.1406
18911TIP3    H178148   3.675   1.935   1.140 -0.7795  0.0426 -0.6994
18911TIP3    H278149   3.705   2.082   1.161 -2.1519  0.1512  0.5222
18912TIP3   OH278150   0.626   4.710   3.788  0.0283 -0.4965  0.1258
18912TIP3    H178151   0.687   4.671   3.725  1.0976 -1.3860  1.6635
18912TIP3    H278152   0.571   4.638   3.816 -0.2250 -0.1790  0.4494
18913TIP3   OH278153   2.912   4.803   3.525 -0.3078 -0.6744  0.2461
18913TIP3    H178154   2.860   4.823   3.602 -1.5486 -2.2586 -0.1433
18913TIP3    H278155   2.977   4.873   3.520  0.9054 -1.4904  3.7089
18914TIP3   OH278156   4.375   4.600   1.588  0.0315  0.7375 -0.1449
18914TIP3    H178157   4.294   4.555   1.612 -0.0073  0.1139 -1.3910
18914TIP3    H278158   4.355   4.641   1.503  0.5493  1.8390  0.2501
18915TIP3   OH278159   3.725   3.750   0.304  0.7817 -0.0514 -0.2013
18915TIP3    H178160   3.726   3.733   0.399 -2.3732 -0.1766 -0.1506
18915TIP3    H278161   3.818   3.759   0.281  1.6571 -0.8520  2.7405
18916TIP3   OH278162   4.565   2.189   4.842  0.2916 -0.3404 -0.1925
18916TIP3    H178163   4.482   2.231   4.861  0.9101  1.3577 -1.1828
18916TIP3    H278164   4.591   2.150   4.925  1.2324  3.9413  1.6643
18917TIP3   OH278165   5.499   0.768  13.776 -0.0576 -0.1313  0.5408
18917TIP3    H178166   5.464   0.802  13.859  1.2764 -0.4030  1.2359
18917TIP3    H278167   5.431   0.787  13.712 -0.4110  1.5928  1.3813
18918TIP3   OH278168   5.349   6.331  12.618  0.3334  0.5002 -0.2753
18918TIP3    H178169   5.369   6.382  12.540 -0.3300  2.6903  0.9339
18918TIP3    H278170   5.271   6.372  12.654  0.8271 -0.2443  1.7065
18919TIP3   OH278171   2.395   4.736   3.980  0.2575  0.5149 -0.4447
18919TIP3    H178172   2.404   4.683   3.901  2.0982  1.1966 -0.7148
18919TIP3    H278173   2.482   4.736   4.019 -0.7553 -0.2902  1.9152
18920TIP3   OH278174   5.621   2.099  15.756  0.0929 -0.3960  0.2181
18920TIP3    H178175   5.622   2.157  15.832 -1.8646 -0.8246  0.6011
18920TIP3    H278176   5.613   2.011  15.792 -1.9839 -0.5228 -0.4918
18921TIP3   OH278177   1.524   3.526  13.611 -0.2560 -0.3180 -0.0878
18921TIP3    H178178   1.474   3.446  13.624 -0.7460 -0.4511 -2.6637
18921TIP3    H278179   1.596   3.502  13.553 -0.9123  1.2632 -1.6208
18922TIP3   OH278180   1.487   3.425  16.520  0.4528  0.4397  0.2339
18922TIP3    H178181   1.564   3.371  16.504  0.9254  0.8584  1.0895
18922TIP3    H278182   1.429   3.407  16.446  0.8928 -0.7288  0.1692
18923TIP3   OH278183   5.252   1.021  13.300 -0.4690  1.7321  0.4419
18923TIP3    H178184   5.337   1.063  13.288 -1.3031  2.5049 -3.0178
18923TIP3    H278185   5.191   1.070  13.245 -2.2569 -1.5264 -0.6664
18924TIP3   OH278186   0.363   6.776   2.584  0.3357  0.1227 -0.1613
18924TIP3    H178187   0.409   6.772   2.500  0.2297 -3.2392 -0.1559
18924TIP3    H278188   0.432   6.764   2.650  0.1014  0.0766  0.0789
18925TIP3   OH278189   3.388   4.544   0.841  0.1075 -0.6119 -0.8071
18925TIP3    H178190   3.422   4.532   0.752  0.3389 -2.5078 -0.4804
18925TIP3    H278191   3.466   4.566   0.892 -0.0900  0.9127 -1.1301
18926TIP3   OH278192   5.542   5.855  11.151  0.2165  0.0606 -0.1422
18926TIP3    H178193   5.565   5.816  11.067  1.1911  0.8299 -0.2420
18926TIP3    H278194   5.598   5.933  11.158 -0.6966  0.6632  0.6788
18927TIP3   OH278195   4.843   4.029   0.225  0.7002  0.4834  0.0976
18927TIP3    H178196   4.805   3.949   0.189  1.3223  0.7798 -1.2452
18927TIP3    H278197   4.936   4.008   0.237  0.4184  0.2127  2.0731
18928TIP3   OH278198   2.492   0.455   0.308  0.3879 -0.0379  0.1337
18928TIP3    H178199   2.412   0.495   0.342  0.2311 -0.6133  0.4570
18928TIP3    H278200   2.563   0.508   0.343  0.1959 -0.2441  0.8448
18929TIP3   OH278201   0.051   0.381   3.561  0.0042 -0.5541  0.2676
18929TIP3    H178202   0.118   0.435   3.603 -0.1764  1.1300 -1.5550
18929TIP3    H278203  -0.031   0.412   3.598 -0.2184  1.4430 -1.7851
18930TIP3   OH278204   1.336   1.554   5.058 -0.3216 -1.2083 -0.3632
18930TIP3    H178205   1.343   1.471   5.012  1.6015 -2.1202  1.5025
18930TIP3    H278206   1.419   1.599   5.040 -0.5608 -0.5276  0.1883
18931TIP3   OH278207   2.098   6.470  16.633 -0.4194 -0.3942  0.5435
18931TIP3    H178208   2.060   6.530  16.569 -1.7595 -1.6712  0.1051
18931TIP3    H278209   2.190   6.495  16.638 -1.1121  2.1791  0.9427
18932TIP3   OH278210   3.027   6.621   4.287 -0.0586 -0.0441 -0.2992
18932TIP3    H178211   3.069   6.661   4.363 -1.2464  0.9096 -0.1334
18932TIP3    H278212   3.071   6.537   4.277  0.6056  0.1354  1.0007
18933TIP3   OH278213   2.824   2.649  16.882  0.0792 -0.3715 -0.7619
18933TIP3    H178214   2.766   2.683  16.951  0.8469 -1.8361  0.6460
18933TIP3    H278215   2.912   2.660  16.918  0.5713  0.1239 -2.1048
18934TIP3   OH278216   5.943   1.575   4.549  0.0690  0.4870 -0.4299
18934TIP3    H178217   6.003   1.534   4.486  0.3514 -0.4632  0.4544
18934TIP3    H278218   5.919   1.505   4.609  0.1454  1.4922  0.8035
18935TIP3   OH278219   5.684   6.222   1.025  0.0266 -0.1177  0.0520
18935TIP3    H178220   5.707   6.277   0.950  1.0031 -0.1712  0.3053
18935TIP3    H278221   5.678   6.134   0.988  0.6277 -0.1624  0.0621
18936TIP3   OH278222   4.069   0.915  11.998  0.2969  0.4097  0.4662
18936TIP3    H178223   4.050   0.824  12.021 -1.1207  0.3230 -1.0081
18936TIP3    H278224   4.003   0.965  12.044  0.2380  0.5922  0.1828
18937TIP3   OH278225   2.044   4.526  11.120  0.1238  0.4376 -0.1917
18937TIP3    H178226   2.055   4.471  11.043  0.7779  1.2677 -0.6944
18937TIP3    H278227   2.044   4.616  11.086 -0.0720  0.7897  0.7172
18938TIP3   OH278228   3.531   1.842  15.988  0.2833  0.5333 -0.4813
18938TIP3    H178229   3.462   1.887  16.037  1.8605  2.0778  0.3623
18938TIP3    H278230   3.563   1.774  16.048 -1.4242 -1.1326 -1.3927
18939TIP3   OH278231   3.747   1.336  14.630  0.3939 -0.4485  0.1102
18939TIP3    H178232   3.732   1.282  14.552  2.0410  0.3713 -0.8074
18939TIP3    H278233   3.734   1.276  14.704 -3.4167 -0.7122 -0.6748
18940TIP3   OH278234   2.907   5.218  12.264 -0.0876  0.0036 -0.8798
18940TIP3    H178235   3.001   5.221  12.281 -0.2753  0.4468  0.0759
18940TIP3    H278236   2.883   5.126  12.277  0.1786 -0.0834 -0.9873
18941TIP3   OH278237   1.023   0.574  15.946 -0.7777  0.1683 -0.3421
18941TIP3    H178238   1.063   0.651  15.906 -1.0375 -0.1440 -1.2211
18941TIP3    H278239   1.097   0.518  15.969 -0.5615  0.8579  0.6993
18942TIP3   OH278240   1.162   1.946   4.010  0.9304 -0.2980  0.1856
18942TIP3    H178241   1.133   1.930   3.920  1.7544 -0.5340 -0.0443
18942TIP3    H278242   1.097   2.005   4.047  1.3409  0.9057 -1.0037
18943TIP3   OH278243   0.003   3.145  11.638  0.7375 -0.5603  0.1799
18943TIP3    H178244   0.042   3.188  11.715 -1.3366 -1.8065  1.9954
18943TIP3    H278245   0.023   3.053  11.650 -2.8171 -1.2678  1.2695
18944TIP3   OH278246   3.469   4.425   5.398  0.1575 -0.4240 -0.6864
18944TIP3    H178247   3.432   4.364   5.461 -0.9770  0.2994 -0.6256
18944TIP3    H278248   3.406   4.497   5.395  2.3042  1.5730  0.5344
18945TIP3   OH278249   1.833   0.857   2.119  0.6515 -0.2255 -0.4804
18945TIP3    H178250   1.905   0.794   2.117  1.4264  0.5728  1.2399
18945TIP3    H278251   1.811   0.865   2.211  0.4169  1.8645 -0.6989
18946TIP3   OH278252   5.151   2.804  14.073 -0.1440 -0.1491 -0.1321
18946TIP3    H178253   5.083   2.736  14.083 -0.6023  0.2701 -0.3773
18946TIP3    H278254   5.216   2.764  14.015 -0.0214 -0.6737  0.3660
18947TIP3   OH278255   1.386   5.978   2.273 -0.0881  0.0698  0.4265
18947TIP3    H178256   1.436   5.899   2.295  2.3537  2.2378  2.9467
18947TIP3    H278257   1.294   5.950   2.280  0.7111 -2.3722  1.9985
18948TIP3   OH278258   1.801   0.177  16.706  0.5229  0.4890  0.5750
18948TIP3    H178259   1.888   0.189  16.744  0.0218  2.5339  1.1620
18948TIP3    H278260   1.770   0.266  16.687 -0.0996 -0.3369 -2.7277
18949TIP3   OH278261   0.036   6.690  15.433  0.1736 -0.1605  0.2553
18949TIP3    H178262   0.129   6.683  15.411  0.3537  0.6045  0.7622
18949TIP3    H278263   0.034   6.699  15.529 -0.4809 -1.2096  0.3606
18950TIP3   OH278264   2.878   3.994  11.883  0.0203 -0.9883  0.2304
18950TIP3    H178265   2.813   4.041  11.831 -0.3973 -0.9380  0.7949
18950TIP3    H278266   2.960   4.041  11.867  0.1263 -1.6748 -1.2934
18951TIP3   OH278267   6.725   5.844  16.278  0.1741  0.0522  0.4726
18951TIP3    H178268   6.764   5.794  16.349  0.2081  0.6502  0.8840
18951TIP3    H278269   6.794   5.851  16.212 -0.3310 -1.7718 -0.2791
18952TIP3   OH278270   2.836   0.988  12.400  0.8177  0.2627 -0.3652
18952TIP3    H178271   2.918   0.950  12.429  0.4757 -0.0010  0.2592
18952TIP3    H278272   2.849   1.004  12.306  2.1616  1.7684  0.0677
18953TIP3   OH278273   2.606   3.874   5.690 -0.5600 -0.1483 -0.1339
18953TIP3    H178274   2.695   3.854   5.662 -0.4737  1.1366 -0.8459
18953TIP3    H278275   2.616   3.944   5.755 -1.0119 -0.3513  0.1559
18954TIP3   OH278276   4.221   5.280  16.384 -0.4797 -0.4820  0.5325
18954TIP3    H178277   4.240   5.191  16.353 -1.3791 -0.5810  0.2309
18954TIP3    H278278   4.185   5.267  16.472  2.4248 -0.1752  1.8060
18955TIP3   OH278279   6.509   3.263   3.787 -0.1886  0.0385 -0.0810
18955TIP3    H178280   6.603   3.246   3.776 -0.0617  0.4167  0.3724
18955TIP3    H278281   6.482   3.306   3.706  0.4637  1.7075  0.5522
18956TIP3   OH278282   2.374   5.905  14.638 -0.4960  0.5561  0.1494
18956TIP3    H178283   2.379   5.849  14.715  0.9075  0.3195 -0.0909
18956TIP3    H278284   2.322   5.856  14.575  2.1643 -1.2817 -0.6850
18957TIP3   OH278285   4.611   3.607  14.975 -0.1548  0.3380  0.5138
18957TIP3    H178286   4.633   3.621  14.882 -1.6905  1.5429  0.2929
18957TIP3    H278287   4.515   3.608  14.976 -0.1535 -0.7880  1.9679
18958TIP3   OH278288   2.265   0.062  12.456 -0.1598 -0.6044 -0.0291
18958TIP3    H178289   2.293   0.070  12.547  2.2192 -0.9026 -0.6979
18958TIP3    H278290   2.298  -0.024  12.428  0.5574  0.1757 -1.6372
18959TIP3   OH278291   1.376   0.267   2.644  0.0913  0.2992  0.1404
18959TIP3    H178292   1.321   0.238   2.717  0.7744  1.3490  1.0873
18959TIP3    H278293   1.326   0.243   2.565 -1.1394  0.1119  0.9658
18960TIP3   OH278294   1.315   3.255  12.739  0.3194  0.2529 -0.3963
18960TIP3    H178295   1.347   3.303  12.815 -0.3320 -0.2728  0.2193
18960TIP3    H278296   1.371   3.178  12.733  1.3073  1.0389 -1.3279
18961TIP3   OH278297   3.400   3.914  14.435  0.0922 -0.4669 -0.5692
18961TIP3    H178298   3.380   3.903  14.528 -2.9429 -2.1656 -1.3432
18961TIP3    H278299   3.481   3.865  14.421 -0.4726 -1.8243  0.8243
18962TIP3   OH278300   2.338   3.043  13.628  0.2620  0.2191 -0.6424
18962TIP3    H178301   2.351   3.124  13.678 -0.5596  0.3226 -0.5834
18962TIP3    H278302   2.326   3.072  13.538 -1.1322  0.2624 -0.4613
18963TIP3   OH278303   1.730   3.973  17.058 -0.0378  0.4427 -0.1751
18963TIP3    H178304   1.728   3.972  17.154  0.3705 -0.0703 -0.1728
18963TIP3    H278305   1.654   4.026  17.033 -1.1701 -0.9041  0.3900
18964TIP3   OH278306   2.909   5.401   5.535  0.1131 -0.0287  0.0160
18964TIP3    H178307   2.953   5.334   5.481 -0.4304 -0.1640 -0.2636
18964TIP3    H278308   2.959   5.481   5.519  0.9952 -0.4452  0.6425
18965TIP3   OH278309   1.733   0.552   3.273  0.5023  0.6037  0.9184
18965TIP3    H178310   1.737   0.513   3.186 -0.0086  1.9749  0.2717
18965TIP3    H278311   1.824   0.564   3.299  0.6629  1.6104 -0.0839
18966TIP3   OH278312   6.751   1.624  14.354  0.3244  0.7463  0.2840
18966TIP3    H178313   6.751   1.547  14.411  1.4501 -0.3234 -1.1200
18966TIP3    H278314   6.810   1.685  14.398  1.6967 -0.3197 -0.0335
18967TIP3   OH278315   2.730   6.457   5.244  0.2690  0.2884  0.8243
18967TIP3    H178316   2.655   6.442   5.186  0.1394  1.1799  0.7576
18967TIP3    H278317   2.707   6.536   5.293  1.9633  1.6489 -0.5192
18968TIP3   OH278318   6.104   6.320  15.615 -0.5858  0.2665 -0.4588
18968TIP3    H178319   6.113   6.225  15.612  0.4513  0.3934 -1.4536
18968TIP3    H278320   6.194   6.353  15.620 -0.9954  1.1255  2.4177
18969TIP3   OH278321   3.262   6.057  11.217  0.1821  0.3708 -0.1774
18969TIP3    H178322   3.319   6.040  11.293  0.2219  1.4096  0.0340
18969TIP3    H278323   3.196   5.987  11.221  1.1022 -0.5162 -0.1050
18970TIP3   OH278324   3.071   4.281  12.229 -0.1013 -0.5460  0.7014
18970TIP3    H178325   3.003   4.303  12.294 -1.1674  1.0211 -0.8819
18970TIP3    H278326   3.067   4.353  12.166  1.5872 -1.5456 -0.5704
18971TIP3   OH278327   1.916   1.376   1.133 -0.1576 -0.3741 -0.6380
18971TIP3    H178328   1.920   1.380   1.228 -0.0723 -2.6449 -0.5214
18971TIP3    H278329   1.847   1.313   1.114  1.0863 -1.3597 -2.0321
18972TIP3   OH278330   3.626   0.628   0.654  0.5111  0.0681 -0.0371
18972TIP3    H178331   3.618   0.536   0.679  0.5032  0.3886  1.1977
18972TIP3    H278332   3.570   0.675   0.717 -0.8992  0.7580 -1.7655
18973TIP3   OH278333   6.019   1.407  14.992  0.5964  0.7227 -0.0208
18973TIP3    H178334   5.931   1.373  14.975  0.1914  1.3439  0.7901
18973TIP3    H278335   6.010   1.502  14.983  0.9030  0.8829  1.2482
18974TIP3   OH278336   4.854   3.208  15.206  0.0511 -0.0476 -0.4857
18974TIP3    H178337   4.836   3.288  15.157  0.4602 -0.8801 -2.0036
18974TIP3    H278338   4.937   3.225  15.251  0.0597  0.4291 -0.6849
18975TIP3   OH278339   1.335   4.976  16.930 -0.1000 -0.1125  1.0459
18975TIP3    H178340   1.273   5.026  16.983 -1.2900 -0.1064 -0.3066
18975TIP3    H278341   1.300   4.887  16.930  0.7812 -0.4599  1.6062
18976TIP3   OH278342   3.855   0.741   3.812  0.3886 -0.1041 -0.5641
18976TIP3    H178343   3.938   0.788   3.801  1.1194 -0.9065  1.3231
18976TIP3    H278344   3.875   0.651   3.785 -0.2451 -0.0068 -1.3978
18977TIP3   OH278345   3.596   0.590  12.967  0.1026 -0.0468 -0.2788
18977TIP3    H178346   3.589   0.569  12.874 -0.9169 -0.5411 -0.0995
18977TIP3    H278347   3.545   0.670  12.978  2.1244  1.3172 -0.5464
18978TIP3   OH278348   2.740   2.847   5.527 -0.2759 -0.0315 -0.1455
18978TIP3    H178349   2.824   2.832   5.569 -0.6569  1.0015  0.9980
18978TIP3    H278350   2.675   2.831   5.595 -0.9405  0.6769 -0.5951
18979TIP3   OH278351   2.921   4.253   0.406  0.9086 -0.2708  0.4905
18979TIP3    H178352   2.863   4.307   0.459 -0.5832 -1.5006  0.1503
18979TIP3    H278353   2.866   4.223   0.334  1.8973 -1.6903  0.3068
18980TIP3   OH278354   1.585   2.509   5.611  0.2183 -0.9761 -0.1420
18980TIP3    H178355   1.511   2.550   5.568 -0.5073 -3.2841 -1.2001
18980TIP3    H278356   1.568   2.415   5.603  1.8414 -1.5103  2.0907
18981TIP3   OH278357   4.681   5.778  15.669 -0.0965 -0.6610 -0.3608
18981TIP3    H178358   4.755   5.837  15.685 -0.8797  0.0838  0.6104
18981TIP3    H278359   4.635   5.816  15.594  0.2676 -0.8924 -0.7014
18982TIP3   OH278360   0.978   5.419   2.238 -0.1708  0.5690  0.0594
18982TIP3    H178361   1.060   5.433   2.285  0.6865 -1.5504 -0.7670
18982TIP3    H278362   1.004   5.407   2.147 -1.1514 -2.3359  0.1183
18983TIP3   OH278363   2.169   0.909  13.805  0.3951  0.0513 -0.3187
18983TIP3    H178364   2.129   0.911  13.892 -0.2119 -0.1496 -0.5939
18983TIP3    H278365   2.230   0.983  13.805 -0.1221  0.4809  0.0290
18984TIP3   OH278366   4.774   4.891  14.101 -0.1077  0.3714 -0.5371
18984TIP3    H178367   4.766   4.938  14.183 -0.1886 -0.7667  0.1193
18984TIP3    H278368   4.815   4.953  14.041  0.1151  1.1450  0.4112
18985TIP3   OH278369   2.246   5.390   2.536  0.8500 -0.0262  0.2617
18985TIP3    H178370   2.257   5.448   2.460 -2.6253  0.3772 -0.0407
18985TIP3    H278371   2.219   5.306   2.499  0.3959 -0.2031  0.9886
18986TIP3   OH278372   1.205   6.648  13.714  0.0940 -0.3849  0.3865
18986TIP3    H178373   1.260   6.579  13.678  0.5982 -0.1037  0.6078
18986TIP3    H278374   1.115   6.622  13.692  0.0998 -2.1882  2.2927
18987TIP3   OH278375   2.851   3.671   3.228 -0.2177 -0.3019 -0.3042
18987TIP3    H178376   2.889   3.583   3.224  1.8960  0.6126 -1.1022
18987TIP3    H278377   2.833   3.685   3.321 -0.8688 -1.7003 -0.2093
18988TIP3   OH278378   4.883   5.450  15.230 -0.0584  0.6389  0.3405
18988TIP3    H178379   4.811   5.508  15.256  0.1453  1.4797 -0.9136
18988TIP3    H278380   4.890   5.461  15.135  2.4985  1.5130  0.5870
18989TIP3   OH278381   5.162   4.752  12.127 -0.2450 -0.3903 -0.3565
18989TIP3    H178382   5.123   4.760  12.214  2.0794 -0.2202  0.7140
18989TIP3    H278383   5.124   4.673  12.090 -2.3639  0.3412  0.2153
18990TIP3   OH278384   4.356   0.511   1.645 -0.0101  0.5818 -0.0054
18990TIP3    H178385   4.331   0.444   1.709  0.3754  0.2618 -0.1879
18990TIP3    H278386   4.437   0.479   1.607  0.2722  1.2426  0.0320
18991TIP3   OH278387   3.915   3.120  11.869 -0.3833 -0.0761 -0.0983
18991TIP3    H178388   3.899   3.161  11.954 -0.1446 -1.2521  0.5267
18991TIP3    H278389   3.831   3.079  11.846 -0.3302 -0.1131 -0.2310
18992TIP3   OH278390   1.938   5.899  15.453 -0.1034 -0.3597 -0.6209
18992TIP3    H178391   1.947   5.859  15.539 -0.9697  1.3687  0.2993
18992TIP3    H278392   1.919   5.826  15.394  1.0011 -1.6159  0.5522
18993TIP3   OH278393   2.161   1.652  15.677  0.0245  0.4383  0.0546
18993TIP3    H178394   2.208   1.685  15.753 -1.7029  2.1068  0.4065
18993TIP3    H278395   2.206   1.692  15.602  1.4725 -0.8960  0.1901
18994TIP3   OH278396   4.177   0.394   3.838 -0.4825 -0.6345 -0.4639
18994TIP3    H178397   4.235   0.402   3.762 -0.8413 -2.1585 -0.9307
18994TIP3    H278398   4.233   0.407   3.914  0.1632 -0.5055 -0.9648
18995TIP3   OH278399   5.391   3.440  13.317  0.0911 -0.8844 -0.2838
18995TIP3    H178400   5.424   3.475  13.235 -1.3214  0.7993 -0.1498
18995TIP3    H278401   5.412   3.507  13.382 -1.4235 -0.8714  0.2110
18996TIP3   OH278402   1.845   4.372  15.657 -0.1247  0.4034 -0.2898
18996TIP3    H178403   1.869   4.457  15.693 -2.3518  0.7162  0.4841
18996TIP3    H278404   1.822   4.391  15.565 -2.9890  1.0915  0.5169
18997TIP3   OH278405   3.844   6.322   0.716 -0.0444  1.0404 -0.0298
18997TIP3    H178406   3.856   6.328   0.621 -0.2520 -0.1293 -0.1300
18997TIP3    H278407   3.901   6.250   0.743 -1.3249  0.2231  0.4990
18998TIP3   OH278408   2.944   2.405  13.279 -0.2623  0.3451  0.1009
18998TIP3    H178409   2.985   2.341  13.336 -0.2164 -0.1316 -0.4666
18998TIP3    H278410   2.973   2.490  13.313  1.0465  0.0245 -0.1732
18999TIP3   OH278411   6.758   1.545  15.709  0.4734 -0.6904 -0.0978
18999TIP3    H178412   6.836   1.499  15.742  0.8910  0.3967  0.4573
18999TIP3    H278413   6.746   1.512  15.620  1.1269 -1.4111  0.0752
19000TIP3   OH278414   2.509   3.593   4.062  0.2839  0.1260 -0.0258
19000TIP3    H178415   2.459   3.543   3.997 -0.0848  1.3807 -0.7198
19000TIP3    H278416   2.600   3.574   4.041  0.1372 -2.0816  1.1656
19001TIP3   OH278417   1.552   4.608  14.035  0.5429  0.4942  0.3279
19001TIP3    H178418   1.477   4.617  14.094  1.0016 -0.3778  1.0658
19001TIP3    H278419   1.622   4.657  14.078  1.2607 -1.2430  1.2214
19002TIP3   OH278420   1.734   4.179   0.903 -0.1147  0.6204  0.4347
19002TIP3    H178421   1.824   4.150   0.889 -0.2914 -0.3523  1.2639
19002TIP3    H278422   1.684   4.141   0.831 -0.0802  0.1161  0.6768
19003TIP3   OH278423   6.515   0.788   0.865 -0.0188  0.1267 -0.4944
19003TIP3    H178424   6.607   0.805   0.884 -0.3572 -0.3501  1.8296
19003TIP3    H278425   6.502   0.821   0.776  2.3062  0.4790 -0.7483
19004TIP3   OH278426   0.673   0.681   2.918  0.5726 -0.2890  0.2631
19004TIP3    H178427   0.701   0.773   2.925 -1.5684  0.3158  1.1848
19004TIP3    H278428   0.737   0.632   2.969  1.5934  0.7246 -0.0267
19005TIP3   OH278429   2.177   2.257  13.371 -0.3273  0.0279  0.6302
19005TIP3    H178430   2.194   2.226  13.460 -0.3001  0.2168  0.6910
19005TIP3    H278431   2.230   2.201  13.315 -1.1362 -0.7814  0.6491
19006TIP3   OH278432   6.094   2.160  15.868 -0.1800  0.1320  0.8125
19006TIP3    H178433   6.139   2.242  15.845 -1.7014  0.9852  0.8103
19006TIP3    H278434   6.082   2.115  15.785 -3.0127  1.8346  0.2534
19007TIP3   OH278435   1.587   1.649   2.324 -0.0918  0.0270  0.3027
19007TIP3    H178436   1.511   1.652   2.266 -0.3346  1.4933  0.6829
19007TIP3    H278437   1.582   1.563   2.366 -0.7089 -0.4688 -0.7617
19008TIP3   OH278438   3.441   0.477   3.079  0.3310  0.6684 -0.0704
19008TIP3    H178439   3.357   0.430   3.079 -0.4783  1.9707 -3.0503
19008TIP3    H278440   3.456   0.499   3.170 -1.7019 -1.1210  0.7479
19009TIP3   OH278441   2.618   5.082   0.250 -0.1408 -0.2333 -0.5242
19009TIP3    H178442   2.579   5.153   0.299  2.6125  1.4849 -0.7178
19009TIP3    H278443   2.672   5.035   0.313 -1.7419 -2.0555 -0.4524
19010TIP3   OH278444   5.655   2.930  16.137  0.2377  0.6223  0.0464
19010TIP3    H178445   5.559   2.928  16.144  0.3564 -1.4272  1.3357
19010TIP3    H278446   5.681   2.838  16.132  2.2779  1.0720  1.5973
19011TIP3   OH278447   0.464   5.554  10.552  0.0896  0.3761  0.4460
19011TIP3    H178448   0.452   5.523  10.641 -1.9032 -1.5405 -0.4365
19011TIP3    H278449   0.514   5.485  10.509 -0.2912  0.5532 -0.3002
19012TIP3   OH278450   5.759   5.301   3.214  0.0569  0.4223 -0.1945
19012TIP3    H178451   5.763   5.271   3.305  0.1914  0.3876 -0.2120
19012TIP3    H278452   5.816   5.240   3.166 -0.7874 -0.1752 -0.4656
19013TIP3   OH278453   1.879   2.964  12.711 -0.0378  0.1446  0.6358
19013TIP3    H178454   1.944   2.894  12.710  1.1788  1.2532  0.1671
19013TIP3    H278455   1.817   2.940  12.643  0.6747 -0.2004  0.1023
19014TIP3   OH278456   6.651   2.993   4.312  0.6000 -0.6063  0.3404
19014TIP3    H178457   6.644   2.997   4.217  0.9867  0.6425  0.3527
19014TIP3    H278458   6.563   2.970   4.342 -0.5113  2.8212 -0.1246
19015TIP3   OH278459   6.096   5.660  15.078  0.5639 -0.3019 -0.0005
19015TIP3    H178460   6.108   5.660  14.983  1.0660  1.3746  0.0565
19015TIP3    H278461   6.171   5.613  15.112 -0.0765 -1.6962 -0.4809
19016TIP3   OH278462   2.086   3.347  13.955 -0.0264 -0.4202 -0.1774
19016TIP3    H178463   2.040   3.391  13.884  0.6353 -1.0021 -0.9738
19016TIP3    H278464   2.167   3.316  13.915  0.6005 -0.2669  0.9704
19017TIP3   OH278465   5.638   0.575  14.691  0.9399 -0.2095  0.0238
19017TIP3    H178466   5.705   0.529  14.640 -0.1015 -1.7289  0.0282
19017TIP3    H278467   5.577   0.609  14.626  0.6783 -0.4542  0.1430
19018TIP3   OH278468   3.826   5.121   0.257 -0.0336 -0.1539  0.2741
19018TIP3    H178469   3.807   5.079   0.341 -0.4786 -0.6739 -0.0809
19018TIP3    H278470   3.810   5.214   0.273 -1.5316 -0.4153  0.3820
19019TIP3   OH278471   2.443   3.984  16.114  0.4123  0.0582  0.0995
19019TIP3    H178472   2.390   4.039  16.057  1.2107  0.0073 -0.7091
19019TIP3    H278473   2.510   4.043  16.149  1.2659 -0.3788 -0.7653
19020TIP3   OH278474   5.050   3.074   2.025 -0.0477  0.0598 -0.0211
19020TIP3    H178475   5.036   3.153   2.077 -1.0466  0.4587 -0.8585
19020TIP3    H278476   5.057   3.003   2.089 -0.4228  0.6527  0.6802
19021TIP3   OH278477   1.294   4.302   5.419  0.4841  0.1818 -0.0820
19021TIP3    H178478   1.332   4.227   5.465  2.0284  0.3250 -1.0876
19021TIP3    H278479   1.206   4.273   5.395  0.7654 -1.0056  0.2798
19022TIP3   OH278480   6.367   5.485   1.772 -0.1644  0.7572 -0.6472
19022TIP3    H178481   6.394   5.562   1.721 -1.9917  0.8250 -1.5823
19022TIP3    H278482   6.304   5.520   1.835  1.0333  0.4413  0.7353
19023TIP3   OH278483   0.321   1.956  12.761 -0.2327 -0.4962  0.3099
19023TIP3    H178484   0.327   1.911  12.845  1.5764 -0.2099  0.3500
19023TIP3    H278485   0.352   1.892  12.697  1.5389  0.3725  0.2690
19024TIP3   OH278486   2.657   0.863   6.582 -0.2741 -0.1085 -0.1295
19024TIP3    H178487   2.581   0.921   6.581  0.5229  0.9390 -0.2459
19024TIP3    H278488   2.636   0.797   6.648 -1.7949 -0.5119 -0.9967
19025TIP3   OH278489   5.893   6.436  15.817  0.2267 -0.2677  0.5484
19025TIP3    H178490   5.963   6.392  15.769  0.8761  1.0598  0.2699
19025TIP3    H278491   5.831   6.464  15.750  1.2611  1.8143  0.4369
19026TIP3   OH278492   1.840   3.734  13.870 -0.6277 -0.7651  0.1718
19026TIP3    H178493   1.752   3.765  13.846 -0.0970 -0.4985 -1.4874
19026TIP3    H278494   1.850   3.760  13.962 -2.1531 -0.5038  0.2822
19027TIP3   OH278495   6.467   6.311  12.324  0.0364  0.2100  0.1518
19027TIP3    H178496   6.438   6.393  12.284  0.3934  1.1397  1.7356
19027TIP3    H278497   6.524   6.271  12.258 -1.5347  0.3717 -1.3334
19028TIP3   OH278498   3.385   4.682   3.437 -0.5628  0.2128  0.2850
19028TIP3    H178499   3.465   4.717   3.396  0.4117 -1.5239  0.6624
19028TIP3    H278500   3.324   4.671   3.364  0.2491 -0.3439 -0.3250
19029TIP3   OH278501   4.445   0.119   1.845  0.4867  0.1740  0.4732
19029TIP3    H178502   4.499   0.094   1.919 -0.0313 -1.7160  0.2399
19029TIP3    H278503   4.505   0.120   1.770  0.5282 -0.2517  0.5039
19030TIP3   OH278504   2.673   6.542   2.688 -0.0010  0.6857 -0.0268
19030TIP3    H178505   2.666   6.449   2.710 -1.0754  0.9207  0.7002
19030TIP3    H278506   2.621   6.552   2.609 -1.8635  1.0711  1.2027
19031TIP3   OH278507   6.162   0.754  13.319 -0.2245  0.0761  0.5115
19031TIP3    H178508   6.182   0.691  13.388  0.5353 -0.5527 -0.2876
19031TIP3    H278509   6.142   0.835  13.367 -0.0338 -0.4415  1.4868
19032TIP3   OH278510   2.772   2.987  12.265  0.2759 -0.2081 -0.4129
19032TIP3    H178511   2.720   3.018  12.339  0.0849  0.6539 -0.9022
19032TIP3    H278512   2.741   3.038  12.190  2.3146  0.8720 -0.5724
19033TIP3   OH278513   3.980   2.454  10.932  0.4988 -0.9536  0.2313
19033TIP3    H178514   4.020   2.531  10.972  0.1737 -0.8705  0.4011
19033TIP3    H278515   4.014   2.380  10.982  0.4594 -0.8849  0.3601
19034TIP3   OH278516   3.081   1.184   3.209  0.4735 -0.0274 -0.0901
19034TIP3    H178517   3.127   1.235   3.143 -0.3810  0.4261 -0.3468
19034TIP3    H278518   3.121   1.097   3.205  0.3400 -0.0381 -1.2978
19035TIP3   OH278519   5.923   6.388  11.092 -0.2139  1.1586 -0.5768
19035TIP3    H178520   5.852   6.405  11.030 -0.5832 -0.4618 -0.6145
19035TIP3    H278521   5.886   6.409  11.177 -0.5324  0.9156 -0.6555
19036TIP3   OH278522   2.615   3.650   0.440  0.0336 -0.2341  0.7720
19036TIP3    H178523   2.597   3.693   0.524  3.2220  0.0906  1.3358
19036TIP3    H278524   2.690   3.594   0.457 -0.8391 -2.1198 -1.2763
19037TIP3   OH278525   4.492   6.729   5.158 -0.0150  0.0584  0.1667
19037TIP3    H178526   4.490   6.714   5.253  1.8323  0.1216  0.2356
19037TIP3    H278527   4.541   6.654   5.123 -0.3352  0.2469 -0.6965
19038TIP3   OH278528   2.498   0.567   2.321  0.2082 -0.1416 -0.2728
19038TIP3    H178529   2.451   0.513   2.384  1.4464  0.9373  1.6222
19038TIP3    H278530   2.497   0.516   2.240 -0.7086 -1.9090  0.8251
19039TIP3   OH278531   0.232   2.336  16.847 -0.3137  0.6876  0.2432
19039TIP3    H178532   0.216   2.372  16.759  0.7420 -0.8849 -0.6182
19039TIP3    H278533   0.158   2.366  16.899 -0.8696  1.7982 -1.1321
19040TIP3   OH278534   3.029   3.567   5.424 -0.3046  0.0905  0.2491
19040TIP3    H178535   3.000   3.633   5.360 -1.1956  1.6001  2.1306
19040TIP3    H278536   3.004   3.604   5.509  2.2997 -1.1089  1.6009
19041TIP3   OH278537   4.585   6.525   1.876 -0.4617  0.4436  0.5821
19041TIP3    H178538   4.554   6.566   1.795 -0.8961 -0.7599  0.1286
19041TIP3    H278539   4.515   6.466   1.902  1.2710 -2.0786 -0.2883
19042TIP3   OH278540   4.594   1.034   1.240 -0.3562  0.2310 -0.1411
19042TIP3    H178541   4.610   0.956   1.293 -1.8442 -1.2694 -1.8710
19042TIP3    H278542   4.661   1.032   1.172  0.9536  1.6489  1.0671
19043TIP3   OH278543   1.957   3.180  13.231 -0.4960  0.3134 -0.1408
19043TIP3    H178544   2.025   3.246  13.221  1.7334 -2.1451 -1.5228
19043TIP3    H278545   1.927   3.191  13.321  1.3490  1.7575  0.3325
19044TIP3   OH278546   1.124   4.216  14.374 -0.1847  0.2135  0.3591
19044TIP3    H178547   1.093   4.279  14.440  0.7432  2.1560 -0.9891
19044TIP3    H278548   1.217   4.205  14.394 -0.4077 -0.9608  0.7523
19045TIP3   OH278549   2.001   0.451   5.783  0.4516  0.0315 -0.3071
19045TIP3    H178550   1.960   0.412   5.706 -0.5289  1.7692 -0.6987
19045TIP3    H278551   1.928   0.478   5.838  0.9786  3.3445 -1.0982
19046TIP3   OH278552   6.229   0.151  17.078  0.0031 -0.4923 -0.2461
19046TIP3    H178553   6.163   0.220  17.079  0.0696 -0.4272  0.6439
19046TIP3    H278554   6.193   0.084  17.019  0.1932  0.5266 -1.5258
19047TIP3   OH278555   3.927   0.948  14.368  0.0708 -0.1140  0.4034
19047TIP3    H178556   3.998   1.011  14.381 -0.3036  0.0762  1.6202
19047TIP3    H278557   3.957   0.868  14.411 -0.2739 -0.1569  0.5695
19048TIP3   OH278558   3.446   6.231   1.024 -0.0944 -0.1611 -0.0772
19048TIP3    H178559   3.454   6.299   1.092 -1.6875  0.0191 -0.0652
19048TIP3    H278560   3.374   6.261   0.969  0.3963 -0.9369 -1.1415
19049TIP3   OH278561   0.869   2.266  16.237  0.4275 -0.0089  0.0117
19049TIP3    H178562   0.865   2.350  16.282  0.6322  0.3607 -0.6631
19049TIP3    H278563   0.787   2.259  16.190  0.4820 -0.1177 -0.0691
19050TIP3   OH278564   1.457   0.637   4.758 -0.2624  0.2708 -0.4392
19050TIP3    H178565   1.505   0.655   4.677  0.6800  0.2315  0.0980
19050TIP3    H278566   1.525   0.618   4.822 -1.0420 -0.6995  0.1219
19051TIP3   OH278567   1.680   2.061  11.722  0.5363 -0.0624  0.9695
19051TIP3    H178568   1.748   2.129  11.720 -0.9422  1.4336 -0.3406
19051TIP3    H278569   1.600   2.108  11.699 -0.3710 -2.4509 -0.8268
19052TIP3   OH278570   0.027   1.913   3.968  0.5782 -0.2731  0.2378
19052TIP3    H178571  -0.061   1.878   3.954  0.1122  0.8081  0.4413
19052TIP3    H278572   0.020   2.006   3.946  1.6508 -0.1557  0.3456
19053TIP3   OH278573   2.268   4.291   0.873  0.8790 -0.6057 -0.3033
19053TIP3    H178574   2.362   4.291   0.857  1.1863  0.7411  1.3920
19053TIP3    H278575   2.229   4.314   0.789  2.0666 -0.9442 -0.9594
19054TIP3   OH278576   3.335   1.787  13.819 -0.1641  0.4016 -0.5176
19054TIP3    H178577   3.419   1.833  13.812  0.2941  0.0171  1.7592
19054TIP3    H278578   3.270   1.857  13.824  0.2465  0.7617 -0.0611
19055TIP3   OH278579   5.891   5.789   3.137  0.3347 -0.3641  0.5037
19055TIP3    H178580   5.908   5.791   3.231 -1.3771 -1.0564  0.8491
19055TIP3    H278581   5.869   5.879   3.114 -1.1221 -0.5413  1.1458
19056TIP3   OH278582   2.555   4.942  16.255  0.0981 -0.6447  0.1620
19056TIP3    H178583   2.471   4.899  16.240 -1.5224  2.1290  0.9326
19056TIP3    H278584   2.563   5.006  16.184  0.5169  0.6144  1.3252
19057TIP3   OH278585   1.543   5.436  11.351 -0.1429 -0.7096 -0.3055
19057TIP3    H178586   1.463   5.443  11.403  1.1268  0.2765  1.5687
19057TIP3    H278587   1.613   5.428  11.416  1.5494  1.1310 -1.8533
19058TIP3   OH278588   5.262   5.568   0.990  0.2297 -0.0982  0.6306
19058TIP3    H178589   5.222   5.486   1.021  0.1360 -0.7746 -1.2186
19058TIP3    H278590   5.188   5.622   0.965  0.3886 -0.4503 -0.5994
19059TIP3   OH278591   5.280   4.485  10.436  0.0164  0.0847  0.0326
19059TIP3    H178592   5.335   4.562  10.425  1.3443 -0.4679  2.4158
19059TIP3    H278593   5.246   4.491  10.525  1.6330 -2.9537  0.9463
19060TIP3   OH278594   5.589   2.668  14.461  0.4020 -0.8438 -0.1168
19060TIP3    H178595   5.679   2.664  14.427  0.6947  2.4320  0.1436
19060TIP3    H278596   5.592   2.615  14.541  2.7283  1.1098  1.1470
19061TIP3   OH278597   6.498   4.841   0.766 -0.4018 -0.2604  0.1024
19061TIP3    H178598   6.580   4.834   0.718  1.2098 -0.0141  2.7046
19061TIP3    H278599   6.438   4.883   0.705  1.1943 -1.0613 -2.0900
19062TIP3   OH278600   5.134   3.012   1.761  0.8283  0.6894  0.1764
19062TIP3    H178601   5.103   3.047   1.845  0.4134 -0.3493  0.4532
19062TIP3    H278602   5.105   3.077   1.697 -3.1815 -0.9116  0.2456
19063TIP3   OH278603   3.795   2.601  14.348 -0.1407  0.6754 -0.0348
19063TIP3    H178604   3.721   2.549  14.378  0.1533  1.0707  1.4154
19063TIP3    H278605   3.868   2.539  14.341 -0.4471  0.4078 -0.8306
19064TIP3   OH278606   4.505   1.874   4.600  0.4866 -0.5349 -0.2832
19064TIP3    H178607   4.567   1.871   4.527 -0.6538 -1.1475 -1.2370
19064TIP3    H278608   4.427   1.915   4.564 -0.0891 -0.8375  0.6055
19065TIP3   OH278609   0.686   2.862  12.487 -0.5583  0.3872 -0.1936
19065TIP3    H178610   0.739   2.782  12.492  1.3629  1.6066 -0.7760
19065TIP3    H278611   0.636   2.863  12.569  0.4863 -0.6581  0.4718
19066TIP3   OH278612   4.678   4.573  14.671 -0.7018 -0.0983  0.6237
19066TIP3    H178613   4.722   4.496  14.634 -0.0848  0.0940  0.9467
19066TIP3    H278614   4.612   4.597  14.606  0.4777  0.3288 -0.4448
19067TIP3   OH278615   2.950   1.968   0.168  0.1723 -0.2004 -0.4598
19067TIP3    H178616   2.966   2.004   0.255  1.6708  0.7853 -1.1259
19067TIP3    H278617   2.959   1.874   0.179  0.8260 -0.0441  0.3517
19068TIP3   OH278618   3.351   4.711   2.393 -0.1226  0.0262  0.0451
19068TIP3    H178619   3.265   4.676   2.416  0.0739  0.9053  2.2234
19068TIP3    H278620   3.411   4.636   2.403 -0.5383 -0.4485 -0.9558
19069TIP3   OH278621   5.535   5.853  11.444  0.3635  0.2784  0.1218
19069TIP3    H178622   5.562   5.873  11.355  1.9430 -1.2232  0.2234
19069TIP3    H278623   5.612   5.872  11.497  0.5033 -1.7956  0.7394
19070TIP3   OH278624   1.808   0.163  13.396 -0.0557  0.4203  0.1953
19070TIP3    H178625   1.895   0.143  13.430 -0.2172  1.2440  1.1283
19070TIP3    H278626   1.749   0.109  13.448 -0.0691 -0.5684 -0.8229
19071TIP3   OH278627   5.437   2.629   0.589  0.4038 -0.2121  0.0913
19071TIP3    H178628   5.413   2.623   0.497  0.9253  0.4544 -0.0932
19071TIP3    H278629   5.469   2.719   0.600  1.5044 -0.6577  0.6484
19072TIP3   OH278630   3.153   1.328  10.266  0.4455 -0.4719 -0.7063
19072TIP3    H178631   3.248   1.324  10.279  0.1627 -0.1014  1.6427
19072TIP3    H278632   3.130   1.420  10.279 -0.1796 -0.4841 -1.6885
19073TIP3   OH278633   3.957   5.182   2.906  0.1644  0.9176 -0.1692
19073TIP3    H178634   3.963   5.094   2.867 -1.8176  0.8754 -0.4730
19073TIP3    H278635   3.868   5.184   2.944  0.9946  2.0064  1.7850
19074TIP3   OH278636   5.809   3.797   6.975 -0.0772  0.6748 -0.0030
19074TIP3    H178637   5.757   3.733   6.928  1.4298 -1.1142  0.6763
19074TIP3    H278638   5.810   3.765   7.066 -0.3450  2.3511  0.6101
19075TIP3   OH278639   2.777   4.142  14.870  0.4337  0.3339 -0.2444
19075TIP3    H178640   2.753   4.050  14.883  1.0273  0.4382  1.9035
19075TIP3    H278641   2.781   4.154  14.775 -2.1416 -1.1946 -0.5820
19076TIP3   OH278642   5.037   4.903   1.864  0.4264  0.8375  0.0054
19076TIP3    H178643   5.034   4.978   1.924  0.7379  0.2001  0.8284
19076TIP3    H278644   4.978   4.838   1.904  2.6213 -0.5929  1.0031
19077TIP3   OH278645   3.159   1.394  11.883 -0.2028 -0.2042 -0.0206
19077TIP3    H178646   3.086   1.439  11.925 -0.0915  0.1140 -0.1648
19077TIP3    H278647   3.148   1.410  11.790  1.5346  2.1737  0.1120
19078TIP3   OH278648   3.144   5.870   2.915  0.2820  0.4357  0.0755
19078TIP3    H178649   3.225   5.846   2.961 -0.1011  0.0382  0.5498
19078TIP3    H278650   3.100   5.931   2.975  1.0320  1.9812 -0.9228
19079TIP3   OH278651   2.631   0.100   2.094 -0.5173 -0.0098  0.6672
19079TIP3    H178652   2.545   0.087   2.055 -1.4682  1.3780  2.2055
19079TIP3    H278653   2.693   0.081   2.023 -2.1216  0.4300 -0.8957
19080TIP3   OH278654   4.467   1.702  12.918  0.4479  0.1589  0.1751
19080TIP3    H178655   4.375   1.680  12.912  0.2100  1.0150  0.5092
19080TIP3    H278656   4.513   1.628  12.878 -0.4709  0.6400 -1.8163
19081TIP3   OH278657   1.486   3.942  15.798 -0.0587  0.2588  0.4987
19081TIP3    H178658   1.411   3.974  15.749 -1.1301  0.2658  2.1217
19081TIP3    H278659   1.460   3.950  15.890  0.9605 -2.0752  1.0105
19082TIP3   OH278660   5.898   1.988   1.809  0.0587 -0.1738 -0.5524
19082TIP3    H178661   5.930   2.076   1.790  1.0208 -0.6193 -1.0429
19082TIP3    H278662   5.910   1.978   1.903 -2.0916  1.0054 -0.1178
19083TIP3   OH278663   6.107   4.585  16.620 -0.2358 -0.1724 -0.1946
19083TIP3    H178664   6.184   4.529  16.603 -0.4572 -0.2369 -1.0020
19083TIP3    H278665   6.040   4.524  16.650  0.4551  0.0659  1.9222
19084TIP3   OH278666   5.263   0.373  14.251 -0.2185 -0.2803 -0.0676
19084TIP3    H178667   5.305   0.458  14.257 -0.5212 -0.1687  0.5088
19084TIP3    H278668   5.170   0.391  14.268 -0.2404 -0.7616  0.3295
19085TIP3   OH278669   3.690   3.240   5.450 -0.2355  0.5982 -0.3454
19085TIP3    H178670   3.675   3.149   5.476 -0.2604  0.2954 -1.4173
19085TIP3    H278671   3.611   3.286   5.480 -0.3585  0.2189 -0.0786
19086TIP3   OH278672   4.613   0.530  17.073 -0.1231  0.2111 -0.5573
19086TIP3    H178673   4.692   0.564  17.113  0.1622  0.4493 -1.3043
19086TIP3    H278674   4.588   0.454  17.126 -0.2660  1.0642  0.5923
19087TIP3   OH278675   3.859   6.594  15.054  0.3081  0.3224 -0.4461
19087TIP3    H178676   3.943   6.549  15.060 -0.7386 -1.6037  0.3164
19087TIP3    H278677   3.800   6.541  15.107 -1.5194  1.3531 -1.4075
19088TIP3   OH278678   5.269   1.125   3.605 -0.1266  0.5439  0.0769
19088TIP3    H178679   5.352   1.165   3.580  0.6856 -0.5886  0.9239
19088TIP3    H278680   5.285   1.089   3.692 -0.7348 -1.9058 -0.7880
19089TIP3   OH278681   5.714   3.609  10.931  0.1744  0.0273  0.1854
19089TIP3    H178682   5.644   3.545  10.918 -1.4013  0.8353  3.9626
19089TIP3    H278683   5.669   3.690  10.955  2.3539  1.0938  0.8419
19090TIP3   OH278684   0.200   6.504   4.659 -0.0449 -0.3574  0.3560
19090TIP3    H178685   0.295   6.508   4.665 -0.0306 -0.3275  0.1018
19090TIP3    H278686   0.169   6.568   4.724  0.1082 -0.2428  0.3140
19091TIP3   OH278687   2.040   0.887  16.528 -0.3452 -0.5400 -0.6919
19091TIP3    H178688   2.021   0.814  16.587 -0.1975  0.0771  0.1326
19091TIP3    H278689   2.126   0.919  16.557 -0.2431 -0.2670 -1.2854
19092TIP3   OH278690   0.768   5.918  11.592  0.4838 -0.2004  0.2276
19092TIP3    H178691   0.727   5.968  11.521  0.4519 -2.2257 -1.2173
19092TIP3    H278692   0.700   5.914  11.660 -0.5146 -0.6645 -0.7810
19093TIP3   OH278693   0.666   5.995   2.301 -0.4649 -0.3763 -0.4617
19093TIP3    H178694   0.761   5.986   2.289 -0.2959 -0.9538  1.1898
19093TIP3    H278695   0.656   6.073   2.355 -0.8437 -0.9045  0.2552
19094TIP3   OH278696   1.956   4.962  10.710  0.0862 -0.5874  0.1867
19094TIP3    H178697   1.914   4.878  10.691 -1.0054 -0.4064  1.7028
19094TIP3    H278698   1.905   5.026  10.660 -0.1295 -0.6268  0.3544
19095TIP3   OH278699   1.575   2.342   2.572  0.0481  0.0688  0.0624
19095TIP3    H178700   1.625   2.283   2.628  0.3341 -1.1117 -1.3984
19095TIP3    H278701   1.581   2.428   2.615  1.6150 -0.4812  0.9654
19096TIP3   OH278702   4.535   2.065  12.009  0.0063 -0.3843  0.4524
19096TIP3    H178703   4.592   1.989  12.019  2.3341  1.1872 -0.3933
19096TIP3    H278704   4.511   2.088  12.099 -0.7455 -2.1083  0.7178
19097TIP3   OH278705   0.075   5.408  11.283 -0.5262 -0.4724 -0.4312
19097TIP3    H178706   0.031   5.352  11.219  0.5263 -0.3966 -1.2262
19097TIP3    H278707   0.116   5.477  11.230 -0.1771 -0.0550  0.3809
19098TIP3   OH278708   2.016   1.667   5.057  0.4479 -0.5587  0.3062
19098TIP3    H178709   2.029   1.754   5.020  0.0709 -0.2960  0.7929
19098TIP3    H278710   2.034   1.678   5.151  2.0328 -1.3538  0.1137
19099TIP3   OH278711   5.736   4.464  11.206 -0.3125 -0.4104  0.3173
19099TIP3    H178712   5.785   4.544  11.187 -0.1443 -0.7572 -0.7274
19099TIP3    H278713   5.800   4.406  11.245 -0.8614  0.6224  2.8567
19100TIP3   OH278714   4.207   5.674   1.665 -0.4067 -0.3906  0.2295
19100TIP3    H178715   4.164   5.632   1.739  0.4458 -2.0257 -0.1887
19100TIP3    H278716   4.143   5.667   1.593 -0.5625 -0.3070  0.3605
19101TIP3   OH278717   1.027   2.064  16.384 -0.0036  0.5658 -0.0733
19101TIP3    H178718   0.994   2.130  16.323 -0.1752 -0.3111 -0.9466
19101TIP3    H278719   0.960   1.996  16.384 -0.3399  0.8572  1.6299
19102TIP3   OH278720   0.851   1.409   0.942  0.3566 -0.5137  0.0509
19102TIP3    H178721   0.854   1.451   0.856  1.6741 -1.4673 -0.3859
19102TIP3    H278722   0.890   1.323   0.927  1.8945 -0.1619  1.8874
19103TIP3   OH278723   5.388   0.752   2.352  0.7932  0.2303 -0.3030
19103TIP3    H178724   5.398   0.702   2.271  1.3692  1.3727 -0.9446
19103TIP3    H278725   5.390   0.686   2.421  1.4590 -0.6442 -1.1436
19104TIP3   OH278726   5.639   3.590   5.825  0.1994  0.4512 -0.3152
19104TIP3    H178727   5.625   3.604   5.731  2.7477 -0.1356 -0.8351
19104TIP3    H278728   5.651   3.495   5.834  0.4111  0.5500  0.5131
19105TIP3   OH278729   3.438   3.155   2.419 -0.1277  0.4950  0.4185
19105TIP3    H178730   3.489   3.222   2.373 -0.1160 -1.2336 -2.1194
19105TIP3    H278731   3.351   3.160   2.381 -0.2684 -0.5957  0.5944
19106TIP3   OH278732   1.634   4.956  13.599  0.6633  0.5274 -0.1608
19106TIP3    H178733   1.607   4.937  13.509 -0.1469  1.8727 -0.2109
19106TIP3    H278734   1.675   4.875  13.630  0.7366 -0.0117 -1.6625
19107TIP3   OH278735   1.031   5.748  16.178 -0.0541 -0.3322 -0.2641
19107TIP3    H178736   0.945   5.708  16.195 -0.1894  0.2209  0.3620
19107TIP3    H278737   1.037   5.751  16.082 -0.4287 -1.0218 -0.3141
19108TIP3   OH278738   4.243   0.592  11.307  0.0685 -0.2909  0.2137
19108TIP3    H178739   4.288   0.539  11.373  0.8537  0.1387  0.0321
19108TIP3    H278740   4.167   0.627  11.353  0.3119 -0.4395  0.7327
19109TIP3   OH278741   5.422   6.534  12.969 -0.1500 -0.3287  0.2756
19109TIP3    H178742   5.463   6.616  12.999 -1.1157  0.0377  0.6356
19109TIP3    H278743   5.338   6.562  12.933  1.1182 -0.6928 -3.2130
19110TIP3   OH278744   4.126   1.419  12.584 -0.0718 -0.1249 -0.4429
19110TIP3    H178745   4.140   1.497  12.529 -0.2723 -0.0946 -0.4536
19110TIP3    H278746   4.153   1.346  12.529 -0.1118 -0.0805 -0.5223
19111TIP3   OH278747   0.670   0.393   5.285  0.1816 -0.2340 -0.4543
19111TIP3    H178748   0.618   0.472   5.270  0.5453  0.4119  1.6205
19111TIP3    H278749   0.702   0.369   5.198  0.3705  2.1174 -1.0499
19112TIP3   OH278750   0.045   1.978   1.077 -0.2256 -0.2619  0.6409
19112TIP3    H178751   0.119   2.030   1.045 -0.0389 -0.8825  0.0427
19112TIP3    H278752  -0.030   2.037   1.072  0.2891  0.4757  1.5657
19113TIP3   OH278753   1.736   6.461   3.211 -0.4347 -0.5228 -0.8841
19113TIP3    H178754   1.655   6.409   3.217 -1.6000  1.2414 -0.8384
19113TIP3    H278755   1.790   6.415   3.147 -2.2682 -0.7277 -2.3356
19114TIP3   OH278756   5.710   1.300   3.110  0.0625  0.8686 -0.5960
19114TIP3    H178757   5.619   1.327   3.117  0.6350  2.6814 -0.0034
19114TIP3    H278758   5.756   1.377   3.079  1.2515 -0.3557 -1.9969
19115TIP3   OH278759   4.267   6.526  11.751 -0.5255 -0.0291  0.1924
19115TIP3    H178760   4.194   6.530  11.812  0.5879 -0.5725  1.5992
19115TIP3    H278761   4.342   6.555  11.802  0.0620  1.6241 -1.5484
19116TIP3   OH278762   0.839   5.159   4.086  0.1690 -0.6902 -0.0071
19116TIP3    H178763   0.770   5.096   4.067 -0.0506 -1.1570  2.2467
19116TIP3    H278764   0.920   5.116   4.057 -0.2539 -0.9223 -0.8628
19117TIP3   OH278765   3.415   5.543   1.628 -0.1977  0.1752 -0.1841
19117TIP3    H178766   3.363   5.623   1.621 -0.4134  0.0350 -0.1844
19117TIP3    H278767   3.360   5.475   1.589 -0.5899 -0.2402  1.0570
19118TIP3   OH278768   0.451   1.084   3.717  0.0381  0.6596 -0.2218
19118TIP3    H178769   0.401   1.164   3.733 -1.5749 -0.4760  0.4759
19118TIP3    H278770   0.389   1.013   3.732  1.5611 -0.7486 -0.4565
19119TIP3   OH278771   3.399   6.327   4.815 -0.1089  0.3535 -0.3406
19119TIP3    H178772   3.351   6.247   4.836 -1.4733  1.3687  0.5462
19119TIP3    H278773   3.337   6.379   4.763 -0.0552  1.7728  0.9780
19120TIP3   OH278774   2.342   3.161  17.009 -0.0548 -0.5148 -0.0956
19120TIP3    H178775   2.286   3.085  17.024 -1.6340  0.2087 -2.1061
19120TIP3    H278776   2.348   3.204  17.095 -1.1676 -1.5338  0.5028
19121TIP3   OH278777   0.823   5.404  14.910 -0.3595  0.4970 -0.2201
19121TIP3    H178778   0.818   5.469  14.840 -2.3979 -1.4470 -1.9399
19121TIP3    H278779   0.885   5.339  14.877 -0.2424  0.2947  0.4010
19122TIP3   OH278780   2.867   2.464  11.862 -0.0308 -0.4852 -0.0591
19122TIP3    H178781   2.784   2.481  11.816  1.0753  1.8970 -1.2483
19122TIP3    H278782   2.841   2.442  11.951 -1.8863  1.9454  0.0451
19123TIP3   OH278783   4.572   3.369   3.612  0.1067  0.8248 -0.4233
19123TIP3    H178784   4.501   3.376   3.675 -0.1955  1.0413 -0.7839
19123TIP3    H278785   4.566   3.449   3.559 -0.0796  0.3222 -1.1742
19124TIP3   OH278786   2.080   0.377  17.171  0.0594 -0.4754  0.1011
19124TIP3    H178787   1.986   0.394  17.161 -0.2398 -0.8541  1.9739
19124TIP3    H278788   2.106   0.433  17.244  1.1365 -0.9051  0.0496
19125TIP3   OH278789   2.516   2.049  13.864 -0.1900 -0.1460  0.3554
19125TIP3    H178790   2.512   2.012  13.776 -1.4427  4.1695 -1.5172
19125TIP3    H278791   2.425   2.068  13.886  0.3121  0.6942  1.7409
19126TIP3   OH278792   2.141   5.363   4.513 -0.4305 -0.2488 -0.1284
19126TIP3    H178793   2.175   5.359   4.602 -0.2395  1.7068 -0.0839
19126TIP3    H278794   2.049   5.341   4.521 -0.7535  1.3742  0.7859
19127TIP3   OH278795   1.455   2.704  12.695 -0.3656 -0.2227 -0.0332
19127TIP3    H178796   1.423   2.710  12.605 -0.8382 -1.4958  0.0394
19127TIP3    H278797   1.378   2.678  12.746  0.1297 -0.4574  0.5942
19128TIP3   OH278798   6.166   5.927   0.226  0.4155  0.0148  0.8619
19128TIP3    H178799   6.199   5.888   0.307 -0.0179 -0.5861  0.7600
19128TIP3    H278800   6.092   5.871   0.201  0.6949  0.0485 -0.0752
19129TIP3   OH278801   1.559   3.250  13.305  0.3096  0.4357  0.4405
19129TIP3    H178802   1.561   3.213  13.393 -0.3955  0.6100  0.5274
19129TIP3    H278803   1.479   3.301  13.301  0.1596  0.1490 -0.4200
19130TIP3   OH278804   6.379   5.516   1.077 -0.2603 -0.0459  0.0606
19130TIP3    H178805   6.421   5.602   1.087 -0.5245  0.1707 -0.6580
19130TIP3    H278806   6.442   5.464   1.027 -0.0902 -0.2777  0.5169
19131TIP3   OH278807   2.788   6.684   0.493 -0.0010 -0.2885 -0.1456
19131TIP3    H178808   2.701   6.691   0.454 -0.0892  1.0871  0.2837
19131TIP3    H278809   2.800   6.590   0.507 -0.4485 -0.7179 -2.3723
19132TIP3   OH278810   6.198   2.727  11.937 -0.1762 -0.2682  0.2495
19132TIP3    H178811   6.107   2.736  11.966 -0.0916  0.2693  0.3638
19132TIP3    H278812   6.193   2.725  11.842 -0.2643  0.3381  0.2394
19133TIP3   OH278813   4.511   5.775   2.728  0.1838  0.1899  0.0227
19133TIP3    H178814   4.561   5.727   2.794  0.9596 -0.5959 -1.1009
19133TIP3    H278815   4.577   5.824   2.679 -0.4379  1.1589  0.1545
19134TIP3   OH278816   4.914   1.472   1.020  0.2400 -0.2747 -0.0845
19134TIP3    H178817   4.873   1.402   0.970 -1.3884  0.8947 -0.4426
19134TIP3    H278818   4.845   1.538   1.028  1.5566  1.0096  0.7692
19135TIP3   OH278819   0.399   0.343   5.752  0.5655 -0.0997  0.0063
19135TIP3    H178820   0.396   0.331   5.847 -1.8599  3.0268  0.4070
19135TIP3    H278821   0.492   0.352   5.732  1.1885 -1.9185  1.9023
19136TIP3   OH278822   5.155   4.656  12.667 -0.3498 -0.1973  0.0227
19136TIP3    H178823   5.072   4.662  12.621 -0.6712 -0.4881  0.5584
19136TIP3    H278824   5.220   4.637  12.599 -0.5881  0.8589 -0.5088
19137TIP3   OH278825   1.202   1.197   1.680  0.0233  0.5102 -0.1364
19137TIP3    H178826   1.142   1.149   1.738  0.0050  0.3113 -0.3201
19137TIP3    H278827   1.265   1.238   1.740 -1.2078  1.9879  0.1569
19138TIP3   OH278828   0.920   5.533   2.885 -0.3975 -0.0574  0.6300
19138TIP3    H178829   0.918   5.441   2.909 -1.2796 -0.1217  0.3211
19138TIP3    H278830   1.004   5.565   2.918  0.4811 -1.2736 -0.3743
19139TIP3   OH278831   2.822   1.404  16.313 -0.2250 -0.3197 -0.1833
19139TIP3    H178832   2.754   1.462  16.348 -0.0824  0.8878 -1.8852
19139TIP3    H278833   2.896   1.414  16.373 -1.1841 -0.9103  1.1290
19140TIP3   OH278834   1.685   6.200   5.219 -0.1690  0.7236 -0.4427
19140TIP3    H178835   1.705   6.245   5.137  0.8640  0.0385 -0.5807
19140TIP3    H278836   1.725   6.255   5.286  2.0006 -0.4630 -0.6924
19141TIP3   OH278837   0.026   4.988   2.406 -0.3661 -0.4650  0.5671
19141TIP3    H178838  -0.036   5.058   2.384 -2.6906 -2.1643  1.4783
19141TIP3    H278839   0.056   4.954   2.322  2.3038  2.8033  0.0526
19142TIP3   OH278840   1.650   4.631   2.299  0.1046 -0.1800  0.3161
19142TIP3    H178841   1.581   4.667   2.244 -0.8302  0.1079  1.6658
19142TIP3    H278842   1.661   4.694   2.369  0.4185 -1.1484  1.1477
19143TIP3   OH278843   0.122   3.413  14.226  0.1116 -0.8820 -0.1262
19143TIP3    H178844   0.158   3.326  14.205 -0.7176 -1.2120 -0.1997
19143TIP3    H278845   0.076   3.439  14.146  2.6102  0.8199 -1.0707
19144TIP3   OH278846   4.894   1.700   1.831  0.1829 -0.0475 -0.5420
19144TIP3    H178847   4.882   1.748   1.913  2.8351 -0.4631  0.1482
19144TIP3    H278848   4.855   1.755   1.764 -1.1902  0.7355  0.8927
19145TIP3   OH278849   0.474   4.571  15.657  0.7270  0.1135 -0.0195
19145TIP3    H178850   0.544   4.607  15.712  1.8525 -2.1365  0.0770
19145TIP3    H278851   0.483   4.617  15.573  1.5947  0.6569  0.3641
19146TIP3   OH278852   6.713   6.611  13.334  0.5073 -0.1269 -0.1576
19146TIP3    H178853   6.798   6.568  13.348  1.9516  2.4466 -0.7442
19146TIP3    H278854   6.703   6.615  13.239  0.4268  0.8570 -0.1153
19147TIP3   OH278855   5.824   1.886  14.298 -0.5091 -0.1052 -0.3950
19147TIP3    H178856   5.883   1.815  14.274 -1.0356 -1.6344  2.6527
19147TIP3    H278857   5.881   1.952  14.337 -0.2526  0.4396 -1.6515
19148TIP3   OH278858   5.649   0.520   6.074  0.3303 -0.6638 -0.1292
19148TIP3    H178859   5.585   0.497   6.141  0.6063 -0.9969  0.0181
19148TIP3    H278860   5.645   0.616   6.070  0.0296 -0.6646  0.0813
19149TIP3   OH278861   5.620   3.769   5.269  0.2062  0.0369  0.2608
19149TIP3    H178862   5.646   3.686   5.229 -0.1532  0.4792 -0.9246
19149TIP3    H278863   5.609   3.828   5.195  1.5916  1.4650  1.1574
19150TIP3   OH278864   6.210   0.672   1.046 -0.7013 -1.1009 -0.5664
19150TIP3    H178865   6.147   0.612   1.086 -0.0680 -1.4379 -0.0738
19150TIP3    H278866   6.226   0.635   0.959  0.1995 -2.0191 -0.0127
19151TIP3   OH278867   0.364   3.961  11.995 -0.3401  0.5054  0.0104
19151TIP3    H178868   0.368   4.024  11.922 -3.0045  0.2717 -0.3977
19151TIP3    H278869   0.376   4.014  12.073 -3.0625  1.6825 -0.2999
19152TIP3   OH278870   5.985   4.438   4.790  0.0650 -0.5428  0.2003
19152TIP3    H178871   6.021   4.440   4.879 -0.7259  1.1932  0.4942
19152TIP3    H278872   5.891   4.423   4.803  0.0590 -0.9998 -0.3729
19153TIP3   OH278873   3.433   3.597   5.473  0.8796 -0.2476  0.1423
19153TIP3    H178874   3.475   3.636   5.396  0.0916 -0.0622 -0.1978
19153TIP3    H278875   3.502   3.545   5.514  1.1853 -0.7139 -0.9340
19154TIP3   OH278876   4.418   6.236  13.738 -0.3448 -0.1884 -0.6968
19154TIP3    H178877   4.391   6.221  13.647 -0.6750 -2.6432 -0.2076
19154TIP3    H278878   4.376   6.166  13.788  0.4539  0.6899  1.2488
19155TIP3   OH278879   1.446   6.389  11.225 -0.6239  0.4035 -0.1413
19155TIP3    H178880   1.489   6.331  11.289  0.4223  0.5386 -0.7045
19155TIP3    H278881   1.467   6.350  11.140 -2.9064 -0.3700 -0.3833
19156TIP3   OH278882   6.348   2.347  10.893  0.3375  0.2242 -0.0283
19156TIP3    H178883   6.252   2.341  10.893  0.2827  1.0134  0.4242
19156TIP3    H278884   6.373   2.330  10.984  0.7171 -1.1906 -0.3807
19157TIP3   OH278885   4.175   0.579  12.097  0.1459  0.7632  0.0957
19157TIP3    H178886   4.263   0.552  12.073  0.1644  0.9303 -0.0227
19157TIP3    H278887   4.126   0.497  12.105  0.3200  0.6689  0.2007
19158TIP3   OH278888   0.385   2.140   0.478 -0.1877  0.2207  0.1228
19158TIP3    H178889   0.453   2.110   0.539 -0.6440 -0.7124  0.1682
19158TIP3    H278890   0.370   2.066   0.420 -0.0835  0.9532 -0.8470
19159TIP3   OH278891   2.506   3.830  14.972 -0.0382 -0.1137  0.1564
19159TIP3    H178892   2.546   3.743  14.983  0.8732  0.3395  0.5111
19159TIP3    H278893   2.416   3.812  14.945 -0.0771 -1.1819  0.9420
19160TIP3   OH278894   0.279   0.490   3.675  0.0615 -0.2309 -0.4675
19160TIP3    H178895   0.291   0.472   3.768  0.5547  1.4485 -0.1826
19160TIP3    H278896   0.360   0.535   3.649 -1.0689  1.4867 -1.1171
19161TIP3   OH278897   6.593   4.060  14.326 -0.1837  0.1501 -0.0010
19161TIP3    H178898   6.662   4.105  14.376 -1.2622  1.4431  0.3630
19161TIP3    H278899   6.513   4.108  14.348 -0.9786 -0.4590 -1.4999
19162TIP3   OH278900   2.595   2.896   2.971  0.0837 -0.4395 -0.2075
19162TIP3    H178901   2.682   2.933   2.985  0.8132 -1.7545 -1.1497
19162TIP3    H278902   2.602   2.805   3.002 -0.7334 -0.7733 -0.9836
19163TIP3   OH278903   6.507   4.858   2.654  0.5755  0.0123  0.4126
19163TIP3    H178904   6.519   4.788   2.590  0.9421 -0.7169  1.2552
19163TIP3    H278905   6.464   4.815   2.728  0.4934  0.7619  0.8058
19164TIP3   OH278906   6.190   4.963   5.964 -0.0010 -0.2136 -0.0962
19164TIP3    H178907   6.252   4.996   5.899 -1.4335 -0.5057 -1.6462
19164TIP3    H278908   6.245   4.918   6.029  1.5592  1.2944 -0.3433
19165TIP3   OH278909   1.441   2.685   3.588  0.5992  0.0481 -0.0484
19165TIP3    H178910   1.477   2.763   3.546 -3.1289  1.0469 -1.5608
19165TIP3    H278911   1.434   2.621   3.517 -1.6415  0.2934 -0.0962
19166TIP3   OH278912   5.372   4.622  11.520  0.2002 -0.4984  0.0668
19166TIP3    H178913   5.463   4.636  11.549  0.1062 -1.6937  0.9816
19166TIP3    H278914   5.379   4.602  11.427  0.7185  1.1533 -0.2675
19167TIP3   OH278915   6.104   5.431   4.738  0.3080  0.0592 -0.0158
19167TIP3    H178916   6.157   5.453   4.815  1.4697  0.5085 -0.9231
19167TIP3    H278917   6.025   5.483   4.748  1.1359  1.3130  0.0830
19168TIP3   OH278918   5.009   1.124  15.846 -0.4157 -0.5664 -0.3301
19168TIP3    H178919   5.080   1.099  15.786 -0.2724  1.1457 -0.9021
19168TIP3    H278920   4.946   1.170  15.790 -0.6307  0.3976  0.6998
19169TIP3   OH278921   5.537   1.643  15.616  0.1661 -0.2927  0.0189
19169TIP3    H178922   5.482   1.696  15.674  0.9214 -0.7583  1.1826
19169TIP3    H278923   5.618   1.693  15.608  0.0377 -0.1906 -0.7169
19170TIP3   OH278924   0.554   0.223   0.714  0.2740  0.3462  0.2044
19170TIP3    H178925   0.535   0.317   0.713 -0.1385  0.2715  0.8960
19170TIP3    H278926   0.508   0.190   0.791 -1.3031 -0.7759 -1.1804
19171TIP3   OH278927   0.337   5.885  16.593 -0.2630  0.2120  0.2929
19171TIP3    H178928   0.320   5.933  16.512 -0.2875 -0.4049 -0.0607
19171TIP3    H278929   0.267   5.912  16.652  0.7265  2.0030  0.6930
19172TIP3   OH278930   6.593   5.772  14.955 -0.0088 -0.4759 -0.9137
19172TIP3    H178931   6.607   5.806  14.866  2.5107  0.2409 -0.3023
19172TIP3    H278932   6.575   5.850  15.008  0.4269 -0.6787 -0.4605
19173TIP3   OH278933   5.918   3.354  16.324 -0.0013  0.1284 -0.3379
19173TIP3    H178934   5.888   3.342  16.233  0.4022  0.0134 -0.4538
19173TIP3    H278935   5.994   3.411  16.317 -0.2170  0.4538 -0.0337
19174TIP3   OH278936   2.445   3.413   3.335 -0.8544  0.1762  0.0229
19174TIP3    H178937   2.391   3.360   3.394 -1.6745 -0.3069 -1.1460
19174TIP3    H278938   2.408   3.501   3.341 -0.2991  0.3463  0.9925
19175TIP3   OH278939   6.702   6.004  11.306 -0.6947 -0.4440  0.1969
19175TIP3    H178940   6.724   5.915  11.333  0.3490 -0.6063 -1.1356
19175TIP3    H278941   6.752   6.060  11.366 -0.2697 -0.7697  0.1505
19176TIP3   OH278942   2.956   4.547   5.238 -0.0561  0.4629 -0.0066
19176TIP3    H178943   2.921   4.634   5.226  0.4432  0.4904 -1.2854
19176TIP3    H278944   3.041   4.548   5.193  1.0983  0.0666  2.0418
19177TIP3   OH278945   2.243   1.076   2.590  0.3336  0.3102 -0.4775
19177TIP3    H178946   2.320   1.059   2.535  1.9895  0.4695  1.7154
19177TIP3    H278947   2.229   0.993   2.637 -0.1165  0.6463 -0.0187
19178TIP3   OH278948   0.159   5.714   1.183  0.0307  0.3807 -0.2305
19178TIP3    H178949   0.248   5.748   1.190  0.5863 -0.6868 -1.8321
19178TIP3    H278950   0.168   5.619   1.196 -0.7677  0.1882 -1.0059
19179TIP3   OH278951   2.777   3.529  15.937 -0.6454 -0.1292  0.5177
19179TIP3    H178952   2.729   3.527  16.020 -1.0394 -0.4067  0.2804
19179TIP3    H278953   2.869   3.530  15.963 -0.7772  2.5164  1.0252
19180TIP3   OH278954   6.774   2.561   2.157  0.1963  0.4322  0.4526
19180TIP3    H178955   6.859   2.602   2.170  0.8590 -0.9356  0.5641
19180TIP3    H278956   6.711   2.624   2.193  1.1319  1.5531  0.1529
19181TIP3   OH278957   5.174   0.843   0.035  0.1148 -0.2158 -0.2242
19181TIP3    H178958   5.174   0.773  -0.030  1.1462 -0.1637 -0.2763
19181TIP3    H278959   5.189   0.798   0.119 -1.7173 -0.3468  0.0661
19182TIP3   OH278960   6.175   3.834  10.951  0.4104  0.0141  0.1710
19182TIP3    H178961   6.136   3.875  10.874  0.0672  1.3915  1.0574
19182TIP3    H278962   6.101   3.794  10.998  0.7410 -1.6703 -0.6890
19183TIP3   OH278963   3.880   4.839  13.808  0.1376  0.7326  0.0667
19183TIP3    H178964   3.921   4.925  13.816 -0.0096  1.1484 -2.8186
19183TIP3    H278965   3.952   4.777  13.818  0.8855  1.3453 -1.2743
19184TIP3   OH278966   2.536   4.535   4.870  0.8342  0.4355 -0.2452
19184TIP3    H178967   2.593   4.518   4.795  1.2817 -1.3842  0.4876
19184TIP3    H278968   2.447   4.527   4.834  1.0382 -1.9698 -0.2734
19185TIP3   OH278969   4.233   2.026   6.236 -0.8536 -0.5587  0.0278
19185TIP3    H178970   4.312   1.973   6.226 -1.2697 -1.3322  0.8336
19185TIP3    H278971   4.266   2.114   6.257 -0.2065 -0.8781  0.3511
19186TIP3   OH278972   1.665   6.025  13.972 -0.4461  0.4148  0.8287
19186TIP3    H178973   1.730   5.974  13.925 -0.8211  0.8508 -0.1837
19186TIP3    H278974   1.704   6.112  13.982 -0.9477  0.7322  0.0481
19187TIP3   OH278975   3.137   4.558   0.613 -0.0407  0.0296 -0.2370
19187TIP3    H178976   3.186   4.490   0.660 -0.9673 -0.2663  0.3092
19187TIP3    H278977   3.116   4.518   0.529 -1.3048 -0.6764  0.4012
19188TIP3   OH278978   5.240   1.037   4.577  0.0430 -0.2432  0.5690
19188TIP3    H178979   5.265   1.118   4.533  1.9192 -0.4894  1.1505
19188TIP3    H278980   5.318   0.982   4.573 -0.4849 -1.1423  2.1967
19189TIP3   OH278981   4.309   2.335  14.829  0.1271 -0.1833  0.2056
19189TIP3    H178982   4.302   2.426  14.857  2.3367  0.1550 -0.2828
19189TIP3    H278983   4.325   2.286  14.910  1.0432  0.1173  0.2042
19190TIP3   OH278984   3.047   3.411  13.934 -0.2223  0.3368  0.0344
19190TIP3    H178985   3.106   3.437  14.005 -0.5811 -0.8550  0.7858
19190TIP3    H278986   3.082   3.327  13.904 -1.9879 -0.7778  1.0350
19191TIP3   OH278987   1.797   1.232  14.772  0.1004  0.0183 -0.2161
19191TIP3    H178988   1.788   1.236  14.867 -0.4918 -0.7211 -0.2347
19191TIP3    H278989   1.873   1.287  14.753  0.8171 -0.6003  0.7792
19192TIP3   OH278990   5.475   6.349  11.051  0.2265 -0.1035  0.1000
19192TIP3    H178991   5.559   6.395  11.061  0.7115 -0.5848 -1.4866
19192TIP3    H278992   5.495   6.276  10.993 -0.9636 -1.1750  1.0179
19193TIP3   OH278993   3.897   6.357   1.091 -0.5987 -0.0717  0.0502
19193TIP3    H178994   3.984   6.375   1.058  0.0582  1.9308  2.6788
19193TIP3    H278995   3.841   6.422   1.050 -0.4054  0.1588  0.1469
19194TIP3   OH278996   2.430   1.126   3.897 -0.4255  0.2864 -0.1206
19194TIP3    H178997   2.407   1.146   3.988  1.4284  1.6086  0.0890
19194TIP3    H278998   2.387   1.194   3.846 -0.7274  0.0688 -0.1595
19195TIP3   OH278999   0.472   4.186   1.715 -0.7200  0.2263  0.0572
19195TIP3    H179000   0.408   4.219   1.778  0.5472 -1.3597  2.2375
19195TIP3    H279001   0.458   4.239   1.636 -0.7834  3.8717  2.3894
19196TIP3   OH279002   0.258   6.589   2.086 -0.0437  0.3879 -0.4453
19196TIP3    H179003   0.211   6.657   2.133  1.4853  0.5972  0.8468
19196TIP3    H279004   0.266   6.517   2.149 -1.0367 -0.7288 -1.5610
19197TIP3   OH279005   1.971   6.049  16.509 -0.0478  0.2351  0.0936
19197TIP3    H179006   1.876   6.044  16.517  0.1004 -0.9129  1.2810
19197TIP3    H279007   1.997   5.964  16.474  0.5863  0.3773  0.2164
19198TIP3   OH279008   1.391   2.634   1.035  0.0274  0.0065 -0.0281
19198TIP3    H179009   1.372   2.546   1.003 -1.1448  0.2794 -0.0887
19198TIP3    H279010   1.334   2.644   1.111 -0.8061  1.2050 -0.8063
19199TIP3   OH279011   4.354   5.638   3.996  0.7044 -0.2101  0.1347
19199TIP3    H179012   4.298   5.562   4.010  0.7416 -0.1770  0.4557
19199TIP3    H279013   4.296   5.713   4.006  0.7906 -0.1780  0.3995
19200TIP3   OH279014   1.307   1.501   4.675 -0.5433  0.1050 -0.1775
19200TIP3    H179015   1.370   1.457   4.617  0.4736 -1.1346  1.8017
19200TIP3    H279016   1.229   1.513   4.621  0.1243 -1.6952 -1.5945
19201TIP3   OH279017   1.512   0.031   4.559 -0.0371  0.1254 -0.0200
19201TIP3    H179018   1.449   0.103   4.555  0.2808  0.3667 -0.7397
19201TIP3    H279019   1.542   0.021   4.469  0.3287 -0.5453  0.1777
19202TIP3   OH279020   5.883   5.270   4.020  0.0520 -0.6002 -0.1474
19202TIP3    H179021   5.945   5.324   4.068  0.6043 -2.3634  1.1607
19202TIP3    H279022   5.921   5.183   4.020 -0.8907 -1.0587 -2.1155
19203TIP3   OH279023   1.984   3.181   5.621  0.5494 -0.0160  0.0571
19203TIP3    H179024   2.009   3.135   5.541  1.1176 -0.9594  0.7847
19203TIP3    H279025   2.009   3.123   5.692 -0.2231  0.6924  0.9261
19204TIP3   OH279026   3.421   2.401  12.387 -0.2622  0.2003  0.7032
19204TIP3    H179027   3.396   2.389  12.295  0.6367  1.8918  0.2114
19204TIP3    H279028   3.491   2.338  12.402  1.0656  1.3827 -0.4087
19205TIP3   OH279029   2.655   1.518   0.527 -0.0070  0.2137  0.4201
19205TIP3    H179030   2.593   1.507   0.456  0.4799 -0.9062  0.1567
19205TIP3    H279031   2.677   1.429   0.555  2.4921  0.5296 -0.3946
19206TIP3   OH279032   2.731   2.131  14.945 -0.4874  0.0807  0.0590
19206TIP3    H179033   2.771   2.206  14.900 -0.2098  0.1105  0.3515
19206TIP3    H279034   2.781   2.123  15.026 -1.3561  0.3770  0.6233
19207TIP3   OH279035   3.587   2.657   5.533 -0.3552  0.0590 -0.3704
19207TIP3    H179036   3.645   2.588   5.503  1.9993  1.7104  0.2950
19207TIP3    H279037   3.580   2.645   5.627  1.6345  1.8459  0.0407
19208TIP3   OH279038   6.490   4.678   2.873 -0.3232 -0.3381  0.0983
19208TIP3    H179039   6.490   4.583   2.884  1.8092 -0.4086 -0.1691
19208TIP3    H279040   6.582   4.699   2.853 -0.5888  1.8706  1.0749
19209TIP3   OH279041   6.103   6.273  15.006 -0.3473  0.3188 -0.1250
19209TIP3    H179042   6.118   6.364  15.031 -0.5250 -0.0312  1.2814
19209TIP3    H279043   6.008   6.265  14.999 -0.3235  0.2841 -0.4383
19210TIP3   OH279044   5.754   5.869  11.618  0.6177  0.2991  0.6459
19210TIP3    H179045   5.836   5.819  11.620  0.3956 -0.0456  1.1425
19210TIP3    H279046   5.718   5.858  11.706 -1.2040 -1.5558 -0.3101
19211TIP3   OH279047   6.764   6.117  13.228 -0.3862 -0.7388  0.7889
19211TIP3    H179048   6.805   6.066  13.298  0.7958 -2.5377 -1.1443
19211TIP3    H279049   6.685   6.067  13.206 -1.8760  0.9250  2.2001
19212TIP3   OH279050   2.243   3.639  16.759  0.1636  0.9353 -0.3143
19212TIP3    H179051   2.302   3.666  16.689  1.4610  0.6836  0.6501
19212TIP3    H279052   2.300   3.596  16.823 -1.2638 -0.4623  0.0522
19213TIP3   OH279053   5.512   4.489   1.543 -0.9126  0.1093  0.0776
19213TIP3    H179054   5.554   4.543   1.476 -0.4966 -1.5396 -1.0321
19213TIP3    H279055   5.580   4.475   1.608  0.2764 -2.3424 -1.5918
19214TIP3   OH279056   6.403   6.520  15.886 -0.1116 -0.4569  0.1223
19214TIP3    H179057   6.328   6.568  15.852  1.9780  3.3014  0.5717
19214TIP3    H279058   6.379   6.495  15.975 -0.1568  2.4231  0.9566
19215TIP3   OH279059   2.132   2.331   1.283  0.1266  0.1909  0.1032
19215TIP3    H179060   2.122   2.295   1.195 -1.2600  0.4802  0.1373
19215TIP3    H279061   2.183   2.412   1.270  0.7459 -0.2574 -0.3036
19216TIP3   OH279062   4.127   3.381   1.400 -0.3365  0.9714  0.3279
19216TIP3    H179063   4.174   3.299   1.420  0.0816  1.5591  1.7617
19216TIP3    H279064   4.194   3.449   1.408 -1.4759  1.8479  2.6089
19217TIP3   OH279065   0.321   3.055   1.571  0.4396 -0.2704  0.8692
19217TIP3    H179066   0.330   2.962   1.551  1.1921 -0.1516  0.6430
19217TIP3    H279067   0.262   3.058   1.646  0.4493 -0.9321  0.9029
19218TIP3   OH279068   2.424   6.564  11.130 -0.0029 -0.0006  0.6890
19218TIP3    H179069   2.331   6.567  11.106  0.0981  2.6533  0.5068
19218TIP3    H279070   2.426   6.515  11.212 -1.2472 -2.3958 -0.6638
19219TIP3   OH279071   3.399   1.769   4.040  0.3937 -0.0357  0.0325
19219TIP3    H179072   3.433   1.686   4.004  0.6973 -0.6185  1.6109
19219TIP3    H279073   3.419   1.764   4.133 -0.6684  1.3113  0.3418
19220TIP3   OH279074   6.657   4.597  11.013 -0.2837 -0.0090  0.4273
19220TIP3    H179075   6.583   4.629  10.962 -1.3405  0.6214  2.2889
19220TIP3    H279076   6.658   4.503  10.997 -2.4303 -0.2505  1.5038
19221TIP3   OH279077   4.721   5.133   5.068  0.1142  0.2963  0.1198
19221TIP3    H179078   4.671   5.151   5.148  0.7032 -0.4079  0.6500
19221TIP3    H279079   4.735   5.038   5.070 -0.7894  0.1121 -1.3652
19222TIP3   OH279080   4.403   5.973   3.929 -0.4083  0.9309  0.1680
19222TIP3    H179081   4.414   5.964   3.834  0.3089 -0.0275  0.3373
19222TIP3    H279082   4.492   5.970   3.964 -0.7481 -0.0539  0.9809
19223TIP3   OH279083   6.490   5.633  12.911 -0.3095 -0.0813 -0.1133
19223TIP3    H179084   6.575   5.636  12.955 -1.4441  1.1742  2.0757
19223TIP3    H279085   6.480   5.720  12.872  0.3802 -0.9607 -2.2828
19224TIP3   OH279086   1.055   1.238  12.877 -0.0174  0.1325 -0.7343
19224TIP3    H179087   1.025   1.303  12.941  1.9935  1.5691 -1.2076
19224TIP3    H279088   0.974   1.204  12.838 -1.2890 -0.7835  2.5342
19225TIP3   OH279089   6.439   5.015   1.206 -0.5299  0.3256  0.2534
19225TIP3    H179090   6.370   5.077   1.227 -1.0353  0.3069 -1.3237
19225TIP3    H279091   6.411   4.933   1.248 -0.3524  0.8825  1.4812
19226TIP3   OH279092   2.677   6.340   5.964 -0.0696  0.5024 -0.0066
19226TIP3    H179093   2.710   6.254   5.990  1.7132  1.3751  0.6751
19226TIP3    H279094   2.750   6.379   5.915  0.1030  2.6345  1.8926
19227TIP3   OH279095   0.140   5.132  14.433  0.0129  0.2914 -0.2060
19227TIP3    H179096   0.200   5.206  14.419 -0.7745  0.9044 -0.3964
19227TIP3    H279097   0.198   5.057  14.446  0.8446  1.0730  0.7413
19228TIP3   OH279098   4.849   0.305  15.493  0.9111 -0.1057  0.2259
19228TIP3    H179099   4.847   0.401  15.492 -2.2918 -0.1380 -0.1391
19228TIP3    H279100   4.838   0.281  15.585 -2.1464 -0.1396 -0.1266
19229TIP3   OH279101   4.050   3.758   1.429  0.4138  0.4483 -0.5631
19229TIP3    H179102   4.117   3.724   1.371  2.8434  1.5660  1.4756
19229TIP3    H279103   4.007   3.680   1.464  0.6063 -0.2794 -1.9175
19230TIP3   OH279104   4.015   1.941   3.154 -0.3057 -0.3214 -0.2345
19230TIP3    H179105   4.096   1.922   3.202  0.4425  0.8889 -1.0067
19230TIP3    H279106   4.001   1.863   3.099  1.4821  0.3250 -1.6550
19231TIP3   OH279107   6.687   1.709  15.454  0.2866  0.8487  0.5185
19231TIP3    H179108   6.600   1.676  15.475  0.7086 -0.0748  0.8380
19231TIP3    H279109   6.713   1.661  15.376 -0.2970  2.5653 -0.7688
19232TIP3   OH279110   4.776   6.451  12.489  0.0774  0.1528  0.5060
19232TIP3    H179111   4.746   6.539  12.512 -1.2137 -0.7390  2.4007
19232TIP3    H279112   4.709   6.419  12.428 -0.4879 -0.1950  1.2934
19233TIP3   OH279113   5.364   5.368  14.557  0.1512  0.0574  0.6096
19233TIP3    H179114   5.297   5.397  14.495 -0.8199  0.2449  1.7280
19233TIP3    H279115   5.330   5.286  14.593  2.0719 -1.5889 -1.2297
19234TIP3   OH279116   5.831   3.000  10.421  0.0191  0.4297 -0.1447
19234TIP3    H179117   5.796   3.061  10.486  0.6110  0.6769 -0.0561
19234TIP3    H279118   5.920   3.031  10.405 -0.0179  0.1891 -0.8442
19235TIP3   OH279119   2.933   6.477  12.513  0.3733 -0.0133 -0.1148
19235TIP3    H179120   2.917   6.454  12.421  0.3320 -0.5488  0.0223
19235TIP3    H279121   3.010   6.425  12.537  0.1065 -0.2265  0.2866
19236TIP3   OH279122   1.791   3.879   2.776 -0.1474 -0.4522  0.3348
19236TIP3    H179123   1.830   3.793   2.763 -0.2040 -0.1914 -1.8307
19236TIP3    H279124   1.864   3.940   2.769 -0.3642 -0.2217  0.0347
19237TIP3   OH279125   2.403   5.037   5.932  0.2243  0.4572 -0.4323
19237TIP3    H179126   2.357   4.958   5.904  0.3463  0.7021 -1.3221
19237TIP3    H279127   2.380   5.046   6.025 -1.3276  0.4328 -0.7978
19238TIP3   OH279128   2.453   2.388  14.854  0.5072 -0.4443 -0.5981
19238TIP3    H179129   2.510   2.435  14.792  0.1819  2.3824  1.1407
19238TIP3    H279130   2.380   2.358  14.800  0.2336  1.9670 -1.6465
19239TIP3   OH279131   4.623   4.796  11.631  0.1216 -0.1257 -0.5963
19239TIP3    H179132   4.714   4.777  11.654 -0.2255 -0.4887  0.5219
19239TIP3    H279133   4.598   4.724  11.572  0.6942  0.2228 -1.2677
19240TIP3   OH279134   4.228   6.484  13.811 -0.1996 -0.0127 -0.9948
19240TIP3    H179135   4.284   6.485  13.733  1.9352 -0.7428  0.4870
19240TIP3    H279136   4.226   6.575  13.840 -0.2821  0.1156 -1.4018
19241TIP3   OH279137   4.565   3.457   1.246  0.1161 -0.2061 -0.4654
19241TIP3    H179138   4.529   3.459   1.335  2.6012 -0.5682  0.5921
19241TIP3    H279139   4.594   3.547   1.230 -0.2805 -0.1545 -0.8891
19242TIP3   OH279140   4.213   5.084   6.156  0.1417 -0.2320  0.4385
19242TIP3    H179141   4.235   5.030   6.081  0.1152 -0.1957  0.4050
19242TIP3    H279142   4.269   5.161   6.147 -1.3758  0.7722 -0.6957
19243TIP3   OH279143   6.369   2.310  11.815  0.6590  0.6446 -0.2192
19243TIP3    H179144   6.279   2.276  11.819  0.5294  0.9995 -0.0641
19243TIP3    H279145   6.377   2.346  11.727  0.4547  1.1448 -0.0335
19244TIP3   OH279146   4.956   0.776   3.339  0.1734 -0.1336 -0.2364
19244TIP3    H179147   5.051   0.784   3.330  0.3751 -0.0919  1.6632
19244TIP3    H279148   4.944   0.694   3.387 -0.7761 -0.3075 -0.7620
19245TIP3   OH279149   4.936   0.996   4.730 -0.0704  0.4686  1.1333
19245TIP3    H179150   4.984   1.015   4.649 -0.0528 -0.4527  0.9157
19245TIP3    H279151   4.853   0.960   4.700  1.3985 -3.4789  1.4738
19246TIP3   OH279152   4.435   0.063  12.761  0.2598  0.0054  0.1657
19246TIP3    H179153   4.381   0.071  12.683  2.4933 -2.3367 -1.7168
19246TIP3    H279154   4.382   0.012  12.823 -0.4607 -0.5322 -0.8869
19247TIP3   OH279155   1.030   1.927  16.852 -0.2055 -0.7366 -0.3526
19247TIP3    H179156   1.023   1.985  16.776 -0.4559 -0.7256 -0.3213
19247TIP3    H279157   1.080   1.852  16.820  1.8787  0.4028  0.1633
19248TIP3   OH279158   1.197   0.683   6.466 -0.0748  0.0823  0.1850
19248TIP3    H179159   1.177   0.590   6.464  0.2216  0.0259 -0.2640
19248TIP3    H279160   1.291   0.688   6.481 -0.2080  0.3234  0.9400
19249TIP3   OH279161   0.093   0.346  12.414  0.1269 -0.1272  0.4051
19249TIP3    H179162   0.095   0.255  12.383 -0.5209 -0.0567  0.1513
19249TIP3    H279163   0.015   0.350  12.470  1.3851 -0.3045  2.2172
19250TIP3   OH279164   0.765   5.963  16.155 -0.1176  0.6472 -0.0516
19250TIP3    H179165   0.795   6.031  16.095  0.7058 -0.0255 -0.4013
19250TIP3    H279166   0.749   5.887  16.099  2.6157 -0.6235  0.8146
19251TIP3   OH279167   1.620   6.608   2.325 -0.1241 -0.2373  0.0051
19251TIP3    H179168   1.536   6.651   2.342  0.8862  1.7352  0.1440
19251TIP3    H279169   1.600   6.544   2.257 -1.5669  0.7912 -0.5691
19252TIP3   OH279170   6.172   4.176  11.412  0.5953 -0.5019 -0.5812
19252TIP3    H179171   6.250   4.123  11.401  0.5973 -0.4619 -0.7618
19252TIP3    H279172   6.109   4.118  11.456  0.4669 -0.7800 -1.1232
19253TIP3   OH279173   6.369   3.044   2.676 -0.2352 -0.4960  0.0708
19253TIP3    H179174   6.418   3.080   2.750 -0.7047  0.4029 -0.0518
19253TIP3    H279175   6.280   3.076   2.689 -0.1118  0.5131 -1.4394
19254TIP3   OH279176   0.640   1.435   1.120  0.3304 -0.2699 -0.5067
19254TIP3    H179177   0.576   1.464   1.055  0.2277 -0.9163 -0.7009
19254TIP3    H279178   0.724   1.442   1.074  0.2013 -1.2734 -0.9112
19255TIP3   OH279179   1.959   0.042   3.724 -0.0819  0.1904  0.0840
19255TIP3    H179180   1.977   0.135   3.712 -0.1453 -0.0892 -2.4582
19255TIP3    H279181   1.881   0.025   3.671  0.3990 -1.4775 -0.1151
19256TIP3   OH279182   4.769   4.699   5.138  0.4125 -0.2539 -0.3549
19256TIP3    H179183   4.804   4.613   5.117 -1.4250 -1.1108  0.0260
19256TIP3    H279184   4.801   4.756   5.067  3.1376 -0.8097  0.3518
19257TIP3   OH279185   1.521   1.151   0.034 -0.0434 -0.0582 -0.3060
19257TIP3    H179186   1.548   1.146   0.126 -4.1460  1.6094  1.1013
19257TIP3    H279187   1.561   1.232   0.002 -0.4943  0.5701  0.7026
19258TIP3   OH279188   5.864   5.339   4.359 -0.2577  0.2253 -0.7277
19258TIP3    H179189   5.905   5.400   4.421 -1.6314  2.1471 -1.6622
19258TIP3    H279190   5.841   5.394   4.284 -3.5877 -0.9804 -0.6611
19259TIP3   OH279191   4.357   1.746  14.816  0.5737  0.0108 -0.2507
19259TIP3    H179192   4.397   1.748  14.903  0.3098 -2.5132 -0.0604
19259TIP3    H279193   4.263   1.746  14.833  0.4417  2.7597 -0.6471
19260TIP3   OH279194   3.843   6.650  11.556  0.0427  0.2430 -0.0265
19260TIP3    H179195   3.935   6.625  11.542  0.0648 -0.6071  1.5828
19260TIP3    H279196   3.799   6.625  11.475  0.9547 -0.7162 -0.2396
19261TIP3   OH279197   0.604   6.452  14.645  0.1686 -0.0473 -0.2247
19261TIP3    H179198   0.685   6.503  14.639 -0.2776  0.6538 -0.2744
19261TIP3    H279199   0.568   6.454  14.557 -0.9526  1.3620  0.2558
19262TIP3   OH279200   0.972   6.696   4.300 -0.3425  0.1093  0.0456
19262TIP3    H179201   0.932   6.638   4.235 -2.1297 -0.2936  1.4407
19262TIP3    H279202   0.913   6.771   4.304  1.0087  1.2189 -0.4583
19263TIP3   OH279203   4.146   6.086   2.084  0.1039 -0.1963 -0.3168
19263TIP3    H179204   4.131   6.092   2.178  0.3060 -1.1260 -0.2197
19263TIP3    H279205   4.151   6.177   2.055 -0.8207  0.1088  0.4287
19264TIP3   OH279206   2.086   6.468  14.606  0.3676  0.0754 -0.1328
19264TIP3    H179207   2.139   6.453  14.528 -0.8209 -1.6695 -0.6094
19264TIP3    H279208   1.999   6.489  14.573 -0.0837 -0.4158  0.7266
19265TIP3   OH279209   1.523   6.525  12.069  0.2875 -0.5315 -0.4064
19265TIP3    H179210   1.598   6.504  12.013 -0.2151 -0.0385 -1.2946
19265TIP3    H279211   1.466   6.579  12.013 -0.7674 -0.9659  0.2200
19266TIP3   OH279212   5.207   3.366  16.305  0.4771 -0.2015 -0.1166
19266TIP3    H179213   5.234   3.409  16.386  3.5960  0.6690 -1.5607
19266TIP3    H279214   5.141   3.425  16.268 -0.3880 -0.2117  1.3504
19267TIP3   OH279215   3.851   6.177   2.578  0.5640  0.1228  1.2288
19267TIP3    H179216   3.793   6.101   2.577  0.8291 -0.0803  0.9136
19267TIP3    H279217   3.798   6.249   2.545  0.0319  0.2823  2.4372
19268TIP3   OH279218   6.138   0.036   0.134 -0.1556  0.0048 -0.3452
19268TIP3    H179219   6.050   0.072   0.136 -0.2041 -0.1646  0.8770
19268TIP3    H279220   6.133  -0.039   0.075 -1.1340 -0.8041  0.7675
19269TIP3   OH279221   5.605   0.611   1.607  0.3175  0.0609  0.4790
19269TIP3    H179222   5.563   0.591   1.524 -1.0142 -1.0021  1.3739
19269TIP3    H279223   5.638   0.700   1.597  1.6751 -0.6725 -1.7608
19270TIP3   OH279224   1.266   4.727   5.514 -0.0704 -0.0873  0.5335
19270TIP3    H179225   1.255   4.792   5.584  1.6066 -0.0069  0.7467
19270TIP3    H279226   1.263   4.643   5.559 -2.2234 -0.1972  0.2594
19271TIP3   OH279227   4.335   4.045   3.611  0.4755  0.1624 -0.2138
19271TIP3    H179228   4.315   4.020   3.521 -0.7176  1.0699 -0.2137
19271TIP3    H279229   4.329   4.140   3.612 -0.4337  0.1162  1.0190
19272TIP3   OH279230   2.901   5.908   0.536  0.0172  0.0327  0.1755
19272TIP3    H179231   2.972   5.928   0.475 -0.2970 -1.5541 -0.7347
19272TIP3    H279232   2.945   5.883   0.618  0.4995 -0.3132 -0.1893
19273TIP3   OH279233   4.335   4.449  15.839  0.2033 -0.1951 -0.6143
19273TIP3    H179234   4.324   4.362  15.801 -0.8953  0.7991 -2.6813
19273TIP3    H279235   4.374   4.434  15.925 -0.4342 -2.7437 -0.7502
19274TIP3   OH279236   2.942   0.106   2.498 -0.6756  0.8590 -0.4269
19274TIP3    H179237   2.967   0.178   2.556 -0.4751 -1.1643  2.0743
19274TIP3    H279238   3.000   0.033   2.523 -3.1412 -1.2119 -0.5786
19275TIP3   OH279239   6.385   4.609  12.775 -0.1898  0.0635 -0.0020
19275TIP3    H179240   6.450   4.560  12.725 -1.1191 -0.3636 -0.8205
19275TIP3    H279241   6.433   4.681  12.815  0.4603  0.7471 -2.0029
19276TIP3   OH279242   5.431   2.700  15.791  0.2250 -0.1550  0.2126
19276TIP3    H179243   5.479   2.700  15.874  1.7785  0.7107 -0.6559
19276TIP3    H279244   5.390   2.614  15.787  2.0760 -1.0980  0.8058
19277TIP3   OH279245   4.362   2.187   4.583  0.0662  0.0072 -0.3672
19277TIP3    H179246   4.447   2.144   4.594 -0.3972 -2.2702 -4.7716
19277TIP3    H279247   4.383   2.279   4.571  1.7734 -0.3137  0.0078
19278TIP3   OH279248   5.769   6.608   4.675 -0.1829  0.4791 -0.0694
19278TIP3    H179249   5.831   6.586   4.606  0.1413  3.9122 -0.9810
19278TIP3    H279250   5.824   6.627   4.751 -0.3271  0.3307  0.0732
19279TIP3   OH279251   1.029   2.583  12.152 -0.2760  0.1057 -0.2746
19279TIP3    H179252   1.050   2.641  12.226 -0.0817  0.1634 -0.3736
19279TIP3    H279253   1.094   2.512  12.158  0.3435  0.6101 -0.9500
19280TIP3   OH279254   1.095   5.991   5.437 -0.0886 -0.1181 -0.3676
19280TIP3    H179255   1.064   6.046   5.365  1.6232 -0.9020 -1.7311
19280TIP3    H279256   1.084   5.902   5.405 -1.7080 -0.5687  1.3634
19281TIP3   OH279257   2.473   0.114  16.717  0.0936  0.0599 -0.1526
19281TIP3    H179258   2.460   0.193  16.665  1.7830 -0.4591 -1.4190
19281TIP3    H279259   2.472   0.042  16.653 -0.7337 -0.8820  0.8904
19282TIP3   OH279260   4.372   0.178  14.892  0.0173  0.4552  0.5187
19282TIP3    H179261   4.457   0.196  14.932 -0.1625 -0.0496  1.1492
19282TIP3    H279262   4.321   0.137  14.963 -1.3619  2.4232  0.7161
19283TIP3   OH279263   3.436   6.635   5.670 -0.0727  0.3559 -0.6677
19283TIP3    H179264   3.489   6.608   5.595 -0.1820 -1.5991 -0.0715
19283TIP3    H279265   3.491   6.697   5.718  0.8230  0.0008 -1.2282
19284TIP3   OH279266   4.419   2.709  12.496  0.2967  0.3329  0.4578
19284TIP3    H179267   4.476   2.700  12.572 -0.3569  0.3792  0.9603
19284TIP3    H279268   4.410   2.620  12.462 -0.1368  0.1741  0.9769
19285TIP3   OH279269   1.679   1.867   6.014  0.3144  0.5491 -0.1854
19285TIP3    H179270   1.595   1.882   6.056 -0.2865 -1.8843 -0.3997
19285TIP3    H279271   1.742   1.915   6.068 -1.0935  1.6818  0.4809
19286TIP3   OH279272   6.198   0.923  12.290 -0.3535 -0.0713  0.1544
19286TIP3    H179273   6.227   1.014  12.295 -0.4018 -0.0720  0.4496
19286TIP3    H279274   6.279   0.873  12.280 -0.4118  0.0928 -1.1510
19287TIP3   OH279275   1.388   5.227  15.255  0.2331 -0.0934 -0.4584
19287TIP3    H179276   1.369   5.261  15.167  0.1114  0.3573 -0.2559
19287TIP3    H279277   1.428   5.300  15.301  1.7142 -0.7877 -0.6170
19288TIP3   OH279278   2.720   4.412  16.904 -0.0857  0.1508  0.5503
19288TIP3    H179279   2.680   4.328  16.927 -0.4443 -0.5906 -2.5529
19288TIP3    H279280   2.650   4.476  16.915 -0.0584 -0.0544  2.0588
19289TIP3   OH279281   0.293   3.835   5.632 -0.1897  0.2066 -0.6507
19289TIP3    H179282   0.250   3.756   5.666  0.0379 -0.6149 -2.2533
19289TIP3    H279283   0.337   3.872   5.709 -0.0261 -1.4033  0.0640
19290TIP3   OH279284   0.251   3.551   5.509  0.2608 -0.2194 -0.2164
19290TIP3    H179285   0.162   3.515   5.508  0.3261 -0.3774 -1.9768
19290TIP3    H279286   0.240   3.640   5.542 -0.5734 -0.1775 -0.5936
19291TIP3   OH279287   4.557   6.229  11.311 -0.1650  0.5890 -0.3234
19291TIP3    H179288   4.471   6.224  11.271 -0.2938 -0.9378  0.1073
19291TIP3    H279289   4.615   6.184  11.250 -0.0196 -0.0479  0.2744
19292TIP3   OH279290   0.391   0.093   2.097 -0.4044 -0.5107  0.2942
19292TIP3    H179291   0.453   0.165   2.110  1.1013 -1.7389  0.0655
19292TIP3    H279292   0.378   0.089   2.002  0.3992 -1.2442  0.2040
19293TIP3   OH279293   1.246   6.673  14.144  0.1646 -0.0665  0.2282
19293TIP3    H179294   1.176   6.657  14.081  1.3403 -0.1756 -1.0658
19293TIP3    H279295   1.278   6.761  14.124  1.4837 -0.6394 -0.2700
19294TIP3   OH279296   5.590   1.235   3.885  0.2811 -0.5491  0.4207
19294TIP3    H179297   5.534   1.190   3.948  0.9505 -0.4697  1.0790
19294TIP3    H279298   5.529   1.276   3.824 -0.4224  0.8309  2.0231
19295TIP3   OH279299   6.018   1.829   3.879 -0.2384 -0.0180 -0.0879
19295TIP3    H179300   6.086   1.860   3.939  0.0608  0.0529 -0.4625
19295TIP3    H279301   6.009   1.899   3.815 -0.1310 -0.3518 -0.4712
19296TIP3   OH279302   0.431   3.960   3.981 -0.1118  0.0308  0.5165
19296TIP3    H179303   0.483   3.890   4.020  0.4235 -0.4499 -1.0355
19296TIP3    H279304   0.470   3.975   3.896 -0.7127  1.6990  0.5150
19297TIP3   OH279305   5.831   3.268   2.979 -0.0431 -0.2610  0.1792
19297TIP3    H179306   5.751   3.319   2.994 -0.0233 -0.6275  1.6012
19297TIP3    H279307   5.857   3.239   3.066  1.1625 -0.8747 -0.3811
19298TIP3   OH279308   3.538   5.984  14.103 -0.0511  0.1783 -0.0546
19298TIP3    H179309   3.451   6.017  14.083  0.0612  0.9189  0.6605
19298TIP3    H279310   3.566   6.033  14.180  1.7156  1.2245 -1.3148
19299TIP3   OH279311   0.048   2.829   1.643 -0.1576 -0.1716 -0.3608
19299TIP3    H179312   0.066   2.811   1.735  0.3343  0.2801 -0.3624
19299TIP3    H279313  -0.018   2.898   1.644 -0.9832 -0.9567 -0.3513
19300TIP3   OH279314   3.712   2.965   6.577  0.1987 -0.1031  0.7468
19300TIP3    H179315   3.698   2.883   6.625  0.2266 -1.3043 -1.2380
19300TIP3    H279316   3.801   2.991   6.600  1.3953 -2.3738 -1.0775
19301TIP3   OH279317   0.391   6.103   2.052 -0.9480  0.1984 -0.2277
19301TIP3    H179318   0.360   6.027   2.103 -0.4557  0.5639  0.6168
19301TIP3    H279319   0.457   6.067   1.993 -0.1773  0.0889  0.6894
19302TIP3   OH279320   2.313   6.388   0.679 -0.3671 -0.4672  0.0382
19302TIP3    H179321   2.250   6.354   0.742 -0.8856 -0.3128 -0.3917
19302TIP3    H279322   2.393   6.402   0.730 -0.9233  0.1049  0.7674
19303TIP3   OH279323   3.549   3.818   1.732 -0.2582 -0.5804 -0.6101
19303TIP3    H179324   3.629   3.815   1.785 -0.3034 -0.4262 -0.5309
19303TIP3    H279325   3.481   3.845   1.794 -0.4527 -1.1378 -0.5831
19304TIP3   OH279326   4.442   4.430  12.029  0.3530  0.5778 -0.1619
19304TIP3    H179327   4.456   4.523  12.012 -1.4246  0.5505 -1.9148
19304TIP3    H279328   4.487   4.385  11.958  2.9265 -0.0282  1.7677
19305TIP3   OH279329   4.620   4.762  10.915 -0.0357 -0.0565 -0.6240
19305TIP3    H179330   4.577   4.841  10.948  1.8893  1.3768 -1.4691
19305TIP3    H279331   4.713   4.781  10.922  0.4378 -1.7119 -2.1492
19306TIP3   OH279332   6.029   1.560   5.613 -0.1178 -0.3929 -1.1627
19306TIP3    H179333   6.050   1.467   5.601  0.4556 -0.3872 -0.2656
19306TIP3    H279334   6.071   1.583   5.696 -2.9794 -0.1581  0.3045
19307TIP3   OH279335   3.273   0.813   2.919 -0.5724 -0.0299  0.1310
19307TIP3    H179336   3.178   0.817   2.928 -0.5881 -1.9222  1.1340
19307TIP3    H279337   3.288   0.734   2.866  0.4229  0.3002 -0.0786
19308TIP3   OH279338   3.667   1.090  11.011 -0.1031 -0.0337 -0.3918
19308TIP3    H179339   3.727   1.068  11.083  1.3448  0.9096 -1.2921
19308TIP3    H279340   3.722   1.132  10.946 -1.4519 -0.7164 -1.9984
19309TIP3   OH279341   3.812   3.646  12.484 -0.0764 -0.1422 -0.0408
19309TIP3    H179342   3.829   3.595  12.563  2.0201 -0.6426 -0.7857
19309TIP3    H279343   3.794   3.735  12.516  2.5835  0.0944  0.9183
19310TIP3   OH279344   3.902   4.627  15.041  0.3888 -0.3673  0.0769
19310TIP3    H179345   3.964   4.578  15.095  0.4968 -0.0025  0.2808
19310TIP3    H279346   3.919   4.719  15.060 -1.3695 -0.2919  1.4200
19311TIP3   OH279347   3.568   5.082   4.077  0.1521 -0.4399  0.5367
19311TIP3    H179348   3.660   5.056   4.084  0.1015 -0.9956 -0.7411
19311TIP3    H279349   3.570   5.172   4.046  0.2521 -1.5777 -2.9330
19312TIP3   OH279350   3.893   3.352   1.971  0.4186  0.1443  0.2479
19312TIP3    H179351   3.950   3.309   2.034  0.6319  0.6725  0.4154
19312TIP3    H279352   3.943   3.350   1.889 -0.0788 -1.0256 -0.0495
19313TIP3   OH279353   0.420   3.193  14.915  0.0315  0.0831 -0.2340
19313TIP3    H179354   0.422   3.285  14.943 -0.6057  0.1423 -0.3699
19313TIP3    H279355   0.339   3.185  14.864  0.1241 -0.5352 -0.2910
19314TIP3   OH279356   5.284   3.992  11.592  0.4104  0.0952  0.0168
19314TIP3    H179357   5.202   4.029  11.560 -0.4613 -2.3104 -0.6940
19314TIP3    H279358   5.307   4.046  11.667 -0.5259  2.3240 -1.2488
19315TIP3   OH279359   5.123   2.422   4.340  0.2937  0.1877 -0.1517
19315TIP3    H179360   5.054   2.386   4.395  0.4247  0.0202 -0.0976
19315TIP3    H279361   5.083   2.426   4.252  0.8969 -1.8718 -0.5444
19316TIP3   OH279362   4.284   4.895  17.078  0.7099  0.2307  0.0719
19316TIP3    H179363   4.209   4.950  17.100  0.4753  0.0088 -0.1785
19316TIP3    H279364   4.339   4.898  17.156  0.4150  0.3459  0.2754
19317TIP3   OH279365   2.651   2.386   4.739  0.0960  0.5598 -0.2883
19317TIP3    H179366   2.695   2.448   4.680  0.3897  1.1943  0.5800
19317TIP3    H279367   2.710   2.311   4.743 -0.6968 -0.1772 -2.0653
19318TIP3   OH279368   3.287   2.947  16.161 -0.1011  0.7872 -0.3369
19318TIP3    H179369   3.311   2.982  16.076  2.3320  2.1374  0.8377
19318TIP3    H279370   3.370   2.916  16.198 -1.1498  0.0103  1.4379
19319TIP3   OH279371   0.024   1.044   6.444  0.2383  0.4418  0.5963
19319TIP3    H179372  -0.064   1.060   6.412  0.3801 -0.6085 -0.3813
19319TIP3    H279373   0.013   1.018   6.536 -0.4051  0.9475  0.6567
19320TIP3   OH279374   5.370   6.007  13.103 -0.5272  0.0639  0.6321
19320TIP3    H179375   5.361   6.066  13.029 -1.5024 -0.5613  0.2410
19320TIP3    H279376   5.369   5.919  13.064 -2.1356 -0.3137  1.4583
19321TIP3   OH279377   5.154   1.775   3.348 -0.6493  0.0279  0.2371
19321TIP3    H179378   5.076   1.731   3.382 -1.1035  0.6236 -0.0506
19321TIP3    H279379   5.192   1.711   3.287 -0.8564 -0.2968  0.4446
19322TIP3   OH279380   3.328   2.503   4.791 -0.4097 -0.1188 -0.0712
19322TIP3    H179381   3.302   2.529   4.703  0.4897 -0.7631 -0.5375
19322TIP3    H279382   3.379   2.577   4.824 -0.1610 -0.1670 -0.3531
19323TIP3   OH279383   4.091   4.842  15.270 -0.5622  0.2166  0.3585
19323TIP3    H179384   4.015   4.875  15.222 -0.4581  0.8897  0.6490
19323TIP3    H279385   4.055   4.789  15.341 -0.7002 -1.9332 -1.2556
19324TIP3   OH279386   1.910   5.552  13.717 -0.2217 -0.3051  0.2906
19324TIP3    H179387   1.913   5.602  13.635 -0.3900 -1.2353 -0.2876
19324TIP3    H279388   1.994   5.508  13.721 -1.4347 -2.8457 -1.0320
19325TIP3   OH279389   2.018   3.687   1.347  0.3560 -0.2409 -0.1388
19325TIP3    H179390   1.972   3.692   1.264 -1.8340  1.2138  1.1110
19325TIP3    H279391   1.991   3.602   1.384  0.8759 -0.6265 -0.6280
19326TIP3   OH279392   0.615   2.275   2.043  0.4243 -0.0105 -0.3726
19326TIP3    H179393   0.558   2.337   2.089 -0.2300 -0.5721 -0.4170
19326TIP3    H279394   0.698   2.322   2.032 -0.6546  1.5751 -2.0866
19327TIP3   OH279395   4.548   2.167   5.744  0.1243 -0.2460  0.2002
19327TIP3    H179396   4.619   2.103   5.742  1.9361  1.7360 -0.5990
19327TIP3    H279397   4.491   2.137   5.815  1.6279 -1.9990  0.7059
19328TIP3   OH279398   2.971   0.942   3.740 -0.5914  0.0371  0.2967
19328TIP3    H179399   3.065   0.956   3.730 -0.8139  0.7425 -0.9774
19328TIP3    H279400   2.941   0.916   3.653 -1.2666 -2.1501  1.1583
19329TIP3   OH279401   4.946   4.609   2.289  0.4291  0.3937  0.2163
19329TIP3    H179402   5.018   4.638   2.346  1.5601 -2.7928  0.4894
19329TIP3    H279403   4.893   4.553   2.345 -0.3592 -0.0343 -0.9559
19330TIP3   OH279404   6.337   6.511  11.659  0.3408  0.3683  0.2540
19330TIP3    H179405   6.360   6.573  11.728  1.9123  1.1194 -0.8993
19330TIP3    H279406   6.397   6.532  11.587 -1.4867 -0.1471 -1.4795
19331TIP3   OH279407   3.055   4.709  13.888 -0.0080 -0.0091  0.2182
19331TIP3    H179408   3.003   4.639  13.847  1.2481  0.2113 -1.7840
19331TIP3    H279409   3.053   4.780  13.825  3.1392 -0.1737 -0.1359
19332TIP3   OH279410   1.785   6.344   5.814 -0.4098 -0.1971 -0.5883
19332TIP3    H179411   1.721   6.397   5.862 -2.2704 -1.5803 -1.4810
19332TIP3    H279412   1.735   6.269   5.782  1.4893 -0.8951 -2.0171
19333TIP3   OH279413   2.262   0.041  11.385  0.0513 -0.9165 -0.4727
19333TIP3    H179414   2.296   0.115  11.435  1.4095 -1.0503 -1.1760
19333TIP3    H279415   2.192   0.079  11.331  0.3275 -0.2689 -0.3793
19334TIP3   OH279416   3.348   0.464   6.466 -0.2940 -0.0561 -0.6047
19334TIP3    H179417   3.348   0.556   6.443 -0.7796  0.3244  0.8303
19334TIP3    H279418   3.267   0.429   6.428 -0.6453  0.3622 -0.2540
19335TIP3   OH279419   5.384   3.182   2.884  0.1924 -0.2866  0.4484
19335TIP3    H179420   5.466   3.208   2.924  0.6823  0.3770 -0.9327
19335TIP3    H279421   5.410   3.123   2.813 -0.4516  0.4466 -0.4163
19336TIP3   OH279422   3.353   3.636  14.882  0.0176  0.3995 -0.0332
19336TIP3    H179423   3.269   3.595  14.862  0.1793  0.6357 -1.2492
19336TIP3    H279424   3.340   3.679  14.967 -1.1533  0.6197 -0.3251
19337TIP3   OH279425   5.208   1.980  16.833 -0.0101  0.5747  0.0563
19337TIP3    H179426   5.192   1.989  16.739  0.7498 -1.1041 -0.2588
19337TIP3    H279427   5.172   1.894  16.855  0.5454  0.6076  1.1318
19338TIP3   OH279428   1.267   5.001   2.724 -0.0969 -0.2916  0.5957
19338TIP3    H179429   1.222   5.029   2.803  0.5508  1.4784  0.3518
19338TIP3    H279430   1.355   4.978   2.753  0.4894  1.4510  0.2164
19339TIP3   OH279431   6.099   4.193  15.560  0.1295 -0.0500  0.4451
19339TIP3    H179432   6.089   4.140  15.639  1.8155  0.2002  0.8377
19339TIP3    H279433   6.010   4.222  15.539 -0.4878 -1.1298  1.5468
19340TIP3   OH279434   1.750   5.095   5.983  0.1759  0.1395 -0.6450
19340TIP3    H179435   1.792   5.147   5.914 -0.4601  1.8367  0.2263
19340TIP3    H279436   1.684   5.044   5.936  0.6688  0.2692 -1.4916
19341TIP3   OH279437   5.850   3.712  16.065  0.1017 -0.1016 -0.1488
19341TIP3    H179438   5.925   3.737  16.120 -0.4467  0.6978  0.2384
19341TIP3    H279439   5.799   3.792  16.055 -0.9057 -0.7213 -0.1064
19342TIP3   OH279440   2.347   1.374  15.556 -0.3454  0.6081  0.2044
19342TIP3    H179441   2.281   1.376  15.487 -0.4392  0.1424  0.2798
19342TIP3    H279442   2.301   1.343  15.633 -0.0513  0.3313  0.2718
19343TIP3   OH279443   4.166   2.781  12.352  0.0685  0.1134  0.0869
19343TIP3    H179444   4.193   2.818  12.268  1.1146  0.5838  0.6270
19343TIP3    H279445   4.244   2.786  12.407 -0.5064 -0.5344  0.9763
19344TIP3   OH279446   1.735   3.946   0.082  0.4760 -0.5658  0.1535
19344TIP3    H179447   1.669   3.880   0.102 -1.1664  0.7024 -0.9949
19344TIP3    H279448   1.792   3.947   0.159 -1.3901 -1.0033  1.5672
19345TIP3   OH279449   3.019   2.280  15.940 -0.6243 -0.3769  0.3178
19345TIP3    H179450   3.082   2.283  15.868 -0.5086 -0.0249  0.4327
19345TIP3    H279451   2.948   2.338  15.911 -0.2690  0.2931  0.7774
19346TIP3   OH279452   3.821   1.137  10.343 -0.2225 -0.7518  0.0718
19346TIP3    H179453   3.865   1.162  10.424 -0.9852  0.4921  0.1219
19346TIP3    H279454   3.889   1.140  10.276 -0.0340  0.2879  0.3046
19347TIP3   OH279455   2.774   4.918   2.544  0.2818 -0.3305  0.3096
19347TIP3    H179456   2.731   4.833   2.547  1.0264 -0.7492 -0.6688
19347TIP3    H279457   2.702   4.981   2.542 -0.2746 -0.9452  0.6539
19348TIP3   OH279458   2.372   2.095  13.205 -0.1631  0.1552 -0.2706
19348TIP3    H179459   2.425   2.097  13.125 -1.1721 -0.0270 -0.9536
19348TIP3    H279460   2.328   2.010  13.203 -0.9402  0.5426 -0.0143
19349TIP3   OH279461   0.004   3.911   3.035 -0.1882 -0.3323  0.2016
19349TIP3    H179462   0.011   3.936   3.127 -1.9707 -3.9838  1.4411
19349TIP3    H279463  -0.080   3.948   3.007  0.6918  1.4075 -0.2291
19350TIP3   OH279464   0.310   6.376   4.949  0.3474 -0.7264 -0.4451
19350TIP3    H179465   0.218   6.367   4.923  0.3067  1.3302 -1.1086
19350TIP3    H279466   0.357   6.313   4.895 -0.5668 -1.1021 -0.8045
19351TIP3   OH279467   3.589   3.781  13.078 -0.0790 -0.2844  0.5357
19351TIP3    H179468   3.537   3.814  13.150  1.4443  1.5354  0.8154
19351TIP3    H279469   3.671   3.829  13.082  0.9274 -1.7870 -1.0211
19352TIP3   OH279470   3.048   0.459  15.125  0.3661  0.3643  0.2259
19352TIP3    H179471   3.050   0.540  15.175  0.2986  1.3011 -1.2596
19352TIP3    H279472   3.033   0.391  15.190  0.0804  1.5737  1.4458
19353TIP3   OH279473   3.422   6.374   1.667  0.4720  0.1031 -0.1023
19353TIP3    H179474   3.507   6.368   1.711  1.2789 -1.0484 -1.7365
19353TIP3    H279475   3.403   6.284   1.641 -0.1452  0.6934 -1.7692
19354TIP3   OH279476   3.125   4.912   1.158 -0.4456 -0.0145  0.3587
19354TIP3    H179477   3.034   4.890   1.137  0.0742 -0.3425 -1.5841
19354TIP3    H279478   3.132   4.896   1.252 -2.6912  1.0452  0.7437
19355TIP3   OH279479   0.505   6.546  13.105  0.0750  0.2020 -0.4952
19355TIP3    H179480   0.429   6.568  13.159  0.7591 -1.7910  1.3899
19355TIP3    H279481   0.473   6.550  13.015 -1.0423  3.8588 -0.0334
19356TIP3   OH279482   0.625   4.678  14.644  0.1645  0.1280 -0.0116
19356TIP3    H179483   0.689   4.619  14.683  1.4467  0.8884 -0.9506
19356TIP3    H279484   0.643   4.763  14.684 -1.3876  0.0167  1.0036
19357TIP3   OH279485   3.778   2.046  11.318  0.8377 -0.3426 -0.3626
19357TIP3    H179486   3.694   2.092  11.321  1.4189  0.7030  0.6381
19357TIP3    H279487   3.785   2.003  11.403  0.7408 -1.5006 -0.9316
19358TIP3   OH279488   0.470   1.016   0.571  0.3212  0.2653 -0.6494
19358TIP3    H179489   0.536   1.016   0.502 -0.7659 -1.3843 -1.7087
19358TIP3    H279490   0.426   0.932   0.563 -1.1416  0.8593  0.8003
19359TIP3   OH279491   5.264   1.658   0.425 -0.0150  0.2349 -0.3205
19359TIP3    H179492   5.347   1.610   0.414 -0.1420 -1.2395  4.1989
19359TIP3    H279493   5.290   1.740   0.466 -0.6238  0.5120 -0.4983
19360TIP3   OH279494   2.579   4.183   4.176  0.2985 -0.1745  0.2056
19360TIP3    H179495   2.579   4.159   4.084  0.8659  1.0712 -0.1234
19360TIP3    H279496   2.488   4.203   4.196  0.5323  1.8667 -0.7039
19361TIP3   OH279497   0.510   6.025  12.312 -0.0242  0.0132 -0.0180
19361TIP3    H179498   0.511   5.966  12.388 -0.3802  0.1323  0.0808
19361TIP3    H279499   0.580   6.088  12.330 -0.5121  0.4072  0.4995
19362TIP3   OH279500   1.667   1.618  11.989  0.0859 -0.0953 -0.5085
19362TIP3    H179501   1.714   1.697  11.962  0.0843  0.2237  0.3996
19362TIP3    H279502   1.602   1.650  12.052  0.8874 -0.9816  0.7777
19363TIP3   OH279503   3.205   1.111   4.295 -0.1411  0.2681 -0.4397
19363TIP3    H179504   3.233   1.193   4.253  0.5454  0.8619  1.1486
19363TIP3    H279505   3.234   1.042   4.235  2.4032  1.0198 -0.1313
19364TIP3   OH279506   4.734   2.233  12.305 -0.2266 -0.2480  0.0152
19364TIP3    H179507   4.758   2.224  12.398 -0.9584  0.2970  0.2621
19364TIP3    H279508   4.648   2.193  12.298 -1.0549  1.4931 -0.0086
19365TIP3   OH279509   1.904   4.433   0.002  0.1865  0.5292  0.1724
19365TIP3    H179510   1.872   4.343   0.002  2.5214 -0.3364 -0.8232
19365TIP3    H279511   1.859   4.475  -0.071 -0.0455 -0.1207 -0.0586
19366TIP3   OH279512   3.216   6.370   3.355 -0.1524 -0.4472  0.3912
19366TIP3    H179513   3.230   6.354   3.449 -0.1801  2.0189  0.8564
19366TIP3    H279514   3.275   6.308   3.311  2.6106  0.8665  2.1022
19367TIP3   OH279515   2.718   6.725   5.625  0.2848  0.1189 -0.4044
19367TIP3    H179516   2.775   6.649   5.635 -1.1760 -0.7730  1.3789
19367TIP3    H279517   2.771   6.788   5.576  1.7676 -1.7499 -1.2749
19368TIP3   OH279518   2.577   0.328  11.621 -0.1835  0.2233 -0.5316
19368TIP3    H179519   2.548   0.293  11.706 -0.7190  1.4384 -0.1966
19368TIP3    H279520   2.594   0.421  11.638 -0.8097  0.5990 -1.8794
19369TIP3   OH279521   4.295   0.306  12.282 -0.4858  0.3163 -0.2565
19369TIP3    H179522   4.318   0.239  12.217  1.5469  0.6057  0.1376
19369TIP3    H279523   4.359   0.293  12.353 -1.4565  1.2730  0.8093
19370TIP3   OH279524   0.838   5.910   0.168 -0.1695  0.1021 -0.1550
19370TIP3    H179525   0.751   5.872   0.177 -0.2305  0.1255 -0.6312
19370TIP3    H279526   0.843   5.975   0.238 -1.3242  1.5899 -1.4134
19371TIP3   OH279527   5.206   0.392  10.815  0.2435 -0.0092 -1.0006
19371TIP3    H179528   5.147   0.354  10.750  0.3461 -1.9238 -0.0071
19371TIP3    H279529   5.278   0.329  10.821  0.0247 -0.0686  1.2747
19372TIP3   OH279530   6.572   3.584  13.655  0.0105  0.0393  0.3173
19372TIP3    H179531   6.563   3.621  13.743 -0.9242  1.0814 -0.2094
19372TIP3    H279532   6.622   3.649  13.607  0.8609 -0.7139  0.1831
19373TIP3   OH279533   1.356   6.455  16.330  0.1111  0.1068  0.3307
19373TIP3    H179534   1.261   6.463  16.330 -0.1774 -2.7115 -1.5947
19373TIP3    H279535   1.379   6.429  16.240  2.4566 -1.6981  1.3923
19374TIP3   OH279536   1.428   4.709   0.062 -0.1053 -0.4194  0.1180
19374TIP3    H179537   1.493   4.653   0.018  0.7052  0.2280  0.4834
19374TIP3    H279538   1.358   4.720  -0.003  0.0246 -1.3360 -0.1824
19375TIP3   OH279539   1.232   2.266   3.264  0.4065  0.5016  0.2717
19375TIP3    H179540   1.232   2.304   3.352 -0.5329  0.0048  0.4875
19375TIP3    H279541   1.159   2.308   3.220  1.0811  0.9965 -0.3912
19376TIP3   OH279542   0.114   1.997   5.674 -0.0755 -0.9275 -0.5392
19376TIP3    H179543   0.100   2.059   5.603  1.1719 -0.9613 -0.8264
19376TIP3    H279544   0.191   1.947   5.648  1.2853  0.0064  1.4866
19377TIP3   OH279545   2.465   0.050  13.522 -0.3361  0.2044  0.0161
19377TIP3    H179546   2.405  -0.024  13.513 -1.0717  0.8657 -0.6042
19377TIP3    H279547   2.500   0.064  13.434  0.8227 -0.2375  0.3909
19378TIP3   OH279548   6.248   2.250  12.272  0.7683  0.2627 -0.2939
19378TIP3    H179549   6.184   2.314  12.242 -0.0470 -0.2567  0.2974
19378TIP3    H279550   6.314   2.247  12.203 -0.7320 -0.4513 -1.7354
19379TIP3   OH279551   6.712   2.222   6.050 -0.3740  0.4309 -0.0445
19379TIP3    H179552   6.748   2.261   6.129 -2.3532  2.7921 -0.2552
19379TIP3    H279553   6.783   2.230   5.985  0.4760  0.4668  0.8827
19380TIP3   OH279554   5.907   6.087  14.771  0.3581  0.3374  0.3758
19380TIP3    H179555   5.889   6.151  14.840  0.1505 -0.9718  1.5556
19380TIP3    H279556   5.936   6.140  14.696 -4.4345  2.3091 -0.3134
19381TIP3   OH279557   3.495   1.178   3.756  0.3007  0.1788  0.7564
19381TIP3    H179558   3.446   1.215   3.683 -0.1754 -0.7532  0.6002
19381TIP3    H279559   3.540   1.102   3.719 -1.7027 -1.6229  1.9185
19382TIP3   OH279560   6.297   2.773   1.055  0.1034 -0.1412  0.0869
19382TIP3    H179561   6.297   2.750   0.962  0.7210 -1.5745  0.4272
19382TIP3    H279562   6.205   2.769   1.080  0.2235 -3.1104  0.3008
19383TIP3   OH279563   3.229   1.666  15.413  0.5542 -0.1338  0.3478
19383TIP3    H179564   3.166   1.661  15.485  0.4949 -0.7684  0.2548
19383TIP3    H279565   3.283   1.588  15.424 -0.2784 -0.9241 -1.0576
19384TIP3   OH279566   3.426   2.378  11.461  0.5749  0.0677  0.3301
19384TIP3    H179567   3.484   2.348  11.531 -1.1826 -0.3041  1.6666
19384TIP3    H279568   3.386   2.298  11.427  1.0151  0.2961 -0.7522
19385TIP3   OH279569   1.054   5.467  14.604  0.2395 -0.4520 -0.0511
19385TIP3    H179570   1.036   5.491  14.514 -1.0056  1.5360  0.6949
19385TIP3    H279571   1.091   5.546  14.644  3.5290 -2.1506  0.4719
19386TIP3   OH279572   1.973   1.085   3.147  0.2507  0.2757 -0.4532
19386TIP3    H179573   1.945   1.004   3.189 -0.6567  0.5988 -0.4184
19386TIP3    H279574   2.036   1.124   3.208  0.3838 -0.1977 -0.2859
19387TIP3   OH279575   4.001   5.478  12.997  0.2136 -0.0764 -0.1058
19387TIP3    H179576   3.992   5.557  13.050 -1.9717 -0.6409  0.4378
19387TIP3    H279577   4.010   5.407  13.060  0.4507 -0.4530 -0.5579
19388TIP3   OH279578   1.451   5.074   1.510 -0.3653  0.0913 -0.2536
19388TIP3    H179579   1.437   5.021   1.588 -0.1000 -1.1118 -1.0167
19388TIP3    H279580   1.466   5.163   1.544  0.5890 -0.5667  1.0988
19389TIP3   OH279581   4.639   2.416  16.763 -0.6561  0.1203  0.7689
19389TIP3    H179582   4.659   2.322  16.759 -1.8286 -0.1101 -0.0552
19389TIP3    H279583   4.724   2.458  16.775  0.0897 -0.9475 -0.5663
19390TIP3   OH279584   2.507   5.659  14.251 -0.0877  0.2871  0.2695
19390TIP3    H179585   2.600   5.681  14.249 -0.0000 -0.1083 -0.1809
19390TIP3    H279586   2.464   5.739  14.280  0.3703  0.5592  0.2029
19391TIP3   OH279587   1.608   0.770   3.339 -0.2004  0.9964 -0.2561
19391TIP3    H179588   1.685   0.715   3.322 -0.0121  1.4880 -1.0820
19391TIP3    H279589   1.539   0.731   3.285 -0.4441  0.7443  0.2394
19392TIP3   OH279590   1.581   2.804  15.597 -0.2480  0.1699  0.3837
19392TIP3    H179591   1.591   2.739  15.667  5.0862  1.5257  1.1595
19392TIP3    H279592   1.570   2.887  15.644 -1.3193  0.5459 -0.5106
19393TIP3   OH279593   3.486   1.683  11.751 -0.0909  0.1660  0.3539
19393TIP3    H179594   3.492   1.614  11.817 -0.3164  0.2247  0.4359
19393TIP3    H279595   3.571   1.682  11.707 -0.3623 -0.6985 -0.1691
19394TIP3   OH279596   4.298   3.722  15.772  0.3340  0.2839 -0.3700
19394TIP3    H179597   4.264   3.657  15.710  1.1636  0.1507 -0.6952
19394TIP3    H279598   4.299   3.677  15.856  2.7294 -0.7868 -0.9338
19395TIP3   OH279599   2.848   3.437  12.209 -0.0858  0.4092 -0.2238
19395TIP3    H179600   2.829   3.527  12.187 -1.0222  0.2274 -0.1727
19395TIP3    H279601   2.782   3.413  12.274  0.8273  0.0299  0.5996
19396TIP3   OH279602   5.035   3.118  12.450  0.2747 -0.1254 -0.3574
19396TIP3    H179603   4.989   3.064  12.515  3.3599 -1.6909  0.6063
19396TIP3    H279604   5.031   3.066  12.369  0.5533 -0.3706 -0.2147
19397TIP3   OH279605   3.505   5.061   0.185  0.3514  0.3822 -0.2113
19397TIP3    H179606   3.491   5.062   0.091  0.9170 -1.6087 -0.3503
19397TIP3    H279607   3.557   5.139   0.203  1.8019 -0.1850 -1.8295
19398TIP3   OH279608   6.181   6.444   2.745  0.4491 -0.0503  0.5837
19398TIP3    H179609   6.105   6.501   2.747 -0.8716 -1.6674 -1.2615
19398TIP3    H279610   6.218   6.458   2.657 -0.2759 -2.4608 -0.1381
19399TIP3   OH279611   4.987   1.880  15.171 -0.4929  0.0967  0.1887
19399TIP3    H179612   5.012   1.892  15.262 -1.4663  2.0466  0.2230
19399TIP3    H279613   5.063   1.910  15.121  0.2665 -1.5168  0.3334
19400TIP3   OH279614   1.966   2.243  17.079 -0.3387 -0.0761 -0.0772
19400TIP3    H179615   1.993   2.237  16.987  1.0631 -1.5972  0.4026
19400TIP3    H279616   1.880   2.284  17.076 -0.8363 -1.1786 -2.1622
19401TIP3   OH279617   6.502   5.551   5.167 -0.4750  0.1263 -0.1073
19401TIP3    H179618   6.461   5.522   5.248  1.0719 -1.6818  0.0556
19401TIP3    H279619   6.568   5.614   5.195 -0.4212  0.0317 -0.0209
19402TIP3   OH279620   5.217   0.997   0.538 -0.0922 -0.4835 -0.3186
19402TIP3    H179621   5.188   1.015   0.628  0.6504 -0.7683 -0.0175
19402TIP3    H279622   5.225   1.083   0.497 -0.2975 -0.3448 -0.0672
19403TIP3   OH279623   6.195   3.045   4.082  0.0468  0.0400  0.5030
19403TIP3    H179624   6.127   3.079   4.024  0.2267 -0.1192  0.1949
19403TIP3    H279625   6.270   3.101   4.065 -0.3011  0.8213  1.5491
19404TIP3   OH279626   5.265   4.542   3.392 -0.2092 -0.2392  0.4935
19404TIP3    H179627   5.221   4.627   3.379 -0.5764 -0.7889 -2.2195
19404TIP3    H279628   5.358   4.563   3.395 -0.0794  0.0284 -3.1914
19405TIP3   OH279629   5.880   3.564  11.955  0.0253 -0.3387  0.2574
19405TIP3    H179630   5.805   3.615  11.923 -2.0167 -2.2106  1.9667
19405TIP3    H279631   5.924   3.623  12.017 -0.3121  0.5658 -0.3423
19406TIP3   OH279632   4.090   4.739  15.747 -0.1558  0.4962 -0.5648
19406TIP3    H179633   4.036   4.745  15.668  1.8901  1.8015 -1.9168
19406TIP3    H279634   4.082   4.648  15.775 -0.4159 -0.1533 -2.6492
19407TIP3   OH279635   3.332   1.701  16.131 -0.3557 -0.5297 -0.4815
19407TIP3    H179636   3.251   1.680  16.176 -1.8267  1.1847 -2.2430
19407TIP3    H279637   3.311   1.696  16.038  1.3868  0.5332 -0.9720
19408TIP3   OH279638   6.644   0.415   4.504 -0.3675 -0.2994 -0.3284
19408TIP3    H179639   6.672   0.446   4.591 -2.5672 -1.3739  0.8060
19408TIP3    H279640   6.665   0.322   4.505 -2.1968 -0.7186 -0.1865
19409TIP3   OH279641   3.641   1.482   2.568 -0.3677 -0.1164 -0.1639
19409TIP3    H179642   3.627   1.569   2.606  0.6752  0.4490 -1.0217
19409TIP3    H279643   3.631   1.422   2.641 -0.7619  0.7664  0.5131
19410TIP3   OH279644   3.718   1.260   0.164  0.0765  0.5264  0.2975
19410TIP3    H179645   3.719   1.323   0.236  0.5899  0.7243  0.1185
19410TIP3    H279646   3.707   1.313   0.085  0.8696  0.4225  0.1150
19411TIP3   OH279647   6.730   3.831   4.424 -0.1542 -0.0300 -1.0167
19411TIP3    H179648   6.745   3.761   4.361  0.6902  0.5981 -1.5258
19411TIP3    H279649   6.808   3.887   4.417 -1.1283  1.3392 -1.1366
19412TIP3   OH279650   5.444   1.222  10.837 -0.3972 -0.0223  0.4342
19412TIP3    H179651   5.462   1.306  10.796 -0.1111 -0.3101 -0.0292
19412TIP3    H279652   5.499   1.159  10.790  0.2421 -0.2890  1.5233
19413TIP3   OH279653   5.429   3.341   4.685  0.0169 -0.4858  0.2965
19413TIP3    H179654   5.438   3.378   4.772  2.2212  0.9408 -0.4851
19413TIP3    H279655   5.514   3.302   4.666 -0.4250 -0.7662 -1.2248
19414TIP3   OH279656   4.392   5.883  12.116 -0.1598  0.1801 -0.0823
19414TIP3    H179657   4.325   5.859  12.052 -1.1283 -0.7118  1.2204
19414TIP3    H279658   4.472   5.893  12.065 -0.7854 -1.1034 -1.3507
19415TIP3   OH279659   1.152   0.745  13.940 -0.5809 -0.4632 -0.6261
19415TIP3    H179660   1.090   0.681  13.974 -0.1336 -0.1823  0.7541
19415TIP3    H279661   1.198   0.699  13.870 -1.6444 -0.9931 -0.9820
19416TIP3   OH279662   4.084   4.499  16.367  0.1021  0.4074 -0.4985
19416TIP3    H179663   3.999   4.540  16.351 -0.3632 -0.2337  0.2528
19416TIP3    H279664   4.062   4.415  16.409  1.0071 -0.7832 -2.3242
19417TIP3   OH279665   3.476   2.790   3.438  0.0190  0.2095  0.0617
19417TIP3    H179666   3.428   2.783   3.356 -1.2419 -0.0558  0.7997
19417TIP3    H279667   3.420   2.846   3.493  0.4264 -0.3218  1.0274
19418TIP3   OH279668   1.035   1.637   1.882 -0.2076  0.5337 -0.5378
19418TIP3    H179669   1.043   1.724   1.921  0.0319 -0.4573  1.6640
19418TIP3    H279670   1.115   1.626   1.831  0.8341  0.6813  1.0495
19419TIP3   OH279671   1.089   1.720   1.147  0.1537 -0.0490  0.0830
19419TIP3    H179672   1.137   1.719   1.230 -0.8137  1.6421  0.6864
19419TIP3    H279673   1.111   1.804   1.108 -3.3716  1.3965  1.0349
19420TIP3   OH279674   5.133   3.972  15.169  0.0362  0.4448  0.5876
19420TIP3    H179675   5.218   3.927  15.165  0.0358  0.5335 -0.7566
19420TIP3    H279676   5.150   4.057  15.129 -0.6389  0.5279  0.4776
19421TIP3   OH279677   4.641   1.218  11.564 -0.2762  0.1791 -0.4024
19421TIP3    H179678   4.582   1.186  11.495 -0.0886 -0.3357 -0.3308
19421TIP3    H279679   4.646   1.312  11.550 -2.3489  0.4572  0.5299
19422TIP3   OH279680   3.655   1.275   1.502 -0.1581 -0.2517  0.3654
19422TIP3    H179681   3.593   1.311   1.565 -0.1148  0.4301  0.0243
19422TIP3    H279682   3.741   1.305   1.534 -0.1195 -0.0759  0.0913
19423TIP3   OH279683   1.128   6.766  11.311  0.2696  0.0862  0.1553
19423TIP3    H179684   1.208   6.753  11.362  0.1046 -0.7663  0.2076
19423TIP3    H279685   1.060   6.779  11.376  0.2827  0.3374  0.1198
19424TIP3   OH279686   4.500   3.894  14.495  0.0755 -0.3145 -0.2235
19424TIP3    H179687   4.437   3.951  14.450  0.0821 -0.0454  0.1051
19424TIP3    H279688   4.447   3.821  14.527 -0.1390  0.1058  0.3906
19425TIP3   OH279689   4.456   6.340  15.008 -0.0832 -0.4201  0.1567
19425TIP3    H179690   4.410   6.398  14.947 -0.8264 -3.4871 -2.3452
19425TIP3    H279691   4.548   6.357  14.991 -0.2903 -0.0682 -0.6834
19426TIP3   OH279692   5.006   6.051  12.113 -0.8504 -0.3388  0.0915
19426TIP3    H179693   4.995   6.129  12.059 -1.1727 -0.6601 -0.3146
19426TIP3    H279694   5.052   5.989  12.057 -1.6936 -0.8760 -0.0092
19427TIP3   OH279695   3.402   3.938   4.174 -0.2202  0.3789  0.1567
19427TIP3    H179696   3.473   3.950   4.112 -0.6707  1.7236 -0.1174
19427TIP3    H279697   3.440   3.957   4.259  0.3995 -1.4711  0.3071
19428TIP3   OH279698   1.687   6.320  16.578  0.0516 -0.3016  0.0575
19428TIP3    H179699   1.739   6.276  16.646 -0.6733 -1.7547 -0.3075
19428TIP3    H279700   1.606   6.269  16.574  0.2891 -0.5288 -2.2450
19429TIP3   OH279701   5.281   1.819   2.540  0.1458 -0.2764 -0.3076
19429TIP3    H179702   5.373   1.842   2.554  0.1183 -0.2562 -0.1553
19429TIP3    H279703   5.237   1.847   2.620  0.1244 -0.9157 -0.0921
19430TIP3   OH279704   1.697   2.673  16.370  0.6299  0.4803 -0.1050
19430TIP3    H179705   1.620   2.648  16.319 -0.3744  0.7078  1.2871
19430TIP3    H279706   1.669   2.668  16.461  2.8505 -1.4292  0.5386
19431TIP3   OH279707   2.866   2.683   0.171 -0.1468  0.1436  0.6517
19431TIP3    H179708   2.947   2.707   0.217  0.1126  1.0296 -0.2254
19431TIP3    H279709   2.807   2.756   0.187  0.0061  0.5465 -0.5274
19432TIP3   OH279710   3.464   0.224  16.215 -0.3995 -0.0716  0.2819
19432TIP3    H179711   3.499   0.135  16.222 -0.3645 -0.1138 -0.3287
19432TIP3    H279712   3.383   0.222  16.266 -0.2350 -0.3682  0.5348
19433TIP3   OH279713   4.041   5.999  15.889 -0.2558  0.1211 -0.5051
19433TIP3    H179714   3.968   6.057  15.910  0.3595  0.5912  0.3667
19433TIP3    H279715   4.113   6.058  15.866  0.4923 -0.2712  0.7701
19434TIP3   OH279716   4.381   3.010   5.714 -0.0218  0.2222  0.4069
19434TIP3    H179717   4.416   2.972   5.795  1.3049  1.5034  0.4553
19434TIP3    H279718   4.287   2.994   5.720  0.2866 -1.4893  1.2370
19435TIP3   OH279719   2.720   1.105   4.736 -0.3881  0.3435  0.2951
19435TIP3    H179720   2.653   1.170   4.713 -1.3735 -0.6610  0.2450
19435TIP3    H279721   2.697   1.079   4.826 -0.3250 -0.3195  0.1191
19436TIP3   OH279722   1.119   0.615   1.940  0.1004  0.2845 -0.4624
19436TIP3    H179723   1.058   0.547   1.913  0.9267 -0.3101 -0.8434
19436TIP3    H279724   1.102   0.688   1.881 -0.6735  0.3482 -0.1583
19437TIP3   OH279725   4.965   2.379  13.193 -0.1933  0.5619  0.0978
19437TIP3    H179726   5.049   2.354  13.233 -0.0317  0.2839 -0.4146
19437TIP3    H279727   4.962   2.474  13.202  0.0245  0.5416  0.4189
19438TIP3   OH279728   1.297   1.896   5.914 -0.3007 -0.4450  0.5211
19438TIP3    H179729   1.345   1.917   5.994 -1.6524  0.3970  1.1312
19438TIP3    H279730   1.345   1.941   5.844 -0.7407  1.1935  1.2563
19439TIP3   OH279731   4.394   6.152   5.135 -0.0151  0.2396 -0.3590
19439TIP3    H179732   4.344   6.126   5.057 -1.1894  1.3289  0.0019
19439TIP3    H279733   4.360   6.096   5.205 -1.8224  1.9731  0.2013
19440TIP3   OH279734   6.314   6.709   1.504 -0.3891 -0.3280 -0.1003
19440TIP3    H179735   6.395   6.753   1.478  0.3342 -1.4243  0.2791
19440TIP3    H279736   6.275   6.680   1.421  0.4576 -1.2790 -0.1674
19441TIP3   OH279737   2.444   0.555   1.818 -0.1297 -0.1888  0.7712
19441TIP3    H179738   2.509   0.488   1.842 -0.6768 -0.2058  2.2628
19441TIP3    H279739   2.493   0.637   1.819  0.1253 -0.3385  0.7490
19442TIP3   OH279740   3.874   4.001  12.950  0.7363  0.1385  0.3709
19442TIP3    H179741   3.935   4.065  12.987 -0.0278  0.3114  1.3504
19442TIP3    H279742   3.912   3.979  12.864  1.8761  0.6543  0.7274
19443TIP3   OH279743   3.996   6.553  15.758 -0.0850 -0.4664  0.6250
19443TIP3    H179744   4.020   6.461  15.761 -0.9997 -0.7381  0.1454
19443TIP3    H279745   4.016   6.587  15.845 -0.6546 -1.3633  1.1179
19444TIP3   OH279746   1.276   6.459   2.953 -0.2170  0.4484 -0.4496
19444TIP3    H179747   1.341   6.396   2.984 -0.5291  0.6418  0.6180
19444TIP3    H279748   1.294   6.539   3.003 -1.0685  0.5984 -0.3661
19445TIP3   OH279749   0.371   3.445   3.987 -0.3075 -0.3162  0.0745
19445TIP3    H179750   0.349   3.502   3.913  1.4877  0.5890  0.1928
19445TIP3    H279751   0.449   3.486   4.026 -0.1756 -1.7638  1.3772
19446TIP3   OH279752   6.469   0.524   1.002 -0.5293 -0.3930  0.2244
19446TIP3    H179753   6.431   0.557   0.920 -2.4498  1.2462  1.7372
19446TIP3    H279754   6.479   0.601   1.057  1.5025 -1.3734  1.2603
19447TIP3   OH279755   4.293   4.134   1.034  0.1421 -0.1229 -0.1260
19447TIP3    H179756   4.212   4.175   1.003 -0.2549 -0.2446  0.7475
19447TIP3    H279757   4.317   4.073   0.964 -1.1050 -0.8778  0.0803
19448TIP3   OH279758   1.099   2.506  14.182  0.6362  0.0174 -0.2813
19448TIP3    H179759   1.083   2.546  14.268  1.2938 -1.4683  0.5627
19448TIP3    H279760   1.062   2.418  14.190 -0.1335  0.1940 -1.8446
19449TIP3   OH279761   1.426   0.624  12.187 -0.0824  0.1367  0.2146
19449TIP3    H179762   1.433   0.716  12.163  2.0360  0.0091  0.1971
19449TIP3    H279763   1.487   0.614  12.261 -0.2109 -1.2565  0.1485
19450TIP3   OH279764   1.904   2.162   3.357 -0.1747 -0.1190  0.5112
19450TIP3    H179765   1.821   2.147   3.402 -0.0391 -0.6370  0.5847
19450TIP3    H279766   1.932   2.075   3.328 -0.3018  0.2052 -0.6424
19451TIP3   OH279767   2.989   5.447   0.351  0.3574 -0.7707  0.2911
19451TIP3    H179768   3.027   5.359   0.349  0.1061 -0.8465 -2.2536
19451TIP3    H279769   2.904   5.438   0.308  0.7092  0.8904 -0.7915
19452TIP3   OH279770   6.635   0.978  12.299  0.7379  0.2395  0.5334
19452TIP3    H179771   6.641   0.966  12.394 -1.8809  1.9572  0.9701
19452TIP3    H279772   6.581   0.905  12.269  1.2419 -0.0815  0.3873
19453TIP3   OH279773   5.345   4.939   5.626  0.0714 -0.3781  0.0307
19453TIP3    H179774   5.378   4.849   5.634 -1.1976 -0.7318  1.3619
19453TIP3    H279775   5.414   4.993   5.664 -0.3553 -1.0222  1.7638
19454TIP3   OH279776   0.241   6.522  16.804 -0.4007 -0.6443  0.2401
19454TIP3    H179777   0.245   6.444  16.748 -2.7543 -1.9701  1.8207
19454TIP3    H279778   0.163   6.509  16.858  0.0111  2.1117  1.6123
19455TIP3   OH279779   1.187   3.361  14.262 -0.1013 -0.2106 -0.0274
19455TIP3    H179780   1.204   3.413  14.183  1.1842 -2.4330 -1.2645
19455TIP3    H279781   1.263   3.377  14.318  1.9676 -3.2892 -1.8294
19456TIP3   OH279782   3.693   1.112  11.649  0.3545  0.7574  0.3350
19456TIP3    H179783   3.759   1.095  11.716  0.2805 -0.2195  0.1647
19456TIP3    H279784   3.725   1.067  11.571 -0.1270  0.9260  0.0363
19457TIP3   OH279785   2.289   5.451  11.353  0.3701  0.3168 -0.0113
19457TIP3    H179786   2.245   5.369  11.378 -0.1533  0.2541 -1.1030
19457TIP3    H279787   2.374   5.423  11.318  0.3948  0.2728  0.0853
19458TIP3   OH279788   4.433   0.422   3.693  0.3529  0.5553  0.1809
19458TIP3    H179789   4.470   0.467   3.769  2.6776 -0.5184 -0.2493
19458TIP3    H279790   4.446   0.483   3.620 -0.9637  1.1776  0.4662
19459TIP3   OH279791   0.702   2.418   5.472 -0.2519 -0.7427 -0.4788
19459TIP3    H179792   0.702   2.514   5.468 -0.5793 -0.6849  0.6167
19459TIP3    H279793   0.636   2.397   5.538 -1.6609 -1.8072 -2.2057
19460TIP3   OH279794   6.283   4.122  14.650  0.4376  0.3913  0.2962
19460TIP3    H179795   6.290   4.116  14.745 -1.5221  0.5915  0.4778
19460TIP3    H279796   6.233   4.044  14.624 -2.8273  2.4600 -0.0498
19461TIP3   OH279797   1.116   5.829   0.175  0.0109 -0.3385 -0.8231
19461TIP3    H179798   1.036   5.869   0.141  0.2762 -0.0665 -1.1315
19461TIP3    H279799   1.088   5.746   0.211 -0.7446  0.6539  0.9289
19462TIP3   OH279800   3.106   1.068   1.571  0.1251  0.3795 -0.3482
19462TIP3    H179801   3.079   0.999   1.510 -0.3874  0.2754 -0.0008
19462TIP3    H279802   3.199   1.081   1.552  0.8000 -1.9899  1.1223
19463TIP3   OH279803   5.813   5.339  12.059 -0.2692  0.4401  0.7112
19463TIP3    H179804   5.900   5.315  12.091 -0.9106  0.1553  2.3230
19463TIP3    H279805   5.782   5.405  12.121 -0.5815  1.7111 -0.7629
19464TIP3   OH279806   1.923   1.634  15.824  0.2387  0.3528 -0.2279
19464TIP3    H179807   1.917   1.588  15.907 -0.5304 -0.3712 -0.6764
19464TIP3    H279808   2.012   1.616  15.793  1.3657  2.5949  1.5457
19465TIP3   OH279809   4.848   4.601   3.822 -0.2739  0.3736 -0.0059
19465TIP3    H179810   4.924   4.658   3.820  1.1029 -1.4485 -2.3012
19465TIP3    H279811   4.774   4.660   3.838  1.2346  2.6015 -1.0208
19466TIP3   OH279812   3.610   6.776   2.471 -0.1465 -0.7216  0.4084
19466TIP3    H179813   3.682   6.793   2.411  0.5711 -1.0789  1.1707
19466TIP3    H279814   3.552   6.717   2.422 -0.8463  0.9701 -0.8741
19467TIP3   OH279815   2.409   5.587   1.733  0.0439 -0.8074  0.3985
19467TIP3    H179816   2.348   5.600   1.805 -0.0054  0.3990  0.1464
19467TIP3    H279817   2.426   5.493   1.733  1.5040 -0.5997  3.1956
19468TIP3   OH279818   2.560   0.008  11.021  0.5467  0.0919 -0.1854
19468TIP3    H179819   2.603   0.069  11.080  0.6714  0.4114 -0.5983
19468TIP3    H279820   2.532  -0.064  11.076  1.9369 -0.2855  0.0322
19469TIP3   OH279821   5.862   2.134  14.881 -0.1011  0.5838  0.5443
19469TIP3    H179822   5.869   2.046  14.844 -1.9106  0.0705  1.3589
19469TIP3    H279823   5.919   2.188  14.826 -0.3302 -0.7581 -1.0469
19470TIP3   OH279824   2.734   6.359  11.130  0.2345  0.3100  0.1453
19470TIP3    H179825   2.815   6.383  11.175  0.3054  1.0990 -0.4057
19470TIP3    H279826   2.704   6.440  11.089 -0.2504 -0.2330 -0.5779
19471TIP3   OH279827   5.700   4.960   4.910 -0.2848 -0.1678  0.2058
19471TIP3    H179828   5.792   4.979   4.932 -1.3578  0.6275  4.4720
19471TIP3    H279829   5.676   5.028   4.847  1.4775  0.8281  0.5643
19472TIP3   OH279830   4.474   6.540  11.386 -0.1459 -0.8105  0.1579
19472TIP3    H179831   4.403   6.590  11.426 -1.3660 -0.6774 -2.0691
19472TIP3    H279832   4.460   6.450  11.415 -1.4707 -0.8498 -0.5444
19473TIP3   OH279833   4.107   3.267   0.016  0.1213 -0.6010 -0.1056
19473TIP3    H179834   4.038   3.228   0.071  0.1123 -1.9704 -1.0779
19473TIP3    H279835   4.098   3.223  -0.068  1.4917  0.0081 -0.5717
19474TIP3   OH279836   3.432   3.086  11.567 -0.0024  0.2775  0.3508
19474TIP3    H179837   3.365   3.019  11.575  0.5259 -0.5271 -1.5033
19474TIP3    H279838   3.406   3.155  11.628 -1.3309 -0.9711  1.2174
19475TIP3   OH279839   3.289   4.487   2.190  0.2232  0.2418 -0.3727
19475TIP3    H179840   3.255   4.561   2.240  1.2140  0.5766 -0.1702
19475TIP3    H279841   3.344   4.439   2.252 -0.8597 -0.9831 -0.3500
19476TIP3   OH279842   3.005   2.869   2.279  0.3254  0.1215  0.0067
19476TIP3    H179843   3.022   2.775   2.285 -0.2438 -0.0929 -1.3693
19476TIP3    H279844   2.949   2.888   2.354 -0.5040 -0.8836 -0.3315
19477TIP3   OH279845   4.030   0.394   6.005  0.4882 -0.0198  0.2793
19477TIP3    H179846   4.093   0.357   6.067  2.0320 -0.0879 -1.3003
19477TIP3    H279847   4.033   0.488   6.022 -0.8303 -0.2447  1.8822
19478TIP3   OH279848   4.861   1.775   0.252  0.5605 -0.3564  0.0943
19478TIP3    H179849   4.955   1.772   0.267  0.6082  0.8090  0.0956
19478TIP3    H279850   4.849   1.743   0.163  1.0230  0.0642 -0.1201
19479TIP3   OH279851   4.536   2.415   2.617 -0.5809  0.4395  0.0999
19479TIP3    H179852   4.550   2.451   2.529  1.5415 -0.5022  0.0103
19479TIP3    H279853   4.614   2.441   2.666  0.4075 -2.8319  0.3968
19480TIP3   OH279854   5.626   3.070   2.934 -0.0490  0.0055 -0.1456
19480TIP3    H179855   5.594   2.993   2.982 -1.0148 -0.6471 -1.7935
19480TIP3    H279856   5.691   3.109   2.993  0.0688 -1.7628  0.9628
19481TIP3   OH279857   2.424   2.671   0.579 -0.5077 -0.5348 -0.5043
19481TIP3    H179858   2.347   2.662   0.523 -1.1252 -0.3629  0.3046
19481TIP3    H279859   2.413   2.604   0.646  1.2555 -2.0995 -1.7414
19482TIP3   OH279860   3.004   1.582  12.602 -0.1552  0.1458 -0.5967
19482TIP3    H179861   3.060   1.656  12.623 -0.6200  0.4164 -0.2916
19482TIP3    H279862   2.921   1.622  12.573 -1.9344 -0.1999  3.6450
19483TIP3   OH279863   5.617   3.663  14.675  0.0203  0.2944 -0.1814
19483TIP3    H179864   5.568   3.654  14.757 -1.2524  1.7839 -0.7459
19483TIP3    H279865   5.689   3.600  14.683 -1.9779 -1.9798  0.6851
19484TIP3   OH279866   3.629   6.683  16.658 -0.1884 -0.0870 -0.6865
19484TIP3    H179867   3.556   6.655  16.713 -0.4853 -0.8689 -1.4786
19484TIP3    H279868   3.648   6.608  16.603  0.1548  0.6762 -1.6145
19485TIP3   OH279869   2.762   1.884  13.938 -0.3314 -0.3229  0.0038
19485TIP3    H179870   2.757   1.789  13.927 -1.0827 -0.3948  0.8566
19485TIP3    H279871   2.677   1.916  13.907  0.0022  0.0940 -0.4913
19486TIP3   OH279872   5.866   6.624  14.731  0.5327 -0.3867  0.3243
19486TIP3    H179873   5.846   6.642  14.823 -1.3315 -0.1093 -0.1127
19486TIP3    H279874   5.871   6.710  14.691 -2.1843 -0.5411 -0.5070
19487TIP3   OH279875   1.277   3.596   1.816 -0.3615  0.7693  0.0194
19487TIP3    H179876   1.263   3.568   1.725 -0.1025  1.3403 -0.2002
19487TIP3    H279877   1.288   3.514   1.865 -1.0630  0.4387 -0.3675
19488TIP3   OH279878   2.815   0.036  11.782  0.2435 -0.4851  0.3815
19488TIP3    H179879   2.780   0.126  11.782  0.4802 -0.3890  1.0160
19488TIP3    H279880   2.901   0.044  11.822  0.1030 -1.0587  0.8105
19489TIP3   OH279881   0.878   1.037  12.730 -0.0043  0.2850 -0.1805
19489TIP3    H179882   0.786   1.063  12.734 -0.5903 -1.5349 -1.4523
19489TIP3    H279883   0.885   0.965  12.793  0.1658 -0.6687 -1.2746
19490TIP3   OH279884   0.025   5.554   3.477  0.2528  0.2129 -0.1799
19490TIP3    H179885   0.021   5.485   3.411 -1.7456 -0.6424  0.7755
19490TIP3    H279886   0.027   5.507   3.561  0.8354  1.2976  0.4212
19491TIP3   OH279887   0.223   1.970   4.811  0.2348 -0.6196 -0.6489
19491TIP3    H179888   0.214   1.900   4.875  0.1442  0.6881  0.8152
19491TIP3    H279889   0.156   1.950   4.745 -1.8355 -0.3468  1.2728
19492TIP3   OH279890   0.547   3.568  11.573  0.0908  0.5940  0.0636
19492TIP3    H179891   0.489   3.529  11.639  0.6647 -1.0353 -0.3768
19492TIP3    H279892   0.569   3.655  11.609 -2.2302  1.0561  0.4400
19493TIP3   OH279893   4.558   1.972  12.935 -0.3025  0.1620 -0.0010
19493TIP3    H179894   4.508   2.012  13.006  0.1345 -1.7078  1.3831
19493TIP3    H279895   4.523   1.884  12.927  1.1356 -0.3612 -0.6500
19494TIP3   OH279896   4.572   6.304  14.644 -0.2077 -0.0299 -0.1628
19494TIP3    H179897   4.484   6.328  14.675 -0.7372 -2.9381  0.6777
19494TIP3    H279898   4.627   6.306  14.722 -0.3836 -2.0207  0.0348
19495TIP3   OH279899   1.665   2.713  14.457  0.1906  0.3147  0.4104
19495TIP3    H179900   1.636   2.654  14.527  1.8092  0.2050  1.0064
19495TIP3    H279901   1.751   2.745  14.486  0.7511  0.5018 -1.3987
19496TIP3   OH279902   5.635   3.889   1.421 -0.2463 -0.9119 -0.0065
19496TIP3    H179903   5.638   3.983   1.406 -1.4125 -1.0254 -1.0313
19496TIP3    H279904   5.720   3.868   1.461  1.5406  0.0040 -3.1094
19497TIP3   OH279905   0.489   6.256   2.482  0.3211  0.1898 -0.2705
19497TIP3    H179906   0.525   6.340   2.454 -0.0041  0.3532 -0.1985
19497TIP3    H279907   0.408   6.247   2.432 -0.2546  0.4681  0.6005
19498TIP3   OH279908   1.759   4.473  11.500 -0.5588  0.6739  0.4684
19498TIP3    H179909   1.752   4.562  11.467 -0.8951 -0.3879 -2.4688
19498TIP3    H279910   1.692   4.424  11.453  1.3973 -1.6932 -0.0168
19499TIP3   OH279911   3.722   6.216   1.886 -0.2648 -0.0801  0.2033
19499TIP3    H179912   3.731   6.311   1.888  0.6592 -0.1762  1.0372
19499TIP3    H279913   3.699   6.192   1.975  0.3536 -0.7180  0.1945
19500TIP3   OH279914   2.167   4.551  17.198  0.5726  0.5314 -0.0019
19500TIP3    H179915   2.162   4.620  17.264  0.9069  1.1512 -0.6191
19500TIP3    H279916   2.084   4.503  17.207  1.9233 -1.3493  2.9701
19501TIP3   OH279917   5.539   2.101   4.920  0.6442  0.2661  0.0642
19501TIP3    H179918   5.545   2.197   4.927 -0.2312  0.3952 -0.7696
19501TIP3    H279919   5.487   2.087   4.841 -0.8112 -0.8603  1.1893
19502TIP3   OH279920   0.040   2.614  15.678 -0.1222  0.5064  0.3011
19502TIP3    H179921   0.122   2.588  15.637  0.3085  1.5337  0.5061
19502TIP3    H279922   0.044   2.578  15.767 -1.0545 -1.7209 -0.4984
19503TIP3   OH279923   0.379   1.779  15.340 -0.0326 -0.3609  0.2997
19503TIP3    H179924   0.410   1.843  15.276  0.1416 -1.8291 -1.1347
19503TIP3    H279925   0.286   1.801  15.352 -0.3121 -0.6534 -1.2092
19504TIP3   OH279926   2.788   5.946   2.719  0.1666 -0.4137  0.3390
19504TIP3    H179927   2.753   5.863   2.752 -0.3670 -0.0697  0.6530
19504TIP3    H279928   2.811   5.928   2.628  0.4710 -1.0277  0.5334
19505TIP3   OH279929   2.783   3.392  13.111  0.7161 -0.1540  0.5409
19505TIP3    H179930   2.806   3.439  13.031 -0.6533 -1.9654 -0.9321
19505TIP3    H279931   2.798   3.300  13.091 -0.5479 -0.7179  2.0418
19506TIP3   OH279932   0.440   0.906   3.506 -0.4849  0.0140  0.0854
19506TIP3    H179933   0.530   0.874   3.506 -0.1878  0.8374 -0.7203
19506TIP3    H279934   0.429   0.947   3.592 -0.4085 -0.9416  0.5568
19507TIP3   OH279935   5.538   2.137  16.883 -0.8577  0.1700 -0.5145
19507TIP3    H179936   5.538   2.047  16.850  1.4346  0.1686 -0.5734
19507TIP3    H279937   5.483   2.184  16.820 -1.5670 -1.0579 -0.8383
19508TIP3   OH279938   0.614   5.346  13.222 -0.6968  0.3202 -0.4507
19508TIP3    H179939   0.619   5.253  13.202 -1.1897  0.1055  0.3739
19508TIP3    H279940   0.521   5.367  13.212 -0.7175  0.5291  0.1813
19509TIP3   OH279941   5.940   0.728   0.418  0.5799 -0.7031  0.1373
19509TIP3    H179942   5.858   0.726   0.369  0.0949  1.1365  0.8340
19509TIP3    H279943   5.913   0.717   0.509  1.0683  0.3407  0.4079
19510TIP3   OH279944   0.600   0.941  16.270  0.2462  0.1358  0.4414
19510TIP3    H179945   0.510   0.927  16.302  0.6244  0.8418  1.8665
19510TIP3    H279946   0.655   0.930  16.348  1.3869 -0.0889 -0.3814
19511TIP3   OH279947   5.023   0.134  16.352 -0.3163 -0.0961 -0.4958
19511TIP3    H179948   5.029   0.230  16.356 -1.1039  0.0657 -2.4217
19511TIP3    H279949   4.934   0.115  16.381 -0.3033 -0.1963 -0.5233
19512TIP3   OH279950   4.150   1.409   1.632 -0.0784  0.3719  0.4658
19512TIP3    H179951   4.181   1.470   1.566  0.8021  1.4319  1.8232
19512TIP3    H279952   4.230   1.371   1.669 -0.6219 -2.5014 -1.1519
19513TIP3   OH279953   1.053   3.220   5.206  0.6307  0.1427 -0.7947
19513TIP3    H179954   0.997   3.156   5.249 -0.3791  1.7218  0.2689
19513TIP3    H279955   1.128   3.169   5.176 -0.6120 -1.7157 -0.8511
19514TIP3   OH279956   5.120   0.160  15.436  0.3028  0.2318  0.9003
19514TIP3    H179957   5.051   0.113  15.484  0.0044  0.1576  0.3953
19514TIP3    H279958   5.089   0.251  15.433 -1.7908 -0.5013 -2.9066
19515TIP3   OH279959   5.593   0.535   4.331  0.0873  0.2008 -0.0248
19515TIP3    H179960   5.591   0.630   4.319 -1.3951  0.6111  3.0371
19515TIP3    H279961   5.667   0.506   4.278 -0.4269  2.8456 -2.2987
19516TIP3   OH279962   2.195   0.739  16.054 -0.3634  0.1908  0.1247
19516TIP3    H179963   2.125   0.759  16.116 -0.0230  2.0215 -0.0331
19516TIP3    H279964   2.254   0.681  16.102 -1.1983 -0.1213  0.7802
19517TIP3   OH279965   2.876   5.461  14.804  0.8558 -0.2834 -0.3930
19517TIP3    H179966   2.851   5.525  14.871  0.5125  1.3118 -2.0342
19517TIP3    H279967   2.793   5.417  14.782  0.9536 -0.7455  0.1258
19518TIP3   OH279968   6.393   3.711   3.617  0.1069 -0.0642  0.1203
19518TIP3    H179969   6.323   3.774   3.628 -1.8096 -1.8242 -1.5715
19518TIP3    H279970   6.373   3.641   3.679  1.3419  0.2188  0.8614
19519TIP3   OH279971   6.510   5.921  11.587  0.2234 -0.3765  0.1507
19519TIP3    H179972   6.500   5.936  11.493  2.2560 -2.1180 -0.3871
19519TIP3    H279973   6.499   6.007  11.627 -0.0520  0.4778 -1.7323
19520TIP3   OH279974   3.091   4.282  13.598 -0.2364 -0.2279  0.2374
19520TIP3    H179975   3.162   4.339  13.627 -0.7882 -0.2881  1.7221
19520TIP3    H279976   3.136   4.205  13.563  0.4360 -1.2695  3.2545
19521TIP3   OH279977   4.554   5.477  14.386  0.0749 -0.6119 -0.0397
19521TIP3    H179978   4.594   5.488  14.472  1.1927 -0.1264 -0.6006
19521TIP3    H279979   4.623   5.503  14.325 -0.4794 -1.6139 -1.1006
19522TIP3   OH279980   4.556   0.765  15.895 -0.3385 -0.0548  0.1066
19522TIP3    H179981   4.624   0.786  15.832  0.3954  2.2183  1.5953
19522TIP3    H279982   4.486   0.727  15.843  1.7612 -1.8093 -1.5521
19523TIP3   OH279983   5.804   4.436   4.230  0.3398 -0.0682  0.0511
19523TIP3    H179984   5.876   4.381   4.198  0.8950  1.0764 -0.6722
19523TIP3    H279985   5.743   4.373   4.270  0.8737 -1.2408 -0.9356
19524TIP3   OH279986   2.695   5.872   6.644 -0.7306 -0.4191  0.3649
19524TIP3    H179987   2.710   5.966   6.657  0.8795 -0.7804  1.3458
19524TIP3    H279988   2.780   5.832   6.663 -1.8107 -2.2091  1.5769
19525TIP3   OH279989   2.646   3.119   4.046  0.6600  0.6543  0.1345
19525TIP3    H179990   2.676   3.172   4.120 -0.8682 -0.2968  1.4701
19525TIP3    H279991   2.556   3.096   4.068  0.7614 -1.1203 -1.2020
19526TIP3   OH279992   2.038   5.550   1.552 -0.4131 -0.0045  0.2133
19526TIP3    H179993   1.959   5.498   1.537 -0.2014  0.1083 -1.4350
19526TIP3    H279994   2.109   5.495   1.520 -0.0719  0.8258 -0.4791
19527TIP3   OH279995   1.452   5.242  14.705 -0.3611 -0.1426  0.0699
19527TIP3    H179996   1.537   5.227  14.663 -1.0481 -0.6773 -1.1411
19527TIP3    H279997   1.392   5.261  14.633 -1.6928 -1.6890  0.7456
19528TIP3   OH279998   6.442   6.471   0.755 -0.3076 -0.8119 -0.5779
19528TIP3    H179999   6.361   6.424   0.737 -0.1304 -0.3361 -2.7746
19528TIP3    H280000   6.460   6.520   0.674  2.9311 -2.0422 -0.7020
19529TIP3   OH280001   3.540   4.493   6.478 -0.0976 -0.0494 -0.2990
19529TIP3    H180002   3.625   4.451   6.464 -0.0239 -0.0546  0.1424
19529TIP3    H280003   3.486   4.424   6.517 -0.7378 -0.4607 -1.8910
19530TIP3   OH280004   6.543   1.200  11.955 -0.1276 -0.1309 -0.2469
19530TIP3    H180005   6.630   1.188  11.917 -0.1434 -0.4445 -0.1779
19530TIP3    H280006   6.485   1.212  11.879 -0.3758 -2.0849 -0.3964
19531TIP3   OH280007   4.443   1.049  10.606 -0.7307 -0.6036 -0.2995
19531TIP3    H180008   4.533   1.049  10.639 -1.0149 -0.5530  0.4959
19531TIP3    H280009   4.392   1.094  10.674 -0.8292  2.4588 -2.2731
19532TIP3   OH280010   6.541   4.406   4.804 -0.0482 -0.4100  0.2973
19532TIP3    H180011   6.578   4.410   4.715 -2.8575  1.1256 -0.8754
19532TIP3    H280012   6.616   4.390   4.860  2.1087  0.5948 -2.1745
19533TIP3   OH280013   2.824   4.992  11.625 -0.3939  0.3304  0.0883
19533TIP3    H180014   2.893   4.944  11.579 -1.1881 -1.2502  0.4984
19533TIP3    H280015   2.829   5.081  11.589  0.3220 -0.3531 -1.5872
19534TIP3   OH280016   2.940   3.912   3.428 -0.1215  0.6945  0.8193
19534TIP3    H180017   3.017   3.869   3.391 -0.4999 -1.5952  2.6327
19534TIP3    H280018   2.976   3.976   3.490  0.3317 -0.4093  1.7071
19535TIP3   OH280019   0.437   4.122  15.424 -0.0182  0.8862 -0.8487
19535TIP3    H180020   0.518   4.109  15.375 -0.2105  0.1491 -0.9761
19535TIP3    H280021   0.454   4.200  15.478  0.8689  0.5800 -0.6726
19536TIP3   OH280022   0.948   4.950  13.291  0.4565  1.0021 -0.6558
19536TIP3    H180023   0.965   4.950  13.385  0.7731 -0.0292 -0.7001
19536TIP3    H280024   0.853   4.959  13.284  0.1813 -1.1963 -0.1448
19537TIP3   OH280025   3.075   6.576   0.215  0.3086  0.3795  0.3654
19537TIP3    H180026   3.057   6.661   0.174 -0.0646  0.0361 -0.2084
19537TIP3    H280027   3.129   6.530   0.151 -1.1253 -0.5452 -0.2077
19538TIP3   OH280028   1.385   2.534  16.376  0.4450  0.1167  0.0277
19538TIP3    H180029   1.364   2.444  16.400  1.2768  0.1078  0.7625
19538TIP3    H280030   1.308   2.585  16.403  0.1131 -0.3266 -0.0799
19539TIP3   OH280031   4.595   1.217   3.954  0.2937  0.4980  0.2209
19539TIP3    H180032   4.594   1.285   3.886  0.4578  0.1534 -0.1265
19539TIP3    H280033   4.613   1.136   3.906 -1.2724  0.0042  0.4391
19540TIP3   OH280034   3.799   5.546   6.555  0.0733 -0.1892 -0.7367
19540TIP3    H180035   3.864   5.584   6.614  0.3929  1.0151 -1.8252
19540TIP3    H280036   3.849   5.521   6.477 -0.5637 -0.4136 -1.0792
19541TIP3   OH280037   2.101   0.471   2.816 -0.7182 -0.1191 -0.3814
19541TIP3    H180038   2.179   0.443   2.769 -1.1921 -1.1598 -0.5646
19541TIP3    H280039   2.052   0.525   2.753 -0.6905 -0.3902 -0.6360
19542TIP3   OH280040   1.217   3.773  15.959  0.7994  0.4341  0.1721
19542TIP3    H180041   1.311   3.764  15.973  0.6531  0.6231  1.3438
19542TIP3    H280042   1.179   3.766  16.047 -0.2856  0.2290 -0.3059
19543TIP3   OH280043   3.835   0.134  13.676  0.0322 -0.8699 -0.2465
19543TIP3    H180044   3.891   0.062  13.647  2.7984  0.8503  0.5705
19543TIP3    H280045   3.811   0.180  13.595  0.4512 -1.1614 -0.5387
19544TIP3   OH280046   3.368   1.400  15.433  0.0722 -0.3048  0.0903
19544TIP3    H180047   3.462   1.414  15.444  0.0923  0.1332 -0.6270
19544TIP3    H280048   3.346   1.333  15.497  0.5777  0.7705  1.4282
19545TIP3   OH280049   0.472   0.907   0.257  0.8552  0.1357 -0.3853
19545TIP3    H180050   0.381   0.893   0.229 -0.2212 -0.1377  3.0254
19545TIP3    H280051   0.490   0.998   0.232 -1.1739  0.9351  0.9220
19546TIP3   OH280052   4.193   1.826  14.604  0.0642  0.3889 -0.8387
19546TIP3    H180053   4.167   1.918  14.603 -1.2244  0.1002  1.5750
19546TIP3    H280054   4.264   1.823  14.668 -1.3291 -0.6015  0.7093
19547TIP3   OH280055   1.142   5.620  12.011  0.4257 -0.6503 -0.4464
19547TIP3    H180056   1.124   5.528  11.997 -3.5807 -0.0867  0.3810
19547TIP3    H280057   1.134   5.660  11.924 -0.3092 -0.7022 -0.3995
19548TIP3   OH280058   5.472   0.165  11.878 -0.5028 -0.3144  0.7312
19548TIP3    H180059   5.507   0.193  11.962 -0.9528 -1.2107  1.2285
19548TIP3    H280060   5.495   0.072  11.872  0.5830  0.0235 -0.6858
19549TIP3   OH280061   2.639   1.778  13.473 -0.1496 -0.2263  0.0332
19549TIP3    H180062   2.716   1.731  13.443  0.6315  1.4629 -0.6741
19549TIP3    H280063   2.570   1.753  13.411  1.1728  2.3665 -2.6138
19550TIP3   OH280064   2.768   5.676   3.267  0.3667  0.6382 -0.5946
19550TIP3    H180065   2.736   5.599   3.219  0.6648  0.4985 -0.5736
19550TIP3    H280066   2.841   5.642   3.319 -0.1503  0.7294  0.1897
19551TIP3   OH280067   1.270   4.904  11.790  0.2427 -0.2754  0.7582
19551TIP3    H180068   1.204   4.883  11.724  0.0643 -0.5540  1.0219
19551TIP3    H280069   1.352   4.907  11.742  0.2279 -1.2842  0.6564
19552TIP3   OH280070   5.577   3.232   1.136 -0.5049 -0.2169 -0.4010
19552TIP3    H180071   5.559   3.267   1.049  0.6851 -2.1522 -1.4568
19552TIP3    H280072   5.621   3.304   1.182 -0.7686  0.6670 -1.5294
19553TIP3   OH280073   5.063   0.565  15.323  0.4296  0.4618  0.1279
19553TIP3    H180074   5.042   0.575  15.415  1.7931 -1.2699  0.6475
19553TIP3    H280075   5.122   0.637  15.303  1.3953 -0.0809  1.0129
19554TIP3   OH280076   2.059   4.632  10.790  0.3011  0.1181 -0.4331
19554TIP3    H180077   2.150   4.604  10.778  1.0554  1.6626  1.3151
19554TIP3    H280078   2.010   4.550  10.799  1.7666 -0.7200  0.1720
19555TIP3   OH280079   2.406   0.773  14.232 -0.0335  0.4160  0.0575
19555TIP3    H180080   2.410   0.828  14.154  2.6844 -0.4669 -0.4770
19555TIP3    H280081   2.313   0.754  14.243 -0.5365  1.1692 -2.5180
19556TIP3   OH280082   0.669   5.843   2.827 -0.1344  0.4130  0.0732
19556TIP3    H180083   0.676   5.794   2.909  1.3637  0.6662  0.0963
19556TIP3    H280084   0.575   5.846   2.810 -0.3212 -1.6641  0.5611
19557TIP3   OH280085   3.755   1.578   5.997 -0.3233 -0.1077  0.3597
19557TIP3    H180086   3.704   1.564   6.077 -1.6288  0.0154 -0.4444
19557TIP3    H280087   3.771   1.672   5.994 -2.0790  0.1741 -0.6027
19558TIP3   OH280088   5.894   2.542  11.798 -0.2305 -0.6243 -0.1311
19558TIP3    H180089   5.940   2.619  11.766  1.6419 -1.3394  0.7555
19558TIP3    H280090   5.852   2.570  11.880  1.7107 -0.9126  0.9920
19559TIP3   OH280091   4.466   6.644   3.381 -0.1850  0.0678  0.0953
19559TIP3    H180092   4.521   6.626   3.305 -1.1829  0.7392 -0.7977
19559TIP3    H280093   4.389   6.688   3.345 -1.3842 -0.9964  1.2905
19560TIP3   OH280094   1.523   2.126  11.359  0.3564 -0.3059  0.7496
19560TIP3    H180095   1.551   2.076  11.435  0.2133 -0.5689  0.6313
19560TIP3    H280096   1.427   2.118  11.359  0.4126 -1.1808 -0.0386
19561TIP3   OH280097   0.425   0.665  12.433 -0.3455  0.1735 -0.4263
19561TIP3    H180098   0.469   0.743  12.467  0.3244 -1.1700  1.9538
19561TIP3    H280099   0.363   0.641  12.502  0.0836 -1.8815 -0.7258
19562TIP3   OH280100   0.251   0.744  15.186  0.3075  0.1396  0.1727
19562TIP3    H180101   0.303   0.664  15.177 -1.7403 -0.9182 -2.5960
19562TIP3    H280102   0.269   0.794  15.107  0.9197  2.0932  1.5011
19563TIP3   OH280103   5.718   6.051  11.239  0.3563 -0.1372  0.1380
19563TIP3    H180104   5.741   6.098  11.320  1.1522 -1.9703  0.9967
19563TIP3    H280105   5.794   6.064  11.182  0.5285 -0.2896  0.3317
19564TIP3   OH280106   6.719   1.180   3.657  0.5960 -0.0591  0.7616
19564TIP3    H180107   6.687   1.144   3.740 -0.1358  1.4547  1.1541
19564TIP3    H280108   6.651   1.242   3.630  1.2490  0.1152 -0.5293
19565TIP3   OH280109   4.496   3.037  12.027 -0.1554 -0.2136  0.3415
19565TIP3    H180110   4.517   2.958  12.077 -1.2387 -0.0738  1.0239
19565TIP3    H280111   4.467   3.004  11.942 -0.4504 -0.5462  0.5694
19566TIP3   OH280112   6.483   3.671  12.771  0.2547 -0.0661 -0.7536
19566TIP3    H180113   6.524   3.744  12.818  1.5470 -1.3648  0.1768
19566TIP3    H280114   6.506   3.687  12.679  0.2243  0.8810 -0.6044
19567TIP3   OH280115   4.836   5.591  11.360 -0.1513 -0.1135  0.2764
19567TIP3    H180116   4.913   5.543  11.391 -0.1612  0.9456  1.9943
19567TIP3    H280117   4.860   5.621  11.272  2.2376  2.0041  1.5910
19568TIP3   OH280118   2.477   3.131  15.426 -0.7391  0.3508  0.3466
19568TIP3    H180119   2.534   3.061  15.459 -0.6251  0.2788  0.0011
19568TIP3    H280120   2.406   3.136  15.489 -1.4536 -0.9829 -0.3365
19569TIP3   OH280121   1.917   0.239  11.659 -0.5252 -0.0824 -0.1630
19569TIP3    H180122   1.865   0.317  11.640 -2.0431 -0.7827  1.0525
19569TIP3    H280123   1.966   0.262  11.738  0.2415  0.2020 -0.7154
19570TIP3   OH280124   0.644   0.875  11.513 -0.1652  0.1716  0.0064
19570TIP3    H180125   0.727   0.828  11.521 -1.0378 -1.4010 -0.0160
19570TIP3    H280126   0.661   0.961  11.551  1.1396 -0.5657  1.1212
19571TIP3   OH280127   0.030   4.865  14.623 -0.4949 -1.4904 -0.2916
19571TIP3    H180128  -0.031   4.926  14.581 -0.7826 -1.0182  0.7722
19571TIP3    H280129   0.007   4.870  14.716 -0.2816 -2.9716 -0.1535
19572TIP3   OH280130   5.575   4.448  15.906 -0.3232 -0.0152  0.0275
19572TIP3    H180131   5.545   4.496  15.982  0.3002 -0.0507  0.2965
19572TIP3    H280132   5.645   4.502  15.868 -0.4907 -0.0930 -0.3979
19573TIP3   OH280133   0.847   6.197  14.428  0.1937 -1.0246 -0.5780
19573TIP3    H180134   0.882   6.180  14.515 -2.2280 -1.2784  0.3846
19573TIP3    H280135   0.762   6.153  14.427 -1.2838  1.6882 -1.9177
19574TIP3   OH280136   5.210   3.608  17.142  0.3535 -0.3491 -0.1394
19574TIP3    H180137   5.284   3.548  17.149  0.3435 -0.2193  1.1439
19574TIP3    H280138   5.250   3.695  17.131  0.4195 -0.1810  1.3082
19575TIP3   OH280139   5.990   4.660  14.166  0.2609  0.5785  0.0450
19575TIP3    H180140   5.949   4.725  14.224  0.5305  0.1816  0.6963
19575TIP3    H280141   6.070   4.703  14.134  0.3611  0.6269  0.3560
19576TIP3   OH280142   1.411   5.550   4.434  0.0095  0.4089  0.0388
19576TIP3    H180143   1.412   5.467   4.387 -0.9840  1.2151 -1.4275
19576TIP3    H280144   1.492   5.549   4.485  0.2535 -1.2333 -0.3477
19577TIP3   OH280145   6.422   3.534   4.325 -0.7618  0.1469 -0.1569
19577TIP3    H180146   6.341   3.522   4.276 -1.0157 -0.1815  0.3387
19577TIP3    H280147   6.417   3.624   4.358 -0.4076  0.5002 -1.0569
19578TIP3   OH280148   4.564   4.363  13.141 -0.3592 -0.5252 -0.8787
19578TIP3    H180149   4.641   4.401  13.099  0.8605  1.5723  2.9873
19578TIP3    H280150   4.587   4.271  13.157  1.3010  0.0256  0.0084
19579TIP3   OH280151   2.220   5.243  11.631 -0.3508 -0.4258 -0.5696
19579TIP3    H180152   2.300   5.271  11.676 -0.5004 -3.3672  1.6945
19579TIP3    H280153   2.149   5.286  11.679 -0.2956 -0.2563 -0.6389
19580TIP3   OH280154   4.396   5.937   0.222  0.3589 -0.4024  0.5411
19580TIP3    H180155   4.424   5.868   0.282  1.4945  0.4417  1.0095
19580TIP3    H280156   4.400   6.017   0.275 -3.0266 -0.2483  0.6380
19581TIP3   OH280157   5.319   1.712  16.017 -0.8386 -0.8707  0.2346
19581TIP3    H180158   5.332   1.638  15.957 -0.7272  0.6897 -1.7055
19581TIP3    H280159   5.321   1.789  15.961 -2.2028  0.5415  2.0696
19582TIP3   OH280160   0.663   2.836  15.067 -0.2727 -0.2441  0.3374
19582TIP3    H180161   0.610   2.758  15.049  0.6976 -0.9430  0.4517
19582TIP3    H280162   0.606   2.893  15.118 -0.5852 -1.4267  1.3338
19583TIP3   OH280163   5.417   0.598  14.518  0.1908  0.6718 -0.7959
19583TIP3    H180164   5.401   0.504  14.506  0.5803  0.4368  0.4955
19583TIP3    H280165   5.406   0.635  14.430 -1.9052 -0.2927 -0.9690
19584TIP3   OH280166   6.607   5.676   0.392 -0.5748  0.1616 -0.4360
19584TIP3    H180167   6.547   5.700   0.321 -0.9746  1.8550  0.4479
19584TIP3    H280168   6.602   5.749   0.453 -0.7858 -1.6068  1.7072
19585TIP3   OH280169   1.515   4.824   0.318 -0.0343 -0.0477  0.0139
19585TIP3    H180170   1.484   4.764   0.250 -2.2738  1.0487  0.0290
19585TIP3    H280171   1.593   4.865   0.280 -0.4625 -0.4607 -1.3182
19586TIP3   OH280172   5.227   1.153  12.295 -0.0154 -0.0850 -0.3448
19586TIP3    H180173   5.194   1.176  12.208 -1.7485 -0.7210  0.1118
19586TIP3    H280174   5.158   1.098  12.333  0.6459  0.3109  1.4945
19587TIP3   OH280175   3.619   2.406  11.237  0.0533  0.2442 -0.3602
19587TIP3    H180176   3.678   2.482  11.236  0.9124 -0.4192 -1.4735
19587TIP3    H280177   3.537   2.440  11.272  0.2875  1.7966 -1.2701
19588TIP3   OH280178   1.248   5.249  12.320  0.0768  0.3049  0.0014
19588TIP3    H180179   1.307   5.286  12.385  1.2562 -0.5029 -0.5790
19588TIP3    H280180   1.297   5.176  12.282 -0.2687  1.2543 -2.3384
19589TIP3   OH280181   3.857   0.251  15.098  0.6467 -0.4940  0.4878
19589TIP3    H180182   3.878   0.198  15.175 -0.1397 -3.7065 -1.4024
19589TIP3    H280183   3.940   0.258  15.051  0.2536 -2.3256 -0.5463
19590TIP3   OH280184   1.216   1.447   3.570  0.1864 -0.1731 -0.1555
19590TIP3    H180185   1.219   1.505   3.647  1.3137 -0.3932 -0.0186
19590TIP3    H280186   1.216   1.506   3.495  0.3423  0.0274  0.0008
19591TIP3   OH280187   0.277   1.300   0.921  0.2208  0.0031 -0.3565
19591TIP3    H180188   0.317   1.216   0.941  0.1280  0.3133  1.2151
19591TIP3    H280189   0.334   1.339   0.855  0.2720 -1.2738 -1.0829
19592TIP3   OH280190   3.839   4.587   3.220  0.4245  0.1037  0.1548
19592TIP3    H180191   3.769   4.645   3.251  0.5635 -0.0253  0.7252
19592TIP3    H280192   3.819   4.502   3.258  1.3225  0.2499  0.9848
19593TIP3   OH280193   5.941   6.249   5.814 -0.2733  0.1344  0.0735
19593TIP3    H180194   5.971   6.210   5.896 -1.1939 -0.5385  0.1053
19593TIP3    H280195   5.982   6.335   5.811  1.3512 -0.6110  0.2850
19594TIP3   OH280196   1.478   0.730  14.052 -0.0194  0.4416  0.0396
19594TIP3    H180197   1.410   0.749  14.116 -0.5725  1.7667 -0.9204
19594TIP3    H280198   1.437   0.670  13.990  0.9978 -2.1035  1.7572
19595TIP3   OH280199   4.326   6.172  12.597 -0.2772  0.2599  0.0352
19595TIP3    H180200   4.254   6.190  12.537 -0.8359 -0.3599  0.5080
19595TIP3    H280201   4.334   6.251  12.651  0.9543  1.2515 -1.5788
19596TIP3   OH280202   4.492   0.170  14.151 -0.2329  0.4427 -0.2142
19596TIP3    H180203   4.463   0.261  14.149 -1.1303  0.1998  0.9553
19596TIP3    H280204   4.529   0.159  14.239  3.1321  0.6438 -1.5572
19597TIP3   OH280205   6.545   4.469   5.484 -0.7047 -0.4442  0.1555
19597TIP3    H180206   6.534   4.376   5.466 -0.3146 -0.0960 -1.9173
19597TIP3    H280207   6.589   4.471   5.569 -0.8412 -2.1424  0.2899
19598TIP3   OH280208   0.977   1.116   5.422 -0.3530  0.4123  0.2138
19598TIP3    H180209   1.013   1.028   5.436 -1.2320  0.0819  0.3970
19598TIP3    H280210   1.054   1.173   5.418  0.2748 -0.4984 -0.8874
19599TIP3   OH280211   1.695   5.457  15.276  0.0235 -0.1557 -0.1233
19599TIP3    H180212   1.694   5.420  15.187  0.6662  0.1871 -0.2727
19599TIP3    H280213   1.603   5.477  15.294 -0.3325 -1.8748 -0.0154
19600TIP3   OH280214   5.056   1.058  15.343 -0.1445 -0.3811 -0.0825
19600TIP3    H180215   5.071   0.966  15.320 -0.0462 -0.0830 -1.2562
19600TIP3    H280216   5.139   1.088  15.380  0.3992 -0.2692 -1.3841
19601TIP3   OH280217   0.601   2.684   5.493  0.5428  0.1135  0.0329
19601TIP3    H180218   0.580   2.739   5.568  2.1390 -1.0875  1.4107
19601TIP3    H280219   0.657   2.738   5.438 -0.5261  0.9582 -0.2337
19602TIP3   OH280220   3.503   4.308   4.015  0.3463 -0.1956 -0.2728
19602TIP3    H180221   3.484   4.215   4.001  1.2885 -0.1265 -2.1245
19602TIP3    H280222   3.433   4.354   3.969 -0.6535  0.0292  1.4371
19603TIP3   OH280223   3.312   4.061  11.468 -0.2774 -0.2016  0.4964
19603TIP3    H180224   3.365   4.012  11.406  0.0833  1.4783 -0.5622
19603TIP3    H280225   3.275   4.133  11.417 -0.4785  0.8585  2.0756
19604TIP3   OH280226   5.986   3.622  15.597  0.8265 -0.0883 -0.5217
19604TIP3    H180227   6.060   3.666  15.555  3.4651 -2.7532  1.0908
19604TIP3    H280228   5.965   3.548  15.540  0.2002 -0.0093 -0.3955
19605TIP3   OH280229   6.013   4.185   0.996 -0.1701  0.7814  0.4190
19605TIP3    H180230   5.982   4.276   0.988 -0.7565  0.4760 -0.8207
19605TIP3    H280231   5.963   4.137   0.931  1.2196 -0.1639  0.0242
19606TIP3   OH280232   5.901   0.902   1.702  0.0805 -0.0803  0.4419
19606TIP3    H180233   5.921   0.988   1.739 -1.3245  0.7914 -0.7350
19606TIP3    H280234   5.807   0.906   1.684  0.0987 -1.7025 -0.0399
19607TIP3   OH280235   3.512   6.535   2.380 -0.0951  0.5796 -0.3102
19607TIP3    H180236   3.485   6.448   2.349 -0.6168  0.7975 -0.4834
19607TIP3    H280237   3.481   6.540   2.470 -1.3980  1.1504 -0.7788
19608TIP3   OH280238   2.082   5.004   1.074 -0.2211 -0.6176 -0.0131
19608TIP3    H180239   2.007   5.047   1.033 -1.5444 -1.7841  1.1259
19608TIP3    H280240   2.102   5.058   1.150 -0.9758 -1.1985  0.6114
19609TIP3   OH280241   0.479   6.172  14.754 -0.0472 -0.0842  0.9046
19609TIP3    H180242   0.556   6.117  14.747 -0.1524 -0.1835  0.4646
19609TIP3    H280243   0.484   6.212  14.841 -0.8970 -2.1372  1.9318
19610TIP3   OH280244   0.840   4.739   1.878 -0.1481  0.5301 -0.7038
19610TIP3    H180245   0.849   4.663   1.820  2.2827  1.1826 -1.2218
19610TIP3    H280246   0.784   4.708   1.949 -0.1391 -1.3880 -1.4945
19611TIP3   OH280247   1.548   5.195  13.269 -0.3374  0.9001 -0.1118
19611TIP3    H180248   1.497   5.197  13.350 -0.5155  1.8593 -0.2537
19611TIP3    H280249   1.631   5.238  13.292 -0.0984  0.5163 -0.2459
19612TIP3   OH280250   5.170   1.483  14.007  0.0500 -0.8413 -0.1408
19612TIP3    H180251   5.259   1.449  14.004 -0.0966 -1.2283 -0.0040
19612TIP3    H280252   5.181   1.578  13.996  0.6274 -0.6450  1.9146
19613TIP3   OH280253   5.242   0.169  11.066  0.0913 -0.8700 -0.1395
19613TIP3    H180254   5.293   0.196  10.989 -0.9278  1.2002 -0.1096
19613TIP3    H280255   5.259   0.237  11.131 -0.0158 -1.9726  1.0525
19614TIP3   OH280256   3.791   0.702  13.912 -0.0590 -0.6540 -0.5824
19614TIP3    H180257   3.785   0.693  14.007 -1.9068 -0.3418 -0.6481
19614TIP3    H280258   3.720   0.646  13.878  0.4290 -0.5726 -1.7613
19615TIP3   OH280259   5.635   0.143   0.771 -0.2426 -0.2133  0.4841
19615TIP3    H180260   5.583   0.131   0.851 -0.2505 -0.0716  0.5013
19615TIP3    H280261   5.675   0.230   0.782 -4.8913  2.4824 -2.2564
19616TIP3   OH280262   1.441   3.266   2.745 -0.1295  0.1151  0.6083
19616TIP3    H180263   1.535   3.282   2.757 -0.3082  1.2232  0.5732
19616TIP3    H280264   1.427   3.274   2.651 -0.3134  0.2576  0.6470
19617TIP3   OH280265   2.093   0.335   3.910  0.2876 -0.4874 -0.5416
19617TIP3    H180266   2.157   0.293   3.968  1.0331  0.2816 -0.7961
19617TIP3    H280267   2.083   0.423   3.946 -1.4195 -0.9184  0.1040
19618TIP3   OH280268   4.504   6.742  15.011  0.1743 -0.3267  0.6019
19618TIP3    H180269   4.533   6.693  15.089  0.6752 -2.1686 -0.6970
19618TIP3    H280270   4.431   6.691  14.977 -0.3163  0.7058  0.0923
19619TIP3   OH280271   0.943   4.323   3.592  0.5108 -0.2043 -0.7596
19619TIP3    H180272   1.017   4.380   3.615  0.3700  0.0973 -1.0387
19619TIP3    H280273   0.936   4.331   3.497  0.0980 -0.2045 -0.7275
19620TIP3   OH280274   1.558   4.181   2.404 -0.3066  0.1422 -0.0991
19620TIP3    H180275   1.490   4.207   2.341 -1.2993 -0.5035  0.6902
19620TIP3    H280276   1.605   4.111   2.361 -0.5373  0.1783 -0.4125
19621TIP3   OH280277   5.276   2.281   3.001  0.0046  0.3641  0.1359
19621TIP3    H180278   5.240   2.247   2.919 -2.5049 -0.0210  1.3566
19621TIP3    H280279   5.351   2.225   3.019 -0.3438 -0.5199 -1.1007
19622TIP3   OH280280   4.309   4.771   0.672 -0.3984 -0.2474 -0.4456
19622TIP3    H180281   4.315   4.790   0.765 -1.4437 -0.7831 -0.2580
19622TIP3    H280282   4.354   4.844   0.629 -0.2848  0.2157  0.4547
19623TIP3   OH280283   1.044   0.066   3.096 -0.2254 -0.3077 -0.8340
19623TIP3    H180284   1.120   0.008   3.109 -0.0873  0.2826  1.2391
19623TIP3    H280285   1.019   0.052   3.005  0.6862 -2.5689 -0.7889
19624TIP3   OH280286   5.314   3.745  13.367 -0.1858  0.4344 -0.9538
19624TIP3    H180287   5.257   3.798  13.423 -0.8018  1.4122 -2.4768
19624TIP3    H280288   5.383   3.714  13.426 -2.5555 -1.2264  1.0538
19625TIP3   OH280289   2.514   1.532   5.653 -0.9177  0.0152  0.4084
19625TIP3    H180290   2.534   1.519   5.560 -1.7973 -1.0491  0.3584
19625TIP3    H280291   2.597   1.518   5.698 -0.7131 -0.4921 -0.1223
19626TIP3   OH280292   4.633   2.748   2.746 -0.1091  0.2212 -0.7241
19626TIP3    H180293   4.603   2.769   2.834  0.2279  1.3280 -0.8721
19626TIP3    H280294   4.681   2.665   2.757  0.0861  0.4428  0.1685
19627TIP3   OH280295   2.927   0.908   2.804  0.2208  0.5956  0.4137
19627TIP3    H180296   2.938   0.909   2.709 -0.0655 -0.1044  0.3674
19627TIP3    H280297   2.944   0.998   2.831  0.4459  0.7694 -0.2836
19628TIP3   OH280298   4.165   2.886  12.106 -0.1932  0.1682 -0.3259
19628TIP3    H180299   4.164   2.980  12.091 -1.4263  0.2504  0.1955
19628TIP3    H280300   4.079   2.856  12.076 -0.8304 -0.3846  1.9392
19629TIP3   OH280301   0.344   3.392  13.986  0.4139 -0.3720  0.0860
19629TIP3    H180302   0.376   3.309  13.950 -0.1166  0.0229 -1.3213
19629TIP3    H280303   0.283   3.425  13.921  1.4711  1.6840  0.0839
19630TIP3   OH280304   5.587   6.409   1.760 -0.4381  0.2050  0.1701
19630TIP3    H180305   5.519   6.462   1.718  1.1535  1.4226 -0.9050
19630TIP3    H280306   5.592   6.444   1.849 -1.8229 -0.4765  0.5264
19631TIP3   OH280307   0.324   1.765  14.961 -0.3769  0.1940 -0.3307
19631TIP3    H180308   0.326   1.857  14.988 -1.1759  0.6539 -1.7676
19631TIP3    H280309   0.413   1.747  14.932 -0.2927  0.6044 -0.3343
19632TIP3   OH280310   4.093   0.134  15.247  0.3159 -0.0909  0.1856
19632TIP3    H180311   4.082   0.222  15.281  0.4401  0.0339 -0.0941
19632TIP3    H280312   4.077   0.077  15.322  0.9234  0.1891  0.5351
19633TIP3   OH280313   1.807   6.042   1.189  0.5819  0.0083  0.0659
19633TIP3    H180314   1.853   5.976   1.137  0.7262 -0.0415  0.2541
19633TIP3    H280315   1.725   6.057   1.142  0.5163 -0.3607  0.0630
19634TIP3   OH280316   4.091   0.457   2.661 -0.0847 -0.1066 -0.6787
19634TIP3    H180317   4.161   0.471   2.598  0.2259  3.4455  0.3410
19634TIP3    H280318   4.134   0.417   2.737  0.7608  1.4492 -0.3121
19635TIP3   OH280319   2.264   3.860  15.537 -0.1073  0.3915 -0.2864
19635TIP3    H180320   2.201   3.932  15.530  0.1697  0.8025  1.2384
19635TIP3    H280321   2.304   3.855  15.451 -0.6229  1.6184 -0.6092
19636TIP3   OH280322   1.660   2.326  11.205  0.4579 -0.4239 -0.2516
19636TIP3    H180323   1.628   2.236  11.201  0.1326 -0.3591  0.7356
19636TIP3    H280324   1.649   2.352  11.297 -0.4237  0.9870 -0.7310
19637TIP3   OH280325   0.390   5.400   5.513  0.1809 -0.2642  0.7897
19637TIP3    H180326   0.449   5.386   5.439 -0.8427 -1.0949  0.1305
19637TIP3    H280327   0.445   5.444   5.578  1.6206 -1.2827  0.2979
19638TIP3   OH280328   0.861   0.355   3.746 -0.6021  0.0680 -0.7317
19638TIP3    H180329   0.768   0.376   3.749 -0.2869  1.3637  1.1531
19638TIP3    H280330   0.898   0.401   3.821  1.6563  0.0679 -1.7893
19639TIP3   OH280331   4.446   2.451   4.476 -0.1898 -0.1873  0.1552
19639TIP3    H180332   4.524   2.494   4.509  1.9331 -3.6128 -0.1939
19639TIP3    H280333   4.395   2.522   4.436  2.0630  2.3239  1.5531
19640TIP3   OH280334   2.403   5.336   2.229  0.0747 -0.1542  0.0435
19640TIP3    H180335   2.373   5.253   2.194 -2.9503  0.1908  1.7411
19640TIP3    H280336   2.327   5.394   2.223  1.7832  2.1550 -0.0029
19641TIP3   OH280337   2.087   1.770  14.977 -0.1477  0.0805 -0.4850
19641TIP3    H180338   2.121   1.722  15.052 -0.8720  0.8698  0.3576
19641TIP3    H280339   2.164   1.785  14.921  0.3258 -0.8205 -0.0812
19642TIP3   OH280340   4.098   3.515  11.686  0.2628  0.0242  0.6561
19642TIP3    H180341   4.136   3.598  11.715  2.3379 -0.6969  0.0661
19642TIP3    H280342   4.057   3.536  11.602 -0.3767  0.7385  1.1424
19643TIP3   OH280343   5.716   2.341  13.733  0.0427 -0.2557 -0.4424
19643TIP3    H180344   5.772   2.306  13.802 -0.7300 -1.0757 -0.2189
19643TIP3    H280345   5.637   2.371  13.779  0.0200  0.2900 -0.8296
19644TIP3   OH280346   3.585   6.046   2.815 -0.3750 -0.5479 -0.5493
19644TIP3    H180347   3.568   5.953   2.834  0.8147 -1.0080 -1.7265
19644TIP3    H280348   3.578   6.053   2.720 -0.8204  0.6621 -0.4408
19645TIP3   OH280349   0.782   0.088   3.250  0.2832 -0.0349  0.6479
19645TIP3    H180350   0.874   0.087   3.222  0.1560  0.2811  0.2092
19645TIP3    H280351   0.767   0.178   3.279 -0.3053  0.3040 -0.6910
19646TIP3   OH280352   2.742   6.021  12.115 -0.4440 -0.3258 -0.2524
19646TIP3    H180353   2.656   6.051  12.143 -0.3781 -0.8864  0.5798
19646TIP3    H280354   2.726   5.972  12.035 -0.7432  0.5736 -0.7605
19647TIP3   OH280355   3.043   3.507   2.917  0.0733  0.5596 -0.2308
19647TIP3    H180356   2.963   3.559   2.919 -1.2160 -1.3463 -0.4565
19647TIP3    H280357   3.014   3.418   2.939  1.7218 -0.6516 -2.7713
19648TIP3   OH280358   4.728   4.728   4.253 -0.8341  0.0941 -0.3623
19648TIP3    H180359   4.735   4.816   4.290  1.5638 -1.1998  2.4843
19648TIP3    H280360   4.660   4.686   4.306  0.0439 -0.6411  0.1939
19649TIP3   OH280361   3.786   0.149  16.796 -0.0275 -0.3137 -0.2576
19649TIP3    H180362   3.829   0.219  16.748 -0.2549  0.9435  1.3259
19649TIP3    H280363   3.780   0.076  16.733 -1.0762  1.5417 -2.3777
19650TIP3   OH280364   1.226   3.521   0.970  0.1008  0.2099 -0.4655
19650TIP3    H180365   1.232   3.453   1.038  1.7430  1.5172  0.7495
19650TIP3    H280366   1.313   3.559   0.967 -1.3217  3.7296  0.4478
19651TIP3   OH280367   0.396   0.477  16.233 -1.1509  0.1603  0.1543
19651TIP3    H180368   0.389   0.438  16.320 -2.4614 -0.1036 -0.0544
19651TIP3    H280369   0.313   0.525  16.222 -0.5686  1.0131 -0.5508
19652TIP3   OH280370   3.573   1.838  13.287 -0.6008 -0.5766  0.2696
19652TIP3    H180371   3.514   1.779  13.240  0.5920 -1.6032  0.0466
19652TIP3    H280372   3.566   1.921  13.240 -1.0785 -0.9778 -0.3723
19653TIP3   OH280373   2.347   4.041  11.632  0.2888  0.3415  0.0073
19653TIP3    H180374   2.442   4.044  11.620  0.3254 -0.3044  0.1369
19653TIP3    H280375   2.327   4.121  11.681  0.4722  1.6172 -1.9413
19654TIP3   OH280376   5.247   4.444   2.641  0.2330 -0.3393  0.3581
19654TIP3    H180377   5.243   4.494   2.560 -0.0383 -0.7131  0.1439
19654TIP3    H280378   5.188   4.371   2.628 -0.5084  0.0869  1.2319
19655TIP3   OH280379   6.347   2.529   3.346 -0.8232  0.2944  0.3259
19655TIP3    H180380   6.327   2.455   3.288  0.2146 -0.7537  1.2945
19655TIP3    H280381   6.325   2.498   3.433  2.5820 -0.0200  1.1322
19656TIP3   OH280382   1.197   4.767  17.067 -0.5069  0.0396 -0.7580
19656TIP3    H180383   1.134   4.799  17.131 -0.7138  3.5834 -2.6002
19656TIP3    H280384   1.156   4.689  17.030 -1.6374 -0.4217  1.4051
19657TIP3   OH280385   4.447   2.994   5.439 -0.2230  0.6712  0.2249
19657TIP3    H180386   4.532   2.973   5.478 -0.9718  0.3341  1.7357
19657TIP3    H280387   4.400   3.040   5.508 -1.2801  0.8198 -0.5834
19658TIP3   OH280388   0.645   1.419  12.759 -0.4120 -0.1576  0.5118
19658TIP3    H180389   0.691   1.440  12.841 -1.2314  2.1800  0.4179
19658TIP3    H280390   0.693   1.466  12.692  0.9198 -2.9511 -0.5778
19659TIP3   OH280391   2.388   4.279  15.103  0.0864 -0.2960 -0.0373
19659TIP3    H180392   2.422   4.197  15.139 -2.0106 -1.6710 -1.0798
19659TIP3    H280393   2.454   4.306  15.039  0.3244 -1.7328 -0.4239
19660TIP3   OH280394   2.941   6.779  10.996 -1.1124  0.0243  0.3620
19660TIP3    H180395   2.857   6.821  10.978 -1.5553 -1.7249 -1.8722
19660TIP3    H280396   2.918   6.701  11.047 -0.6108  0.6929  1.6382
19661TIP3   OH280397   4.131   0.585   1.260 -0.4603 -0.1732 -0.5134
19661TIP3    H180398   4.171   0.656   1.311  1.4872 -0.8351 -1.0732
19661TIP3    H280399   4.073   0.630   1.198  0.7613  0.9424 -0.8830
19662TIP3   OH280400   4.458   5.824   5.933 -0.1741 -0.4519 -0.3341
19662TIP3    H180401   4.378   5.798   5.889 -0.8641 -1.6184  1.5404
19662TIP3    H280402   4.445   5.917   5.955 -0.6999 -0.4458 -0.6825
19663TIP3   OH280403   2.022   4.053  15.244 -0.1723  0.1738  0.2746
19663TIP3    H180404   2.030   3.958  15.242 -1.6549  0.0480 -0.2616
19663TIP3    H280405   1.933   4.070  15.213  0.8982  1.8381 -1.9854
19664TIP3   OH280406   0.191   4.758   1.260 -0.4849 -0.3149 -0.4023
19664TIP3    H180407   0.235   4.762   1.345 -0.3912 -0.4863 -0.4407
19664TIP3    H280408   0.099   4.771   1.280 -0.7411 -2.5555 -0.0057
19665TIP3   OH280409   0.098   4.503   2.782  0.0577  0.2687 -0.3127
19665TIP3    H180410   0.134   4.573   2.728 -1.7624  0.4112 -1.3748
19665TIP3    H280411   0.015   4.480   2.740 -0.7623 -0.5194  1.6648
19666TIP3   OH280412   3.709   1.389   2.834  0.7005 -0.1613 -0.0957
19666TIP3    H180413   3.630   1.372   2.887 -0.5642 -0.0226 -1.8874
19666TIP3    H280414   3.728   1.481   2.849  0.7338 -0.2883  0.6432
19667TIP3   OH280415   6.036   0.228  14.177  0.2768  0.1231  0.0999
19667TIP3    H180416   6.005   0.138  14.178  0.4602  0.0591  1.2611
19667TIP3    H280417   6.132   0.220  14.176  0.3070  0.3166 -3.6955
19668TIP3   OH280418   3.447   3.932   4.462 -0.3728  0.1926 -0.7995
19668TIP3    H180419   3.438   3.838   4.445 -0.6760 -0.2470  1.5746
19668TIP3    H280420   3.357   3.965   4.459 -0.2297  0.4908 -2.0117
19669TIP3   OH280421   6.632   3.278  12.612 -0.0719  0.3348 -0.5415
19669TIP3    H180422   6.681   3.299  12.533  1.4264 -1.1484 -0.0234
19669TIP3    H280423   6.671   3.333  12.680 -0.0903  0.1988 -0.4215
19670TIP3   OH280424   1.361   0.126   6.129 -0.1524  0.4434  0.0693
19670TIP3    H180425   1.310   0.207   6.136 -0.6600  0.3533 -2.3394
19670TIP3    H280426   1.300   0.057   6.156  0.1435  0.7797  1.6790
19671TIP3   OH280427   6.088   5.046  14.054 -0.8364 -0.7506  0.1357
19671TIP3    H180428   6.167   5.086  14.018 -0.9819 -0.4584  0.1433
19671TIP3    H280429   6.016   5.084  14.003 -0.9952 -0.8013  0.3227
19672TIP3   OH280430   5.862   5.109   1.588 -0.3189  0.2546  0.1241
19672TIP3    H180431   5.857   5.014   1.574 -0.2435  0.3399 -0.5094
19672TIP3    H280432   5.791   5.128   1.649  0.4430 -0.3880  1.2154
19673TIP3   OH280433   6.218   0.208  13.572 -0.5089  0.0389 -0.3204
19673TIP3    H180434   6.282   0.138  13.557 -0.3366  0.0728  0.2605
19673TIP3    H280435   6.156   0.199  13.499 -0.4951 -0.7267 -0.2455
19674TIP3   OH280436   3.091   1.590   3.257  0.3979  0.0807 -0.2294
19674TIP3    H180437   3.034   1.664   3.237 -1.5404 -1.1173  0.6894
19674TIP3    H280438   3.040   1.535   3.317  1.6845 -2.1285 -1.0666
19675TIP3   OH280439   1.123   0.066  15.543  0.5503 -0.2528 -0.3671
19675TIP3    H180440   1.191   0.038  15.604  2.1968  2.5264 -0.8797
19675TIP3    H280441   1.076  -0.015  15.522  3.5615 -2.2254  0.1226
19676TIP3   OH280442   2.655   0.973   3.049 -0.0441 -0.0356  0.5110
19676TIP3    H180443   2.673   1.036   2.979  0.1663  2.6699  2.9332
19676TIP3    H280444   2.695   0.891   3.017  2.4944  1.8011 -1.3173
19677TIP3   OH280445   4.356   5.917   3.351  0.0724 -0.0540 -0.0860
19677TIP3    H180446   4.299   5.959   3.286 -0.2936 -1.2512 -0.5452
19677TIP3    H280447   4.331   5.958   3.434  0.2126  1.1465 -0.6309
19678TIP3   OH280448   3.999   3.787   2.868 -0.0303 -0.2340 -0.3661
19678TIP3    H180449   3.917   3.807   2.913 -0.0360  0.2327 -0.5772
19678TIP3    H280450   3.979   3.712   2.813 -0.1545 -0.5006  0.0394
19679TIP3   OH280451   2.812   4.039   0.551 -0.0543  0.2288  0.4721
19679TIP3    H180452   2.889   4.096   0.543  1.5575 -1.9023  0.1622
19679TIP3    H280453   2.829   3.968   0.489 -2.1048 -0.4823  0.6928
19680TIP3   OH280454   5.508   5.763   5.921 -0.0765  1.0435 -0.5879
19680TIP3    H180455   5.478   5.844   5.881  0.8397  1.0651 -1.2355
19680TIP3    H280456   5.523   5.704   5.848 -0.9388  0.2156 -0.1040
19681TIP3   OH280457   6.723   4.821  11.449 -0.4838  0.3766 -0.0546
19681TIP3    H180458   6.704   4.843  11.540  1.0865  3.3552 -0.4165
19681TIP3    H280459   6.812   4.786  11.450 -1.6957 -2.9066 -0.0026
19682TIP3   OH280460   1.653   3.424  14.371 -0.1984  0.0910  0.4284
19682TIP3    H180461   1.670   3.334  14.341  3.5221  1.2258 -1.2029
19682TIP3    H280462   1.655   3.477  14.291  3.3407  2.3141  1.8574
19683TIP3   OH280463   3.092   4.995   3.576 -0.4776  0.0677  0.0272
19683TIP3    H180464   3.181   4.959   3.580 -0.1895  0.8745  1.1520
19683TIP3    H280465   3.101   5.086   3.604 -1.9720 -0.4324  2.2735
19684TIP3   OH280466   6.373   6.546  17.231 -0.1008 -0.1145  0.1541
19684TIP3    H180467   6.284   6.579  17.244  0.0123  0.1061  0.3692
19684TIP3    H280468   6.405   6.593  17.154  0.2039  0.5740  0.6954
19685TIP3   OH280469   2.425   2.017  15.400  0.4668 -0.0228 -0.2487
19685TIP3    H180470   2.403   2.056  15.315  0.1494  0.5624  0.0982
19685TIP3    H280471   2.508   1.973  15.385  1.6359  2.1067 -0.2656
19686TIP3   OH280472   4.845   3.002  13.366 -0.2178 -0.0185 -0.2494
19686TIP3    H180473   4.924   3.007  13.419  0.3529  2.0705 -1.2191
19686TIP3    H280474   4.875   3.021  13.277 -1.4680 -1.4856 -1.0198
19687TIP3   OH280475   1.425   1.819   0.865  0.2640 -0.4298  0.1634
19687TIP3    H180476   1.487   1.869   0.918  1.5415 -2.7295  0.9502
19687TIP3    H280477   1.347   1.812   0.920  1.1848 -1.8476  1.3543
19688TIP3   OH280478   2.380   3.619   5.168  0.5079  0.2423 -0.0329
19688TIP3    H180479   2.383   3.667   5.251 -2.3335 -0.7925  0.7195
19688TIP3    H280480   2.429   3.538   5.185  2.1888  1.2080 -0.1976
19689TIP3   OH280481   0.917   0.414  14.234 -0.4826  0.0662 -0.4279
19689TIP3    H180482   0.837   0.455  14.267 -0.2547  0.2723 -0.1297
19689TIP3    H280483   0.975   0.409  14.310 -0.5741 -0.9855 -0.4140
19690TIP3   OH280484   0.919   5.004  15.410 -0.4239 -0.5980  0.2187
19690TIP3    H180485   0.964   4.974  15.489  0.2629  0.0815  0.0914
19690TIP3    H280486   0.839   5.045  15.443 -1.4008 -2.5940  0.3864
19691TIP3   OH280487   4.297   6.274  11.201 -0.1982 -0.5539  0.3581
19691TIP3    H180488   4.218   6.286  11.254 -0.2066 -0.5684  0.3489
19691TIP3    H280489   4.316   6.361  11.167 -0.7051 -0.7021 -0.3286
19692TIP3   OH280490   0.727   1.328  14.022  0.0985 -0.1952  0.2813
19692TIP3    H180491   0.692   1.347  14.109  2.1929 -2.5136  1.6873
19692TIP3    H280492   0.685   1.246  13.996  0.2938 -0.0769 -0.4177
19693TIP3   OH280493   5.657   3.190  13.477  0.6292 -0.3481  0.9160
19693TIP3    H180494   5.699   3.138  13.546  2.5598  1.4027  1.0941
19693TIP3    H280495   5.648   3.277  13.516  0.4298  0.2894 -0.5425
19694TIP3   OH280496   4.553   0.135  11.547 -0.1990 -0.2552 -0.2845
19694TIP3    H180497   4.646   0.115  11.530 -0.3015 -0.8117 -0.2013
19694TIP3    H280498   4.510   0.050  11.543 -0.4810 -0.1904  1.2070
19695TIP3   OH280499   4.092   4.405  16.850  0.0460 -0.5847 -0.7968
19695TIP3    H180500   4.066   4.485  16.896 -0.7840 -0.1769 -1.9359
19695TIP3    H280501   4.020   4.389  16.788 -0.6343 -3.1502  0.5601
19696TIP3   OH280502   3.633   1.655  17.051 -0.0217  0.2881 -0.2674
19696TIP3    H180503   3.547   1.695  17.063  0.0120  0.5315 -0.8231
19696TIP3    H280504   3.695   1.728  17.055  0.0081  0.3595 -1.6839
19697TIP3   OH280505   1.938   0.338   3.662 -0.0028  0.0819 -0.3180
19697TIP3    H180506   2.002   0.326   3.592  0.6221  1.6126 -0.0378
19697TIP3    H280507   1.991   0.340   3.742 -0.6629 -1.1498  0.1644
19698TIP3   OH280508   0.264   5.390  16.653 -0.1446 -0.6977 -0.0947
19698TIP3    H180509   0.248   5.424  16.565  0.8496  1.2214  0.4324
19698TIP3    H280510   0.295   5.300  16.639 -1.1120 -0.8060 -1.6262
19699TIP3   OH280511   6.777   6.134  12.850  0.0205  0.6845 -0.5520
19699TIP3    H180512   6.750   6.223  12.828 -0.1770  1.1979  1.6312
19699TIP3    H280513   6.866   6.126  12.815 -0.1714  1.5222 -1.2668
19700TIP3   OH280514   5.217   4.102   2.790 -0.0427 -0.6936 -0.1891
19700TIP3    H180515   5.165   4.022   2.800  2.2560 -2.3011 -0.7366
19700TIP3    H280516   5.220   4.140   2.878 -2.5936 -0.2562 -0.2650
19701TIP3   OH280517   0.049   2.416   3.030 -0.4464 -0.0187 -0.1317
19701TIP3    H180518   0.028   2.430   2.938 -1.5857 -1.2066 -0.0752
19701TIP3    H280519  -0.029   2.446   3.077 -0.7501 -1.4112  0.2968
19702TIP3   OH280520   4.216   3.651   2.324 -0.5654 -0.1165 -0.4083
19702TIP3    H180521   4.128   3.671   2.355 -0.9434 -0.8175 -1.0103
19702TIP3    H280522   4.274   3.679   2.395 -1.1859  1.5116 -0.5316
19703TIP3   OH280523   0.949   6.640   3.409 -0.3209  0.0196 -0.2022
19703TIP3    H180524   0.969   6.550   3.434  1.1095  0.5077  0.4704
19703TIP3    H280525   0.947   6.688   3.492  3.8481  1.5460 -0.8754
19704TIP3   OH280526   3.519   6.358   4.185  0.8783  0.7449 -0.0594
19704TIP3    H180527   3.449   6.328   4.243 -3.1234  0.9920 -4.4725
19704TIP3    H280528   3.515   6.454   4.189 -0.1937  0.7740 -1.5783
19705TIP3   OH280529   3.165   0.670  13.092 -0.3757 -0.3569 -0.3473
19705TIP3    H180530   3.146   0.670  13.186  2.1288  0.3070  0.1938
19705TIP3    H280531   3.079   0.680  13.051 -1.3883  0.7708  1.9148
19706TIP3   OH280532   1.397   1.388  15.477 -0.5090  0.1881 -0.3712
19706TIP3    H180533   1.391   1.483  15.470  0.3118  0.2418 -0.3537
19706TIP3    H280534   1.415   1.359  15.388 -0.1078  0.1014 -0.2632
19707TIP3   OH280535   3.775   2.796  14.813 -0.4699  0.2845 -0.1158
19707TIP3    H180536   3.784   2.891  14.818 -0.3308  0.2858 -0.3700
19707TIP3    H280537   3.862   2.762  14.835 -0.3611  0.2367 -0.5992
19708TIP3   OH280538   2.617   0.269  13.281  0.1393  0.5499  0.4282
19708TIP3    H180539   2.594   0.359  13.306  0.6339  0.5810  0.7898
19708TIP3    H280540   2.689   0.247  13.339  1.4221  0.6689 -1.0914
19709TIP3   OH280541   6.490   5.174   0.371 -0.1581 -0.4267  0.4550
19709TIP3    H180542   6.435   5.155   0.295 -1.1450 -0.4123  1.1627
19709TIP3    H280543   6.575   5.136   0.348  0.5547  2.4546 -2.0626
19710TIP3   OH280544   6.588   1.380   3.501 -0.1245  0.1341  0.1938
19710TIP3    H180545   6.682   1.394   3.491 -0.0437 -1.4436 -1.5401
19710TIP3    H280546   6.551   1.468   3.513  1.5637  0.7480  0.9699
19711TIP3   OH280547   5.034   4.909  13.400 -0.7443 -0.0515 -0.3998
19711TIP3    H180548   5.065   4.998  13.383 -2.3785  0.7002  0.4916
19711TIP3    H280549   5.009   4.875  13.314 -0.4838  0.4835 -0.6890
19712TIP3   OH280550   1.735   1.257   2.216  0.6167 -0.2501 -0.4630
19712TIP3    H180551   1.801   1.202   2.174  1.1503 -0.6275  0.8402
19712TIP3    H280552   1.652   1.217   2.193  0.9612 -1.1140 -0.2209
19713TIP3   OH280553   0.571   3.964  12.701 -0.0083 -0.9155  0.1427
19713TIP3    H180554   0.499   3.907  12.727 -0.9474 -0.1164 -0.6302
19713TIP3    H280555   0.640   3.905  12.672 -0.0205 -1.7129  1.6913
19714TIP3   OH280556   4.376   5.982  16.022 -0.3533 -0.0206  0.1913
19714TIP3    H180557   4.365   5.965  16.116 -1.3568 -1.9308 -0.2397
19714TIP3    H280558   4.471   5.989  16.010 -0.0373 -2.4184  0.9647
19715TIP3   OH280559   6.093   6.325   0.008 -0.1717 -0.2514 -0.5246
19715TIP3    H180560   5.998   6.314   0.008 -0.3135  0.8869  0.8818
19715TIP3    H280561   6.118   6.315  -0.084 -1.3889 -2.6954 -0.6222
19716TIP3   OH280562   4.284   3.242  13.378  0.4575 -1.0204 -0.2021
19716TIP3    H180563   4.278   3.148  13.359 -0.9694 -1.2826  1.3732
19716TIP3    H280564   4.372   3.254  13.412  0.5452 -1.8408 -0.1302
19717TIP3   OH280565   4.499   4.295   5.737  0.7114  0.3298  0.7205
19717TIP3    H180566   4.574   4.239   5.754  1.0116  0.5736  0.2170
19717TIP3    H280567   4.426   4.252   5.781  1.1279  0.0494  1.1431
19718TIP3   OH280568   0.976   1.390  13.582  0.2483  0.1946 -0.0795
19718TIP3    H180569   1.033   1.438  13.643 -0.4435  0.5401  0.3024
19718TIP3    H280570   0.936   1.459  13.528  0.1593 -0.0435 -0.3206
19719TIP3   OH280571   1.256   4.945   0.685 -0.4701  0.4442 -0.4876
19719TIP3    H180572   1.256   4.984   0.772  0.6912  1.3069 -0.8655
19719TIP3    H280573   1.335   4.890   0.683 -0.9053 -0.1760 -0.7300
19720TIP3   OH280574   6.673   4.190   6.506 -0.2360 -0.5693 -0.0172
19720TIP3    H180575   6.637   4.256   6.565 -0.6010  0.1674 -1.0591
19720TIP3    H280576   6.767   4.191   6.525 -0.4442 -0.8789  1.0857
19721TIP3   OH280577   3.289   1.193   3.948 -0.2589 -0.1518 -0.6957
19721TIP3    H180578   3.221   1.203   3.881 -0.2429 -0.3555 -0.7440
19721TIP3    H280579   3.369   1.172   3.899 -0.0138  0.7540 -0.6826
19722TIP3   OH280580   4.471   6.423   2.214 -0.0834 -0.5835 -0.4408
19722TIP3    H180581   4.528   6.460   2.282 -0.8993  0.9236 -0.5448
19722TIP3    H280582   4.519   6.436   2.132 -0.5993  0.7753 -0.5407
19723TIP3   OH280583   4.795   0.729   1.614  0.2004  0.7846 -0.0341
19723TIP3    H180584   4.824   0.688   1.696  0.1496  0.5227 -0.1455
19723TIP3    H280585   4.862   0.704   1.550  1.4670  2.8866  0.4274
19724TIP3   OH280586   5.195   1.872  12.121 -0.0644  0.0103 -0.3574
19724TIP3    H180587   5.122   1.870  12.182  0.3581 -0.2568  0.1465
19724TIP3    H280588   5.210   1.965  12.104 -0.8290  0.0439 -0.8375
19725TIP3   OH280589   6.155   2.437   1.782 -0.4525  0.1521  0.1703
19725TIP3    H180590   6.126   2.478   1.863  0.2673  0.3423  0.3303
19725TIP3    H280591   6.248   2.420   1.795  0.1625  2.1092 -1.3994
19726TIP3   OH280592   6.112   3.506  11.653 -0.1869  0.0868 -0.6042
19726TIP3    H180593   6.119   3.601  11.664 -3.4742  0.2309  0.7933
19726TIP3    H280594   6.026   3.492  11.613  0.2456 -2.3167 -0.8063
19727TIP3   OH280595   6.101   5.435   5.904  0.1515 -0.0906 -0.1914
19727TIP3    H180596   6.168   5.499   5.927  0.7180 -0.7572  0.0387
19727TIP3    H280597   6.046   5.428   5.983  0.3742 -0.2327 -0.0469
19728TIP3   OH280598   1.664   1.254   3.964 -0.1109  0.2674  0.3438
19728TIP3    H180599   1.593   1.307   3.999  0.9977  0.2983  2.6227
19728TIP3    H280600   1.723   1.316   3.922 -0.4229  0.4550  0.1815
19729TIP3   OH280601   6.359   0.042   5.385 -0.0524 -0.1525  0.2683
19729TIP3    H180602   6.331   0.035   5.293 -0.5057 -0.1377  0.4035
19729TIP3    H280603   6.285   0.008   5.435  0.6617 -1.2676  0.5764
19730TIP3   OH280604   2.805   0.153   0.626 -0.1052  0.7944  0.7576
19730TIP3    H180605   2.792   0.062   0.601  1.6792  0.6771  0.1930
19730TIP3    H280606   2.760   0.204   0.558 -0.8891  0.3348  0.9394
19731TIP3   OH280607   6.722   0.652   5.049 -0.1304  0.0633  0.5931
19731TIP3    H180608   6.677   0.636   5.133 -1.5996  2.4556  0.3129
19731TIP3    H280609   6.691   0.738   5.022  1.3197 -0.1386 -1.8108
19732TIP3   OH280610   3.892   4.910  11.371  0.6317 -0.0433  0.4137
19732TIP3    H180611   3.903   4.815  11.369  0.1393 -0.1022 -2.7574
19732TIP3    H280612   3.981   4.944  11.377  1.0543 -0.7152 -1.5423
19733TIP3   OH280613   3.106   5.002   4.896 -0.1924 -0.0300  0.1791
19733TIP3    H180614   3.139   5.084   4.860 -0.0768  0.5820  1.6732
19733TIP3    H280615   3.016   4.996   4.862  0.1176  0.2485 -0.6954
19734TIP3   OH280616   1.081   0.727   4.716 -0.3320  0.2603 -0.6714
19734TIP3    H180617   1.027   0.804   4.698 -1.2083 -0.5584 -1.5692
19734TIP3    H280618   1.138   0.719   4.640 -1.2990 -0.8766 -1.2834
19735TIP3   OH280619   4.712   2.975  16.733  0.9831 -0.0850 -0.5161
19735TIP3    H180620   4.723   2.961  16.640 -0.9940  1.9840 -1.1210
19735TIP3    H280621   4.646   2.911  16.760 -2.3094  2.6507 -1.6742
19736TIP3   OH280622   3.981   4.792   1.312  0.4672  0.2652 -0.0165
19736TIP3    H180623   3.948   4.868   1.360  1.0991  1.4649 -1.4368
19736TIP3    H280624   3.907   4.731   1.309 -0.5817  1.5424 -0.3508
19737TIP3   OH280625   6.714   5.413   1.191 -0.8285 -0.2725  0.3302
19737TIP3    H180626   6.667   5.391   1.271 -2.8397 -0.0420 -0.7570
19737TIP3    H280627   6.796   5.453   1.222 -2.3021  1.3795  2.2915
19738TIP3   OH280628   3.169   0.078   4.756  0.1557  0.0367  0.1390
19738TIP3    H180629   3.258   0.091   4.724 -0.5527 -0.8624 -2.2583
19738TIP3    H280630   3.170  -0.009   4.796 -0.0701 -0.6702 -1.3914
19739TIP3   OH280631   0.128   5.856   0.795 -0.2757  0.9187  0.5404
19739TIP3    H180632   0.174   5.774   0.783 -3.5178 -1.0970  1.2040
19739TIP3    H280633   0.196   5.923   0.789  2.1788 -1.6367 -2.0492
19740TIP3   OH280634   1.940   3.287   2.883  0.3777  0.2130  0.0644
19740TIP3    H180635   2.021   3.308   2.837  0.5494 -1.0128 -0.2173
19740TIP3    H280636   1.932   3.354   2.951  1.6236  0.3491  0.0838
19741TIP3   OH280637   2.171   5.285  14.847 -0.2190 -0.8409 -0.8162
19741TIP3    H180638   2.203   5.195  14.843 -0.4793 -0.9556 -0.3397
19741TIP3    H280639   2.249   5.337  14.865  0.0455 -0.8961 -1.7802
19742TIP3   OH280640   2.316   3.753  12.578 -0.5499  0.8781 -0.3604
19742TIP3    H180641   2.297   3.660  12.582 -0.8555  0.9942  1.9227
19742TIP3    H280642   2.339   3.770  12.487 -0.7123 -1.3739 -0.8367
19743TIP3   OH280643   6.637   0.350   2.994 -0.2442 -0.6556  0.2249
19743TIP3    H180644   6.678   0.267   3.017  1.4488  0.5127  1.5723
19743TIP3    H280645   6.633   0.399   3.076  0.2237  1.1895 -0.8187
19744TIP3   OH280646   0.255   2.427   3.527  0.0068 -0.8174 -0.0780
19744TIP3    H180647   0.169   2.408   3.488  0.5731 -0.9215 -1.3115
19744TIP3    H280648   0.292   2.495   3.471  0.6104 -0.5664  0.6212
19745TIP3   OH280649   5.202   3.611  14.263 -0.5390  0.3106 -0.2805
19745TIP3    H180650   5.230   3.691  14.219  0.6312  1.4567  2.4487
19745TIP3    H280651   5.226   3.624  14.355  0.6551 -3.6019  0.0679
19746TIP3   OH280652   1.239   0.817  14.809 -0.0712  0.1119 -0.3642
19746TIP3    H180653   1.295   0.843  14.736  0.8910  1.2418  0.7541
19746TIP3    H280654   1.209   0.899  14.847 -3.1104 -0.4901 -1.3915
19747TIP3   OH280655   6.719   1.580  12.546  0.3326  0.3108 -0.3827
19747TIP3    H180656   6.751   1.638  12.615  0.0377  1.3779 -1.1435
19747TIP3    H280657   6.790   1.579  12.481 -0.2112  0.8504 -0.9833
19748TIP3   OH280658   4.225   0.913  12.273 -0.8434  0.4795 -0.1301
19748TIP3    H180659   4.272   0.989  12.305  0.5205 -0.9854  1.4177
19748TIP3    H280660   4.240   0.913  12.178  0.3473  1.3119  0.0619
19749TIP3   OH280661   0.712   6.734  11.148 -0.4538 -0.2151 -0.1674
19749TIP3    H180662   0.794   6.782  11.137 -0.2267 -0.4794  0.3368
19749TIP3    H280663   0.650   6.779  11.092 -0.2175  0.6103  0.2316
19750TIP3   OH280664   4.380   1.799   2.710 -0.1303 -0.0337 -0.0652
19750TIP3    H180665   4.437   1.825   2.638 -0.5022 -2.0890 -1.1357
19750TIP3    H280666   4.331   1.879   2.732  0.6745  0.8599 -1.4300
19751TIP3   OH280667   5.842   4.513  15.668  0.4423 -0.0357 -0.7701
19751TIP3    H180668   5.854   4.579  15.600  1.1326  1.5804  0.8793
19751TIP3    H280669   5.928   4.507  15.711 -0.1586 -0.5676  0.3729
19752TIP3   OH280670   3.198   2.583  12.181  0.7547 -0.5409 -0.2075
19752TIP3    H180671   3.217   2.551  12.093  0.1527 -0.4325 -0.3783
19752TIP3    H280672   3.284   2.606  12.217  0.7637  2.3407 -1.8992
19753TIP3   OH280673   0.991   6.580   1.584 -0.0194 -0.1158 -0.2007
19753TIP3    H180674   1.057   6.584   1.515  0.0703  0.1061 -0.1045
19753TIP3    H280675   1.038   6.546   1.660 -0.0230  0.0134 -0.1402
19754TIP3   OH280676   3.388   0.832   1.375 -0.0304  0.4601  0.6381
19754TIP3    H180677   3.476   0.826   1.339 -0.0951  0.2954  0.5104
19754TIP3    H280678   3.394   0.900   1.442  0.4634 -0.3333  1.4185
19755TIP3   OH280679   3.716   6.185   3.498  0.2113  0.7260  0.6214
19755TIP3    H180680   3.776   6.258   3.480  1.6473 -1.0923 -2.4230
19755TIP3    H280681   3.710   6.139   3.414 -1.5979 -1.9714  2.1850
19756TIP3   OH280682   0.324   1.126  13.922  0.2861  0.7725  0.2255
19756TIP3    H180683   0.313   1.199  13.860  0.1628  0.7137  0.1776
19756TIP3    H280684   0.417   1.127  13.943  0.1816  1.3244  0.6920
19757TIP3   OH280685   1.311   3.166   4.098  0.3029  0.0164  0.6243
19757TIP3    H180686   1.236   3.225   4.093  0.3951 -0.0046 -1.9742
19757TIP3    H280687   1.279   3.091   4.148 -1.2201  0.2777  0.0834
19758TIP3   OH280688   0.958   6.629   4.588 -0.3331  0.0950  0.0615
19758TIP3    H180689   0.864   6.644   4.583 -0.3305  1.0430  2.2525
19758TIP3    H280690   0.993   6.668   4.508 -1.3144  3.8299  1.3698
19759TIP3   OH280691   0.850   1.551  14.881  0.0454  0.2645 -0.6563
19759TIP3    H180692   0.866   1.491  14.809  1.1654 -0.1652 -0.0649
19759TIP3    H280693   0.760   1.534  14.908 -0.3483  0.3730 -1.8925
19760TIP3   OH280694   6.753   0.596  16.567  0.1983  0.4059  0.2201
19760TIP3    H180695   6.782   0.513  16.605  0.4258 -0.3752 -1.6472
19760TIP3    H280696   6.760   0.659  16.640  0.0458 -1.1894  1.6312
19761TIP3   OH280697   5.819   0.382  15.380 -0.0129 -0.4765  0.1727
19761TIP3    H180698   5.787   0.383  15.290  1.2750  0.1755 -0.2855
19761TIP3    H280699   5.850   0.293  15.394  1.6454 -0.0419 -0.7005
19762TIP3   OH280700   6.521   2.773  13.462  0.6833  0.1950  0.2311
19762TIP3    H180701   6.614   2.760  13.483  0.3529  2.7152  3.7303
19762TIP3    H280702   6.474   2.732  13.534 -0.7171  3.7887  1.4551
19763TIP3   OH280703   0.748   6.014   3.104  0.1241 -0.4056  0.1081
19763TIP3    H180704   0.660   6.011   3.067  0.2176  2.8377 -0.4740
19763TIP3    H280705   0.797   5.948   3.056 -1.2272 -0.1508 -1.6564
19764TIP3   OH280706   5.085   4.226   4.173  0.3543 -0.3022  0.3782
19764TIP3    H180707   5.076   4.150   4.117 -0.7306  0.1636 -0.0796
19764TIP3    H280708   5.092   4.190   4.262  1.0977 -0.9842  0.0453
19765TIP3   OH280709   0.656   5.179  12.003  0.1449 -0.0242  0.4544
19765TIP3    H180710   0.579   5.229  11.979 -0.2554 -1.5354 -1.5174
19765TIP3    H280711   0.630   5.087  11.991  1.3861 -0.6804  2.3824
19766TIP3   OH280712   6.480   0.482   4.282  0.1261  0.7029 -0.0745
19766TIP3    H180713   6.566   0.519   4.262  1.4038 -1.0125  1.9978
19766TIP3    H280714   6.474   0.488   4.378 -2.7214  2.1896 -0.3184
19767TIP3   OH280715   3.014   0.769   0.329  0.5998  0.4850 -0.4090
19767TIP3    H180716   2.979   0.755   0.417 -1.0207 -2.1357 -1.4122
19767TIP3    H280717   3.013   0.864   0.318 -0.0106  0.8054  2.0547
19768TIP3   OH280718   6.013   6.687   3.033  0.2681 -0.0524  0.1846
19768TIP3    H180719   5.985   6.660   2.945  1.4661 -0.5321 -0.0689
19768TIP3    H280720   5.943   6.743   3.065  0.0082  0.4508 -1.2466
19769TIP3   OH280721   1.292   2.583  17.098  0.2927  0.3986  0.1107
19769TIP3    H180722   1.252   2.650  17.042  1.5334  1.0279 -0.0387
19769TIP3    H280723   1.287   2.503  17.046  0.8873  0.8541 -0.6623
19770TIP3   OH280724   5.689   4.717   2.304 -0.2401 -0.6598  0.8283
19770TIP3    H180725   5.775   4.683   2.325  0.2450  0.1308  0.1831
19770TIP3    H280726   5.666   4.675   2.221  0.5380  0.8723 -0.1759
19771TIP3   OH280727   1.031   0.484  15.263  0.2692 -0.0232  0.2972
19771TIP3    H180728   1.062   0.574  15.273  1.4774 -0.5351  1.2041
19771TIP3    H280729   0.936   0.490  15.279  0.1966  1.2131 -0.5140
19772TIP3   OH280730   0.117   2.444   5.936  1.0677  0.0243  0.2883
19772TIP3    H180731   0.186   2.462   6.000  1.6274 -0.6702 -0.1165
19772TIP3    H280732   0.158   2.385   5.872  0.3264  0.2047 -0.3636
19773TIP3   OH280733   6.165   6.570  12.611  0.3769  0.0528 -0.0389
19773TIP3    H180734   6.184   6.616  12.530 -0.5838 -1.2108 -1.0041
19773TIP3    H280735   6.229   6.499  12.614  0.4091  0.0956  0.3062
19774TIP3   OH280736   4.717   5.304  11.337 -0.3560 -0.2570 -0.0651
19774TIP3    H180737   4.774   5.228  11.341  0.4592  0.4175  1.4381
19774TIP3    H280738   4.763   5.372  11.387 -0.5497  1.5693 -2.2580
19775TIP3   OH280739   6.079   3.154  13.433 -0.1509 -0.3070  0.4457
19775TIP3    H180740   6.113   3.243  13.423 -1.9087  0.3367  0.1157
19775TIP3    H280741   6.131   3.117  13.505  2.6662 -0.0744 -1.3749
19776TIP3   OH280742   3.277   6.181   4.236  0.3676  0.0129  0.0797
19776TIP3    H180743   3.281   6.131   4.155 -0.1993  0.6189 -0.3234
19776TIP3    H280744   3.248   6.118   4.302 -1.1882  0.0186 -0.5976
19777TIP3   OH280745   2.137   4.278  16.252  0.6957  0.5015 -0.2947
19777TIP3    H180746   2.071   4.327  16.301  1.4326  1.3689 -0.1433
19777TIP3    H280747   2.100   4.190  16.243 -1.2970  1.4734 -1.8689
19778TIP3   OH280748   1.432   0.321  15.766 -0.0673 -0.5988 -0.1594
19778TIP3    H180749   1.363   0.360  15.819 -1.3027 -0.4144 -1.8476
19778TIP3    H280750   1.413   0.350  15.677  2.5687 -0.0218 -0.5784
19779TIP3   OH280751   5.201   5.473   4.251  0.0474 -0.3637 -0.2578
19779TIP3    H180752   5.204   5.418   4.330  0.8295 -0.4576 -0.3412
19779TIP3    H280753   5.112   5.507   4.248  0.0169 -0.3461  0.6792
19780TIP3   OH280754   3.034   0.501  11.464  0.2799  0.3153  0.9337
19780TIP3    H180755   3.099   0.449  11.417  0.3800  0.5989  0.7590
19780TIP3    H280756   3.038   0.587  11.423 -0.5777  0.1827  0.5704
19781TIP3   OH280757   2.519   2.612  16.691  0.5748 -0.2463  0.6098
19781TIP3    H180758   2.486   2.522  16.691  0.0191 -0.0561  2.0007
19781TIP3    H280759   2.613   2.603  16.706  0.7046 -0.6467 -0.4073
19782TIP3   OH280760   4.262   3.445  15.184  0.0930  0.5246 -0.4287
19782TIP3    H180761   4.255   3.533  15.220 -0.2784  0.4485 -0.3114
19782TIP3    H280762   4.304   3.394  15.252 -0.3616  0.4436 -0.2058
19783TIP3   OH280763   5.962   3.828  11.140 -0.0499  0.2958 -0.0843
19783TIP3    H180764   5.925   3.911  11.111  2.2369  1.2121 -0.5120
19783TIP3    H280765   5.937   3.821  11.232 -0.6840  1.2275 -0.1824
19784TIP3   OH280766   6.121   0.915  13.078 -0.5315 -0.1568  0.1096
19784TIP3    H180767   6.205   0.961  13.086 -1.1353  1.1203 -0.7857
19784TIP3    H280768   6.096   0.895  13.169 -1.0055  2.6947  0.6649
19785TIP3   OH280769   0.270   5.625  13.517  0.0595  0.2543 -0.1153
19785TIP3    H180770   0.226   5.698  13.560 -0.0314  0.5792 -0.7478
19785TIP3    H280771   0.257   5.641  13.423  1.2748  0.2081 -0.3056
19786TIP3   OH280772   3.125   5.451  14.938 -0.3998 -0.0736  0.1886
19786TIP3    H180773   3.050   5.415  14.892  1.2599  0.4259 -3.0492
19786TIP3    H280774   3.123   5.545  14.918  1.1655 -0.0876 -0.1136
19787TIP3   OH280775   5.299   5.424  15.290  0.1026 -0.1967 -0.0792
19787TIP3    H180776   5.293   5.468  15.375  0.7652  0.2719 -0.2741
19787TIP3    H280777   5.239   5.350  15.297 -1.7559  1.2689 -0.0616
19788TIP3   OH280778   2.213   4.262   5.522 -0.1526 -0.8542 -0.2499
19788TIP3    H180779   2.215   4.167   5.534  0.6995 -1.0726 -1.9743
19788TIP3    H280780   2.136   4.290   5.571  0.1660 -2.2979  1.1310
19789TIP3   OH280781   5.417   4.482  15.033 -0.0413  0.2092  0.3489
19789TIP3    H180782   5.368   4.564  15.039  0.1117  0.5565 -2.5077
19789TIP3    H280783   5.501   4.501  15.075  0.0634  1.5965 -0.4621
19790TIP3   OH280784   3.830   6.711   0.234  0.0196 -0.4481  0.2122
19790TIP3    H180785   3.892   6.731   0.304 -0.8044  0.4310  0.6977
19790TIP3    H280786   3.765   6.654   0.275 -1.1339  1.0468  0.4973
19791TIP3   OH280787   2.043   5.077   5.483  0.0955  0.2079 -0.0630
19791TIP3    H180788   2.115   5.036   5.531 -1.5614 -0.6059  1.7961
19791TIP3    H280789   2.062   5.171   5.487  0.7563  0.0379  0.8880
19792TIP3   OH280790   3.972   5.276  13.185  0.6904  0.1899 -0.0105
19792TIP3    H180791   3.953   5.274  13.279 -1.6354  1.2627 -0.4320
19792TIP3    H280792   3.954   5.187  13.155  0.5234  0.0820  0.4045
19793TIP3   OH280793   5.011   0.477   0.692  0.0666  0.2231  0.8954
19793TIP3    H180794   5.073   0.500   0.761  0.6068 -2.2070  1.2454
19793TIP3    H280795   4.926   0.501   0.727  0.3896 -0.4972  2.1989
19794TIP3   OH280796   6.782   1.272  15.902 -0.8470 -0.1106 -0.4208
19794TIP3    H180797   6.835   1.269  15.982 -0.5709 -1.4014 -0.6349
19794TIP3    H280798   6.708   1.328  15.924 -0.7003 -0.3432  0.6928
19795TIP3   OH280799   0.008   3.645   3.034  0.0669  0.0918 -0.3154
19795TIP3    H180800   0.014   3.740   3.027 -0.6157  0.3812  2.3290
19795TIP3    H280801   0.099   3.616   3.040  0.2099  0.8648  1.6502
19796TIP3   OH280802   0.286   1.171  11.854  0.4288  0.2179 -0.0920
19796TIP3    H180803   0.339   1.136  11.782  0.1786 -0.3461  0.0029
19796TIP3    H280804   0.342   1.162  11.931 -0.0747 -1.0483  0.1371
19797TIP3   OH280805   1.111   4.755   1.969  0.6554  0.1764 -0.3366
19797TIP3    H180806   1.023   4.732   1.938  0.1346  2.2882 -0.5233
19797TIP3    H280807   1.122   4.707   2.050 -0.6910 -0.0875 -0.3016
19798TIP3   OH280808   2.211   3.259  11.950  0.7218  0.4010  0.2106
19798TIP3    H180809   2.247   3.217  12.028  1.3164  1.8636  0.7399
19798TIP3    H280810   2.267   3.230  11.878  1.1920  0.3787  0.5871
19799TIP3   OH280811   0.654   5.711   1.688  0.2260  0.2055  0.2275
19799TIP3    H180812   0.677   5.766   1.613  0.1671  1.7267  1.3113
19799TIP3    H280813   0.735   5.665   1.709  0.7949  1.3130  0.4955
19800TIP3   OH280814   3.054   0.775  15.520 -0.2703 -0.6102 -0.9855
19800TIP3    H180815   3.066   0.681  15.505  0.9297 -0.5211 -0.6802
19800TIP3    H280816   3.139   0.804  15.554 -1.5734 -0.0318  1.9689
19801TIP3   OH280817   4.354   4.151  11.297  0.4031 -0.1473 -0.1671
19801TIP3    H180818   4.443   4.179  11.280  0.5938 -0.1474  0.7775
19801TIP3    H280819   4.354   4.057  11.280  0.5503 -0.1254 -0.2841
19802TIP3   OH280820   4.391   3.203   1.236  0.1923  0.1931 -0.2453
19802TIP3    H180821   4.442   3.266   1.287  0.8162 -0.3378 -0.2012
19802TIP3    H280822   4.384   3.241   1.149  0.7031  0.2542 -0.2605
19803TIP3   OH280823   2.711   0.371   2.423 -0.6623 -0.3515  0.3112
19803TIP3    H180824   2.792   0.326   2.449  0.4627  1.4758  0.0665
19803TIP3    H280825   2.712   0.368   2.327 -0.8870 -0.3284  0.3084
19804TIP3   OH280826   1.354   4.238   1.042 -0.4644 -0.0112  0.4948
19804TIP3    H180827   1.259   4.235   1.038 -0.4629  1.1894 -0.6482
19804TIP3    H280828   1.378   4.315   0.991  1.2515 -1.8657 -1.6340
19805TIP3   OH280829   6.205   0.744   4.327  0.3496  0.1896  0.2154
19805TIP3    H180830   6.238   0.831   4.303  1.8155 -0.3674  0.1424
19805TIP3    H280831   6.215   0.739   4.422 -1.9025  0.9507  0.5316
19806TIP3   OH280832   0.324   5.553   3.806  0.7265  0.2838  0.1966
19806TIP3    H180833   0.405   5.501   3.801  1.3290  1.2264 -0.1479
19806TIP3    H280834   0.316   5.592   3.719 -0.1228  0.1558  0.2221
19807TIP3   OH280835   1.222   5.148   3.465 -0.0373 -0.3406 -0.7476
19807TIP3    H180836   1.186   5.061   3.449 -0.1507 -0.5464  0.6365
19807TIP3    H280837   1.158   5.192   3.520  1.2246 -0.2860  0.7023
19808TIP3   OH280838   2.045   4.630   5.455 -0.0041  0.3004 -0.2888
19808TIP3    H180839   1.957   4.602   5.482 -0.8120  1.1218 -1.9667
19808TIP3    H280840   2.101   4.605   5.527 -1.3013 -2.1952 -0.0755
19809TIP3   OH280841   0.728   3.756  12.597  0.3150  0.2268  0.2689
19809TIP3    H180842   0.690   3.691  12.538 -1.1002 -0.2487  1.6796
19809TIP3    H280843   0.779   3.705  12.660  0.7633  0.6263  0.2304
19810TIP3   OH280844   4.102   3.021  12.832  0.0613 -0.2128 -0.1766
19810TIP3    H180845   4.169   2.959  12.863  0.3810 -0.5635 -1.5266
19810TIP3    H280846   4.020   2.988  12.869  0.5847  0.0678  1.2750
19811TIP3   OH280847   1.873   3.521  11.525 -0.6255 -0.2642  0.0801
19811TIP3    H180848   1.872   3.590  11.592 -1.5189  1.0612 -1.2495
19811TIP3    H280849   1.962   3.525  11.489 -0.2279 -0.7973  0.9840
19812TIP3   OH280850   2.344   3.545  14.877  0.2716 -0.0801 -0.6240
19812TIP3    H180851   2.276   3.478  14.879  0.9591 -0.8640 -2.0689
19812TIP3    H280852   2.296   3.628  14.871 -0.5852 -0.4129  1.5108
19813TIP3   OH280853   5.422   6.026   5.113 -0.4810  0.5480  0.0773
19813TIP3    H180854   5.372   6.108   5.118 -0.2174  0.5986  2.5233
19813TIP3    H280855   5.513   6.054   5.111 -0.4446  0.3599 -0.8250
19814TIP3   OH280856   1.213   5.304  17.048  0.3188  0.1613  0.6260
19814TIP3    H180857   1.250   5.371  16.990 -0.1103  1.5285  1.9166
19814TIP3    H280858   1.131   5.279  17.005  0.1732  0.9204  0.4491
19815TIP3   OH280859   3.252   1.778  12.264  0.3308 -0.4097  0.2093
19815TIP3    H180860   3.260   1.743  12.175 -0.1795 -1.3937  0.5481
19815TIP3    H280861   3.216   1.866  12.252 -1.7499 -1.3198 -0.4510
19816TIP3   OH280862   2.440   3.346   0.158 -0.6110 -0.3885  0.2052
19816TIP3    H180863   2.404   3.397   0.232 -0.7906 -1.0132  0.5507
19816TIP3    H280864   2.365   3.334   0.100  0.1978  2.7980 -1.6438
19817TIP3   OH280865   2.128   6.502  11.691  0.0573 -0.2071 -0.0239
19817TIP3    H180866   2.184   6.495  11.613  0.7108 -0.6956  0.4816
19817TIP3    H280867   2.084   6.586  11.681  1.2931  0.4340 -0.1571
19818TIP3   OH280868   0.145   2.991  15.267 -0.2268  0.4552 -0.9707
19818TIP3    H180869   0.191   2.950  15.339 -1.2678 -0.7857 -1.0072
19818TIP3    H280870   0.114   3.075  15.302 -1.6745 -0.6155  0.3744
19819TIP3   OH280871   2.459   1.631  13.172 -0.2463 -0.4806  0.6341
19819TIP3    H180872   2.470   1.592  13.258  0.9107  1.6781  1.5181
19819TIP3    H280873   2.544   1.619  13.129 -0.7168 -1.2596 -0.0866
19820TIP3   OH280874   5.703   2.770  14.935  0.7006 -0.0773  0.5059
19820TIP3    H180875   5.729   2.730  14.852 -0.4454  1.1770 -0.4753
19820TIP3    H280876   5.760   2.846  14.944  2.0226 -1.1795  1.7587
19821TIP3   OH280877   4.587   4.637   3.462  0.0300 -0.2560  0.5357
19821TIP3    H180878   4.601   4.720   3.417 -0.1081 -0.0124  0.9421
19821TIP3    H280879   4.504   4.649   3.509 -0.3449 -0.8640  0.0440
19822TIP3   OH280880   1.088   3.040  15.392 -0.3160 -0.3902 -0.4633
19822TIP3    H180881   1.181   3.051  15.370 -0.2074  0.1633  0.2518
19822TIP3    H280882   1.071   2.947  15.380 -0.2481 -0.1418 -2.8333
19823TIP3   OH280883   3.125   4.548   5.688  0.3695 -0.2341 -0.4288
19823TIP3    H180884   3.111   4.572   5.597  0.4388 -0.2108 -0.4338
19823TIP3    H280885   3.096   4.624   5.738  3.5623  1.1606 -0.5738
19824TIP3   OH280886   6.704   5.255  11.123 -0.3000 -0.5259  0.1755
19824TIP3    H180887   6.623   5.232  11.169  0.4945 -1.2873  1.2129
19824TIP3    H280888   6.714   5.187  11.056 -0.2980 -0.6661  0.3190
19825TIP3   OH280889   6.123   5.230   3.466  0.7381 -0.0056  0.3868
19825TIP3    H180890   6.172   5.149   3.472  1.8991  0.7646  1.6094
19825TIP3    H280891   6.181   5.290   3.419  0.1768  0.3400  0.1219
19826TIP3   OH280892   0.259   3.899   0.894  0.0843  0.1377  0.2002
19826TIP3    H180893   0.352   3.882   0.882 -0.3120  0.0582 -3.2870
19826TIP3    H280894   0.216   3.842   0.831 -2.3004  0.6274  1.3310
19827TIP3   OH280895   1.987   3.389   4.277  0.2014 -0.2887 -0.0996
19827TIP3    H180896   1.944   3.387   4.192 -2.6091 -1.6653  1.2753
19827TIP3    H280897   1.942   3.458   4.325  1.8052  0.5165  0.3074
19828TIP3   OH280898   6.469   2.842  15.776 -0.3927  0.2414 -0.5358
19828TIP3    H180899   6.436   2.922  15.736 -1.6323 -2.0304 -4.4304
19828TIP3    H280900   6.562   2.858  15.789 -0.5418  2.1771 -1.6450
19829TIP3   OH280901   2.186   3.489  11.782  0.0121 -0.4694 -0.7251
19829TIP3    H180902   2.200   3.409  11.832  0.9424 -0.4392 -0.9287
19829TIP3    H280903   2.210   3.466  11.692  0.7611  0.1789 -0.6914
19830TIP3   OH280904   2.961   4.532  14.520  0.0307  0.7852  0.2691
19830TIP3    H180905   3.024   4.472  14.481 -1.4002 -0.3950 -0.2652
19830TIP3    H280906   3.011   4.581  14.585  1.3789 -0.5082  0.2199
19831TIP3   OH280907   0.814   6.396   4.304  0.5135 -0.2829 -0.2219
19831TIP3    H180908   0.909   6.388   4.294  0.2159 -0.4245 -3.5794
19831TIP3    H280909   0.778   6.321   4.257 -1.3090  0.5233 -0.1713
19832TIP3   OH280910   5.765   5.770  13.216 -0.0784 -0.2993 -0.1298
19832TIP3    H180911   5.843   5.820  13.192  0.2838 -0.1393  1.3474
19832TIP3    H280912   5.792   5.717  13.291 -1.3830 -0.2313  0.4083
19833TIP3   OH280913   4.787   3.184   1.902 -0.3749 -0.5156  0.0142
19833TIP3    H180914   4.727   3.205   1.830  0.8517  0.2565 -0.8025
19833TIP3    H280915   4.805   3.090   1.892 -3.5954 -1.4305  1.9398
19834TIP3   OH280916   3.421   6.524  12.612 -0.4156 -0.4094 -0.2740
19834TIP3    H180917   3.475   6.452  12.646  2.0265  2.3102  1.9092
19834TIP3    H280918   3.399   6.575  12.690 -0.6772  2.1145 -1.9504
19835TIP3   OH280919   5.378   4.755  15.388  0.7202  0.2822  0.4187
19835TIP3    H180920   5.425   4.681  15.428 -1.7221 -1.7205 -0.2752
19835TIP3    H280921   5.368   4.729  15.296  1.5072  2.3790 -0.2777
19836TIP3   OH280922   3.349   5.253   2.021  0.0499  0.4541  0.5221
19836TIP3    H180923   3.443   5.240   2.024  0.0028 -0.1518 -0.4737
19836TIP3    H280924   3.335   5.312   1.947 -0.5607 -1.5957 -1.0608
19837TIP3   OH280925   3.374   6.321  15.511  0.1030 -0.1265  0.2624
19837TIP3    H180926   3.361   6.341  15.604  0.5663 -0.6732  0.4435
19837TIP3    H280927   3.419   6.399  15.477  0.0034  0.0428  0.5116
19838TIP3   OH280928   4.957   4.606  14.265 -0.2480  0.4483 -0.6189
19838TIP3    H180929   4.961   4.522  14.219 -1.0441  0.5385 -0.8553
19838TIP3    H280930   5.000   4.668  14.206  0.3711  0.2081 -0.4324
19839TIP3   OH280931   0.800   0.529  11.968  0.2604  0.3851  0.0194
19839TIP3    H180932   0.731   0.555  11.908  0.5765  0.5568 -0.2717
19839TIP3    H280933   0.877   0.580  11.941  0.0638  1.4270  1.3867
19840TIP3   OH280934   2.300   3.986   0.041 -0.1831  0.3838 -0.2251
19840TIP3    H180935   2.266   4.075   0.037  0.0709  0.4231 -1.4915
19840TIP3    H280936   2.333   3.968  -0.047  0.0232 -0.8606  0.0930
19841TIP3   OH280937   1.192   1.304   5.721 -0.7631  0.3866 -0.1303
19841TIP3    H180938   1.214   1.211   5.711  0.0980  0.3368  1.8547
19841TIP3    H280939   1.256   1.350   5.666 -0.6044 -0.1610 -0.4035
19842TIP3   OH280940   1.080   4.999  14.238  0.4081 -0.3971 -0.0060
19842TIP3    H180941   1.008   4.959  14.287 -0.9487  2.3941  0.3895
19842TIP3    H280942   1.096   4.939  14.165 -2.6960 -0.7843 -0.4308
19843TIP3   OH280943   6.553   4.594  15.007  0.1285  0.3940 -0.2377
19843TIP3    H180944   6.534   4.510  14.965  0.2278 -0.1159  0.7228
19843TIP3    H280945   6.585   4.650  14.936  1.2097 -0.7522 -0.6708
19844TIP3   OH280946   5.481   0.222  15.914 -0.2531  0.2265 -0.3798
19844TIP3    H180947   5.566   0.234  15.958  0.5131 -2.0263 -1.1710
19844TIP3    H280948   5.446   0.142  15.952 -1.6225  0.6576 -0.7214
19845TIP3   OH280949   3.657   3.180   1.871  0.2337  0.1660 -0.3773
19845TIP3    H180950   3.726   3.241   1.846  0.6144 -0.0856  0.0329
19845TIP3    H280951   3.670   3.168   1.966  2.1467 -2.9589 -0.9553
19846TIP3   OH280952   3.172   1.159  13.641 -0.4841 -0.3089 -0.1597
19846TIP3    H180953   3.217   1.080  13.612  0.8015  0.5588 -0.6172
19846TIP3    H280954   3.237   1.205  13.694 -1.1046  0.5915 -0.1675
19847TIP3   OH280955   4.595   0.165  13.237  0.5636  0.2101 -0.0049
19847TIP3    H180956   4.668   0.227  13.233  0.4365  0.4959  1.9353
19847TIP3    H280957   4.523   0.215  13.274 -0.5523 -0.1752 -1.5691
19848TIP3   OH280958   0.480   3.767  17.125  0.3692 -0.0482  0.1293
19848TIP3    H180959   0.479   3.745  17.218  0.7579 -0.1034  0.1219
19848TIP3    H280960   0.387   3.771  17.101  0.2640  0.1774  0.5687
19849TIP3   OH280961   5.374   4.857   3.723 -0.4523 -0.2640 -0.0669
19849TIP3    H180962   5.349   4.941   3.685  0.3402 -0.4088 -0.9413
19849TIP3    H280963   5.444   4.825   3.666  0.7998 -0.4840  1.5396
19850TIP3   OH280964   5.192   2.552  14.993 -0.5397  0.4720  0.0171
19850TIP3    H180965   5.141   2.528  15.070 -0.6624  1.2334  0.1784
19850TIP3    H280966   5.283   2.551  15.023 -0.4494 -0.8532 -0.2631
19851TIP3   OH280967   5.525   2.086  12.583  0.1208 -0.1666 -0.2686
19851TIP3    H180968   5.548   1.995  12.604  2.5685  0.0236 -1.9099
19851TIP3    H280969   5.451   2.079  12.522  1.1163 -1.1191 -1.3913
19852TIP3   OH280970   6.780   0.509  14.532  0.1995 -0.3603 -0.1156
19852TIP3    H180971   6.838   0.548  14.465 -2.8711  0.0689 -2.6451
19852TIP3    H280972   6.800   0.416  14.529  1.7913 -0.0468  0.1035
19853TIP3   OH280973   1.219   1.391  12.645 -0.1320 -0.2764 -0.5857
19853TIP3    H180974   1.175   1.385  12.560 -0.8865 -0.1304 -0.2082
19853TIP3    H280975   1.151   1.370  12.709  0.7039 -1.5113 -0.0679
19854TIP3   OH280976   5.973   0.689  14.547  0.1839  0.2210  0.8500
19854TIP3    H180977   5.936   0.722  14.629 -1.1097  1.1828 -0.1042
19854TIP3    H280978   6.059   0.730  14.542 -0.1266  0.9311  1.2453
19855TIP3   OH280979   5.019   3.898  12.005 -0.2201 -1.0465  0.7316
19855TIP3    H180980   5.076   3.970  12.030 -1.9866  0.1707  1.3637
19855TIP3    H280981   5.041   3.879  11.914  1.6592 -1.0659  1.1820
19856TIP3   OH280982   0.720   1.534  14.384  0.0549 -0.2615  0.2464
19856TIP3    H180983   0.745   1.574  14.301  1.5604  0.5698  1.0795
19856TIP3    H280984   0.628   1.558  14.396  0.6038  1.9794  0.1496
19857TIP3   OH280985   1.447   2.455   5.258 -0.8369 -0.9227 -0.0713
19857TIP3    H180986   1.359   2.453   5.220 -0.0661  1.9641 -2.2004
19857TIP3    H280987   1.505   2.449   5.182  0.7598  0.7920  0.9856
19858TIP3   OH280988   1.841   5.161   5.292  0.3227 -0.8113 -0.6196
19858TIP3    H180989   1.907   5.122   5.234 -0.3384 -1.8707 -0.6660
19858TIP3    H280990   1.800   5.086   5.335 -1.0867 -0.1836 -0.8474
19859TIP3   OH280991   0.927   2.169   5.460 -0.1645 -0.4505  0.1039
19859TIP3    H180992   0.996   2.230   5.486 -0.6399 -0.0620  0.4887
19859TIP3    H280993   0.846   2.221   5.466 -0.2645 -0.2870 -2.4455
19860TIP3   OH280994   6.015   1.014  15.340  0.3559  0.0121  0.2502
19860TIP3    H180995   5.976   1.087  15.293 -0.0580 -0.2810  0.1354
19860TIP3    H280996   6.023   0.945  15.275 -1.0781 -0.7080  0.8147
19861TIP3   OH280997   6.276   1.731  14.889  0.2082 -0.1843  0.1424
19861TIP3    H180998   6.279   1.699  14.979 -0.0015  1.9978  0.9440
19861TIP3    H280999   6.245   1.822  14.896  0.3517  0.0738 -2.1067
19862TIP3   OH281000   0.092   2.138   1.321 -0.2164 -0.2438 -0.0569
19862TIP3    H181001   0.078   2.045   1.333  2.8306 -0.8368 -0.5562
19862TIP3    H281002   0.137   2.145   1.237 -0.8638  1.7170 -0.2664
19863TIP3   OH281003   2.034   1.088  15.241  0.1484 -0.3766  0.3816
19863TIP3    H181004   2.048   1.069  15.333 -0.8748  0.3495  0.6936
19863TIP3    H281005   1.940   1.101  15.233  0.4465  1.5459 -0.3842
19864TIP3   OH281006   2.404   6.356   3.299  0.7563 -0.5199 -0.0779
19864TIP3    H181007   2.446   6.372   3.214 -0.0673 -0.1700 -0.4271
19864TIP3    H281008   2.325   6.306   3.278  0.7465 -0.7589  0.5232
19865TIP3   OH281009   5.070   2.064   0.796  0.1275 -0.5496  0.0943
19865TIP3    H181010   5.030   2.120   0.863 -1.3117 -1.5302  0.0827
19865TIP3    H281011   5.145   2.023   0.840  1.7409  2.0588 -0.1732
19866TIP3   OH281012   2.272   0.913   5.367 -0.2642 -0.1564  0.4250
19866TIP3    H181013   2.256   0.840   5.426  0.2681  0.0639  0.8476
19866TIP3    H281014   2.185   0.949   5.348 -0.7343 -2.1050 -1.3483
19867TIP3   OH281015   4.738   6.137   3.133 -0.2279 -0.7756  0.2383
19867TIP3    H181016   4.731   6.097   3.047  0.4606 -0.1363 -0.1231
19867TIP3    H281017   4.741   6.231   3.116  0.3583 -0.6642  0.9210
19868TIP3   OH281018   2.253   0.018  13.944 -0.0752 -0.1362  0.5852
19868TIP3    H181019   2.234   0.104  13.906  0.9008  1.4702  3.6238
19868TIP3    H281020   2.168  -0.023  13.954 -0.8603  1.7353  1.9284
19869TIP3   OH281021   1.071   5.739  13.888 -0.2907  0.6015  0.0216
19869TIP3    H181022   1.070   5.827  13.849  0.4830 -0.2668 -2.0601
19869TIP3    H281023   0.985   5.730  13.929 -0.0187  2.6829  1.0963
19870TIP3   OH281024   3.250   0.768   4.623  0.1295  0.2092 -0.0564
19870TIP3    H181025   3.277   0.859   4.608 -1.7931  0.6475 -0.9967
19870TIP3    H281026   3.194   0.772   4.700 -0.7176 -0.0348 -0.6542
19871TIP3   OH281027   0.237   5.956   6.210 -0.0343  0.1564 -0.7229
19871TIP3    H181028   0.185   5.988   6.136 -2.0959 -0.7662  0.2979
19871TIP3    H281029   0.294   5.889   6.171 -1.1339 -0.3534 -1.4920
19872TIP3   OH281030   0.348   5.191   3.864  0.4568  0.1603  0.0027
19872TIP3    H181031   0.398   5.122   3.820  1.5865  0.4931  0.7379
19872TIP3    H281032   0.257   5.168   3.850  0.8213 -0.7602 -0.8967
19873TIP3   OH281033   1.507   4.811   1.134 -0.3599  0.3523 -0.6267
19873TIP3    H181034   1.554   4.842   1.056  0.9852  0.6536  0.2877
19873TIP3    H281035   1.519   4.881   1.198 -1.6446  0.2015 -0.2081
19874TIP3   OH281036   2.172   4.941  15.657 -0.5159  0.2199  0.8972
19874TIP3    H181037   2.226   4.872  15.617 -0.2439  1.4306 -0.8853
19874TIP3    H281038   2.089   4.899  15.676  0.2635 -1.0728  1.5493
19875TIP3   OH281039   6.428   5.748   0.211  0.8272  0.2840 -0.2298
19875TIP3    H181040   6.483   5.804   0.156 -0.0017  1.2100 -0.1397
19875TIP3    H281041   6.344   5.794   0.214  0.3366 -0.6473  0.3855
19876TIP3   OH281042   1.745   4.894   3.795  0.1826 -0.1057 -0.0814
19876TIP3    H181043   1.708   4.969   3.841  2.0027  1.9568 -1.8817
19876TIP3    H281044   1.839   4.913   3.789  0.6790 -2.5391 -0.5594
19877TIP3   OH281045   3.104   2.183  16.707  0.3908  0.0056 -0.4558
19877TIP3    H181046   3.167   2.210  16.774 -0.5181 -1.0165  0.8299
19877TIP3    H281047   3.116   2.246  16.636  3.8574 -1.0117 -0.8596
19878TIP3   OH281048   0.258   2.359   2.808 -0.0790 -0.2200  0.1500
19878TIP3    H181049   0.163   2.357   2.802 -0.0313 -0.8407 -0.4597
19878TIP3    H281050   0.285   2.269   2.788  0.6700  0.1014 -0.3105
19879TIP3   OH281051   3.099   3.911   2.875 -0.1991  0.1629 -0.0928
19879TIP3    H181052   3.063   3.962   2.948  1.9398  0.5464  0.7189
19879TIP3    H281053   3.107   3.822   2.909 -1.4576 -0.1729 -0.6549
19880TIP3   OH281054   5.470   5.577   2.233 -0.2013 -0.1384  0.2558
19880TIP3    H181055   5.551   5.534   2.207 -1.8512 -1.7624 -2.4713
19880TIP3    H281056   5.497   5.663   2.263  2.5233 -0.6023 -0.7199
19881TIP3   OH281057   0.682   3.566   4.501  0.3158 -0.5246 -0.2594
19881TIP3    H181058   0.686   3.551   4.407 -0.2125 -0.8272 -0.2343
19881TIP3    H281059   0.660   3.659   4.510 -1.1335 -0.8380 -0.4507
19882TIP3   OH281060   3.619   1.761   1.174  0.0559 -0.1032 -0.3177
19882TIP3    H181061   3.688   1.756   1.241  0.8144  3.0562 -0.7461
19882TIP3    H281062   3.657   1.718   1.097  0.5347 -0.7016  0.2470
19883TIP3   OH281063   4.745   2.786   5.189  0.3772 -0.6038  0.4995
19883TIP3    H181064   4.763   2.809   5.097 -1.1850  0.7037  0.5130
19883TIP3    H281065   4.788   2.855   5.239 -1.8063  0.6905  0.6297
19884TIP3   OH281066   4.946   6.532   4.626 -0.0765 -0.3696 -0.1756
19884TIP3    H181067   4.912   6.530   4.715  0.9265 -0.8686  0.2059
19884TIP3    H281068   5.025   6.477   4.629 -0.1633 -0.5789 -1.4157
19885TIP3   OH281069   2.156   2.791  12.659 -0.0491 -0.2188  0.4637
19885TIP3    H181070   2.173   2.768  12.567  0.7884 -1.7425  0.9882
19885TIP3    H281071   2.115   2.713  12.696 -1.1153  0.6790  1.2037
19886TIP3   OH281072   4.690   2.740  14.757 -0.1495  0.0023  0.0265
19886TIP3    H181073   4.636   2.672  14.798  1.0421 -0.7997  0.2805
19886TIP3    H281074   4.626   2.803  14.723 -1.2708 -1.2330 -0.2128
19887TIP3   OH281075   1.469   0.407  14.094  0.2472  0.0543  0.2902
19887TIP3    H181076   1.374   0.411  14.081  0.1633  0.4086  0.9559
19887TIP3    H281077   1.482   0.441  14.182  0.8236 -1.7670  0.9375
19888TIP3   OH281078   3.923   3.081   2.273  0.6532 -0.1853 -0.1279
19888TIP3    H181079   3.983   3.022   2.319  1.4263  0.4216 -0.3457
19888TIP3    H281080   3.979   3.128   2.211 -0.0874  0.2398 -0.4729
19889TIP3   OH281081   4.713   3.235  14.130 -0.2092  0.1112 -0.2412
19889TIP3    H181082   4.660   3.156  14.142 -0.7040  0.3844 -0.6472
19889TIP3    H281083   4.659   3.306  14.165  0.1291  0.3081 -0.1156
19890TIP3   OH281084   6.685   0.492  14.847  0.4664 -0.3256  0.2173
19890TIP3    H181085   6.739   0.571  14.844 -0.3692  0.2804  0.8437
19890TIP3    H281086   6.597   0.524  14.867  0.1915 -1.4501  0.8457
19891TIP3   OH281087   6.366   4.642  16.068  0.2658  0.6544  0.0664
19891TIP3    H181088   6.297   4.701  16.038  1.2927  0.8471 -2.0748
19891TIP3    H281089   6.327   4.592  16.140 -2.4330  0.0330 -1.7665
19892TIP3   OH281090   0.833   5.376  17.204 -0.0597  0.2762  0.4182
19892TIP3    H181091   0.826   5.286  17.171  0.6216  0.8711 -1.4246
19892TIP3    H281092   0.861   5.427  17.128 -3.3620  2.5995  0.6740
19893TIP3   OH281093   0.977   0.299   1.577 -0.2498  0.4120 -0.3048
19893TIP3    H181094   0.910   0.286   1.510  1.3760  0.5604 -1.9980
19893TIP3    H281095   0.992   0.212   1.613 -0.2803  0.1257 -0.9718
19894TIP3   OH281096   1.800   5.591  17.135 -0.7959 -0.7769  0.2210
19894TIP3    H181097   1.722   5.545  17.103  0.1776 -1.4082 -1.2889
19894TIP3    H281098   1.870   5.526  17.129 -0.1031 -0.1374  1.3300
19895TIP3   OH281099   3.890   6.193   5.932  0.0466  0.4660 -0.2898
19895TIP3    H181100   3.819   6.254   5.911  0.9700  1.1377 -1.5416
19895TIP3    H281101   3.869   6.114   5.882 -0.1648  0.4279 -0.1409
19896TIP3   OH281102   3.392   2.062   3.270  0.7923  0.7166  0.0978
19896TIP3    H181103   3.456   2.034   3.336 -0.3859 -1.3476  0.4134
19896TIP3    H281104   3.368   2.150   3.297  0.0332 -0.2288  2.7443
19897TIP3   OH281105   3.875   4.107   0.903  0.6238 -0.0411 -0.1205
19897TIP3    H181106   3.871   4.178   0.967 -0.3678  1.1407 -1.4570
19897TIP3    H281107   3.788   4.107   0.862  0.5983 -2.0689 -0.1091
19898TIP3   OH281108   2.542   4.584   5.142 -0.4866 -0.4004 -0.2127
19898TIP3    H181109   2.589   4.508   5.174 -1.5816 -1.3684 -0.8687
19898TIP3    H281110   2.534   4.570   5.048 -1.6842 -0.0356 -0.1742
19899TIP3   OH281111   0.237   1.353   2.071  0.1281  0.1997 -0.2078
19899TIP3    H181112   0.294   1.376   2.144 -0.4493  0.0651  0.2925
19899TIP3    H281113   0.206   1.438   2.038  0.2166  0.2529 -0.1553
19900TIP3   OH281114   3.343   4.793  17.187 -0.1386  0.3435 -0.7728
19900TIP3    H181115   3.289   4.824  17.260 -0.1502 -0.6474 -0.3514
19900TIP3    H281116   3.410   4.861  17.177 -0.5313  0.8176 -0.2769
19901TIP3   OH281117   4.448   0.166   4.961 -0.1987  0.2270  0.6763
19901TIP3    H181118   4.489   0.242   5.003 -0.8109 -0.3501  2.3507
19901TIP3    H281119   4.473   0.092   5.017 -0.5740 -0.6299 -0.2908
19902TIP3   OH281120   1.773   1.499   3.833  0.0924 -0.0786 -0.1948
19902TIP3    H181121   1.751   1.588   3.860 -1.4903 -1.4336  3.3391
19902TIP3    H281122   1.718   1.482   3.757 -1.2232  1.2354  0.4366
19903TIP3   OH281123   2.818   2.182  11.710 -0.0037  0.2526  0.1334
19903TIP3    H181124   2.854   2.168  11.622 -0.0301  1.8645 -0.1571
19903TIP3    H281125   2.724   2.194  11.694  0.0556  0.9843  0.3241
19904TIP3   OH281126   0.357   6.443   1.724 -0.1226  0.2820  0.5005
19904TIP3    H181127   0.349   6.348   1.712 -1.1783  0.4530 -0.1544
19904TIP3    H281128   0.390   6.475   1.640  3.0743  0.1625  1.6347
19905TIP3   OH281129   3.027   4.063  11.544  0.5539  0.5012  0.7202
19905TIP3    H181130   3.103   4.008  11.562  0.6918  1.3923  3.0511
19905TIP3    H281131   3.040   4.141  11.599 -1.2901  1.3362  0.0137
19906TIP3   OH281132   2.124   4.505  14.102 -0.4671 -0.5324 -0.8277
19906TIP3    H181133   2.173   4.431  14.139 -0.0694  0.3840  0.4908
19906TIP3    H281134   2.039   4.468  14.079 -1.4881 -0.7016  2.9150
19907TIP3   OH281135   4.926   3.327  16.554 -0.0632 -0.3140 -0.6893
19907TIP3    H181136   4.975   3.246  16.564 -0.5642 -0.5175  0.1177
19907TIP3    H281137   4.836   3.304  16.577 -0.3734  0.2695 -1.2853
19908TIP3   OH281138   3.815   2.038  12.496  0.1807  0.3038 -0.1578
19908TIP3    H181139   3.902   2.036  12.455 -0.2061  0.8064 -1.0304
19908TIP3    H281140   3.825   2.097  12.570  1.3185 -1.9302  1.5143
19909TIP3   OH281141   0.467   6.738   2.320  0.3728 -0.0642  0.2333
19909TIP3    H181142   0.556   6.734   2.284  0.1539  1.2255 -0.4770
19909TIP3    H281143   0.415   6.780   2.252 -0.7447 -0.5939  0.7404
19910TIP3   OH281144   0.613   0.654  16.298  0.5579  0.0350  0.2410
19910TIP3    H181145   0.523   0.632  16.277  0.4989  1.1117 -0.6923
19910TIP3    H281146   0.639   0.715  16.230  2.5023 -1.4533 -0.4103
19911TIP3   OH281147   4.764   0.486  11.089  0.1123  0.7494 -1.0333
19911TIP3    H181148   4.791   0.458  11.177  1.4016  2.8633 -0.7275
19911TIP3    H281149   4.814   0.429  11.030 -4.0634 -3.7967 -0.5184
19912TIP3   OH281150   1.017   6.529   2.875  0.1944  0.9423 -0.9016
19912TIP3    H181151   1.110   6.508   2.885 -0.5987 -1.2074  2.6633
19912TIP3    H281152   0.980   6.453   2.829 -0.2054  0.7529 -0.2731
19913TIP3   OH281153   3.571   4.638   6.019  0.5782  0.0878 -0.1295
19913TIP3    H181154   3.591   4.670   5.930 -0.6964  0.1872 -0.4013
19913TIP3    H281155   3.644   4.669   6.072  0.2018  2.0997 -0.7065
19914TIP3   OH281156   6.666   6.356  11.316  0.0304 -0.4513  0.4247
19914TIP3    H181157   6.707   6.415  11.252  0.6450  1.1202  2.2115
19914TIP3    H281158   6.730   6.286  11.328  0.1968 -0.4093 -0.1912
19915TIP3   OH281159   6.732   0.033  12.663 -0.1135  0.0856 -0.3369
19915TIP3    H181160   6.672   0.037  12.589 -0.5778 -0.5200 -0.0070
19915TIP3    H281161   6.819   0.045  12.625 -0.3820  0.1970 -0.9214
19916TIP3   OH281162   3.904   5.730  16.211  0.1206 -0.2263  0.5053
19916TIP3    H181163   3.915   5.639  16.238  1.3299 -0.9638 -2.2530
19916TIP3    H281164   3.981   5.748  16.156  0.2366  2.6674  1.4904
19917TIP3   OH281165   6.150   4.317  14.144  0.0575  0.5049  0.2843
19917TIP3    H181166   6.169   4.385  14.079  0.0996 -0.1938 -0.4505
19917TIP3    H281167   6.057   4.299  14.134  0.4037 -0.8087 -0.7897
19918TIP3   OH281168   2.311   0.417   4.989 -0.2622  0.9777  0.2662
19918TIP3    H181169   2.286   0.447   5.076 -0.0257 -0.9127  1.0169
19918TIP3    H281170   2.228   0.410   4.941 -0.5385  0.7612  0.7694
19919TIP3   OH281171   5.150   4.194   6.464 -0.3546 -0.2055  0.1072
19919TIP3    H181172   5.178   4.145   6.387 -0.6792 -1.8093  0.9757
19919TIP3    H281173   5.077   4.248   6.434 -0.2591 -0.5665 -0.7757
19920TIP3   OH281174   3.137   1.535   4.036 -0.1981 -0.3668 -0.4268
19920TIP3    H181175   3.066   1.511   3.977 -0.7089  1.2496 -0.4937
19920TIP3    H281176   3.095   1.584   4.107  0.7720  0.2022 -0.2288
19921TIP3   OH281177   5.127   5.792   4.563  0.2589 -0.2278  0.1478
19921TIP3    H181178   5.143   5.811   4.655 -0.2469  2.6154 -0.3254
19921TIP3    H281179   5.209   5.817   4.519 -0.6262  1.4861 -0.5578
19922TIP3   OH281180   4.422   5.343  15.328 -0.6257  0.3634  0.3558
19922TIP3    H181181   4.470   5.277  15.278  0.2831  0.9484  0.4407
19922TIP3    H281182   4.398   5.409  15.263 -0.0148  0.7982  0.5599
19923TIP3   OH281183   5.865   2.256  11.359  0.2555 -0.2668 -0.3224
19923TIP3    H181184   5.946   2.304  11.376  0.6311 -0.8717 -0.3645
19923TIP3    H281185   5.866   2.240  11.265  0.4241 -0.8713 -0.2173
19924TIP3   OH281186   0.774   1.107  16.899  0.0495  0.5322  0.4120
19924TIP3    H181187   0.785   1.180  16.839 -0.6657  0.0576 -0.3137
19924TIP3    H281188   0.819   1.034  16.857  1.4886  0.7485  1.5292
19925TIP3   OH281189   5.309   0.131  16.335  0.3743  0.5529  0.7358
19925TIP3    H181190   5.219   0.111  16.310  0.6864  0.7158 -0.5516
19925TIP3    H281191   5.347   0.171  16.257  1.9819 -0.7963  0.8197
19926TIP3   OH281192   6.393   4.972   5.128  0.1349 -0.0072  1.2314
19926TIP3    H181193   6.470   4.957   5.072  1.6971 -0.2194  3.3355
19926TIP3    H281194   6.375   5.065   5.120  0.5099  0.0154  0.5841
19927TIP3   OH281195   2.704   3.824  12.662  0.0489 -0.1770 -0.2319
19927TIP3    H181196   2.797   3.847  12.656  0.0644 -0.2924 -0.4094
19927TIP3    H281197   2.703   3.730  12.678 -0.0369 -0.1697 -0.1904
19928TIP3   OH281198   5.598   2.679   1.448  0.6895  0.0796 -0.2924
19928TIP3    H181199   5.541   2.753   1.429  0.7579  0.8201  2.2518
19928TIP3    H281200   5.686   2.711   1.432  0.6085 -0.0527 -1.0276
19929TIP3   OH281201   6.586   5.944   4.234  0.2109  0.0422  0.0499
19929TIP3    H181202   6.610   5.942   4.141 -0.6856  1.1724 -0.2250
19929TIP3    H281203   6.665   5.919   4.280  1.1960  1.2622 -0.9422
19930TIP3   OH281204   5.078   2.279  16.526 -0.1974  0.3130 -0.4726
19930TIP3    H181205   5.072   2.303  16.433  0.3531 -0.9050 -0.8373
19930TIP3    H281206   5.002   2.223  16.541 -1.2879  1.9453  0.2887
19931TIP3   OH281207   5.933   3.202  11.371  0.0440 -0.6855  0.0182
19931TIP3    H181208   5.928   3.129  11.310  2.3276 -1.1442  0.3290
19931TIP3    H281209   5.975   3.165  11.449  0.1036  0.6620  0.6406
19932TIP3   OH281210   4.763   2.704   0.018 -0.1159 -0.0365  0.3824
19932TIP3    H181211   4.833   2.721   0.082 -0.6613  1.0361  0.7079
19932TIP3    H281212   4.682   2.716   0.068 -0.5365 -1.3817  0.0326
19933TIP3   OH281213   3.031   0.098  10.283 -0.4006 -0.4133 -0.1152
19933TIP3    H181214   3.090   0.023  10.275 -1.3721 -1.1001 -1.0044
19933TIP3    H281215   3.085   0.174  10.262  0.8772 -0.7371  1.8734
19934TIP3   OH281216   4.149   6.754   3.543  0.3753  0.1116  0.7840
19934TIP3    H181217   4.113   6.705   3.617  1.0320  1.8155  2.2540
19934TIP3    H281218   4.117   6.707   3.466 -2.5702 -0.1439  2.0857
19935TIP3   OH281219   4.405   2.701  16.191 -0.0189  0.0829 -0.4073
19935TIP3    H181220   4.407   2.637  16.120 -0.0848  0.3707 -0.6715
19935TIP3    H281221   4.312   2.709  16.214 -0.1337  0.8820 -1.1118
19936TIP3   OH281222   4.609   1.821   0.054 -0.3501 -0.2112  0.3774
19936TIP3    H181223   4.605   1.830  -0.041 -0.5651  0.6944  0.4711
19936TIP3    H281224   4.607   1.726   0.069 -2.2664 -0.3192 -0.4325
19937TIP3   OH281225   5.598   2.177  16.201  0.0337 -0.5656  1.0846
19937TIP3    H181226   5.621   2.089  16.233 -0.8061 -1.4450 -0.6220
19937TIP3    H281227   5.522   2.203  16.253 -0.4124 -1.3464  0.8354
19938TIP3   OH281228   3.632   0.937   3.639  0.0936 -0.9830  0.1294
19938TIP3    H181229   3.694   0.894   3.697 -0.9283 -0.4533  1.6574
19938TIP3    H281230   3.671   0.930   3.552  1.3183 -2.4067  0.7746
19939TIP3   OH281231   0.187   2.860  13.988 -0.0771  0.1207 -0.1047
19939TIP3    H181232   0.186   2.858  13.892 -0.4685  1.0053 -0.1312
19939TIP3    H281233   0.101   2.827  14.014  0.5233 -1.3881 -0.0181
19940TIP3   OH281234   5.822   3.384  13.091 -0.0885  0.3158  0.2950
19940TIP3    H181235   5.897   3.396  13.033 -1.4729 -0.9785 -1.8171
19940TIP3    H281236   5.823   3.290  13.112 -1.7123  0.0886 -0.6039
19941LIG      S81237   3.088   3.239  16.554  0.0631  0.4738  0.3707
19941LIG     F181238   3.540   3.000  16.948  0.3839 -0.1389 -0.3427
19941LIG     F281239   3.347   2.908  16.922  0.0691 -0.8152  0.0677
19941LIG     F381240   3.488   2.927  16.764  0.1905 -0.7401  0.5614
19941LIG     N181241   3.392   3.549  16.339 -0.4425 -0.5777  0.5496
19941LIG     N281242   3.518   3.286  16.360 -0.2015  0.6260  0.0203
19941LIG     N381243   3.184   3.482  16.673  0.4416  0.9895 -0.7603
19941LIG     N481244   3.383   3.488  16.903 -0.6397 -0.0746 -0.2434
19941LIG     C181245   3.410   3.472  16.222  0.2142 -0.3301  0.4823
19941LIG     C281246   3.506   3.522  16.421 -1.1488 -0.1740  0.1425
19941LIG     C381247   3.257   3.560  16.396 -0.2030 -0.2058  0.3629
19941LIG     C481248   3.420   3.313  16.260 -0.5387 -0.3850 -0.0638
19941LIG     C581249   3.511   3.375  16.477  0.7754  0.4958 -0.2641
19941LIG     C681250   3.236   3.666  16.511 -0.0500  0.1496  0.2640
19941LIG     C781251   3.248   3.612  16.661 -0.3679 -0.4801  0.5137
19941LIG     C881252   3.528   3.144  16.387  0.6721  0.1784  0.5686
19941LIG     C981253   3.248   3.366  16.736  0.0791  0.2828 -0.3621
19941LIG    C1081254   3.033   3.472  16.667 -1.0600 -0.4392 -0.0458
19941LIG    C1181255   3.218   3.239  16.680  0.0722 -0.2024 -0.1591
19941LIG    C1281256   2.978   3.359  16.615 -0.3881 -0.0780 -0.2200
19941LIG    C1381257   3.342   3.366  16.844  0.0162 -0.3763  0.2935
19941LIG    C1481258   2.954   3.572  16.716  0.4491  0.2459  0.4048
19941LIG    C1581259   3.284   3.127  16.716  0.6856 -0.1771  0.2403
19941LIG    C1681260   3.402   3.249  16.893 -0.4759 -0.5160  0.0810
19941LIG    C1781261   3.374   3.129  16.822 -0.5233 -0.2182 -0.3285
19941LIG    C1881262   2.838   3.344  16.594 -0.4915 -0.2091  0.0208
19941LIG    C1981263   2.810   3.556  16.715 -0.3770 -0.2646  0.5074
19941LIG    C2081264   2.759   3.439  16.649  0.6247 -0.4398  0.5460
19941LIG    C2181265   3.438   2.997  16.861 -0.3997  0.2015 -0.2101
19941LIG     H181266   3.501   3.490  16.161 -1.5263  3.6305 -1.1305
19941LIG     H281267   3.326   3.478  16.149  0.6249 -1.3345 -0.0884
19941LIG     H381268   3.516   3.595  16.505 -0.9508  1.0164 -0.8897
19941LIG     H481269   3.588   3.546  16.350 -0.8466  1.5717  1.0357
19941LIG     H581270   3.208   3.465  16.424  2.1791 -1.2544  1.1812
19941LIG     H681271   3.198   3.595  16.309 -1.7888  1.0988  1.9243
19941LIG     H781272   3.322   3.268  16.287 -0.2631 -0.2766  1.1452
19941LIG     H881273   3.464   3.259  16.173 -1.0872  1.4270 -1.4988
19941LIG     H981274   3.607   3.362  16.533  0.7866  1.7980  0.0279
19941LIG    H1081275   3.425   3.360  16.546  0.5182  0.2677 -0.6323
19941LIG    H1181276   3.131   3.702  16.500 -0.3812 -0.8596  0.1111
19941LIG    H1281277   3.303   3.753  16.494 -1.6626  0.7780 -3.5544
19941LIG    H1381278   3.357   3.597  16.674 -0.0459  1.1674 -0.2151
19941LIG    H1481279   3.201   3.688  16.727 -0.3001 -0.7808  0.9077
19941LIG    H1581280   3.443   3.076  16.364 -0.0919  1.7053 -1.3327
19941LIG    H1681281   3.539   3.119  16.494  2.6576  0.2194  0.3899
19941LIG    H1781282   3.617   3.108  16.332 -0.0810 -0.1754 -0.4493
19941LIG    H1881283   2.993   3.664  16.756  2.8811 -1.0451  1.0800
19941LIG    H1981284   3.259   3.042  16.654 -2.1487  0.6053  0.2462
19941LIG    H2081285   3.474   3.259  16.973  0.8478  0.5557 -1.2188
19941LIG    H2181286   2.803   3.258  16.539 -1.3854  0.7627 -0.9442
19941LIG    H2281287   2.738   3.628  16.750 -0.4070  0.1789 -0.4270
19941LIG    H2381288   2.652   3.434  16.637  0.3870  1.4529  1.6921
19941LIG    H2481289   3.366   3.571  16.849  1.0624  0.9572  0.7214
19941LIG    H2581290   3.474   3.482  16.945 -1.4892 -0.0160  1.6795
   6.78697   6.78697  17.23950
